Title
55513
    1DOPE     N    1   4.173   4.864  16.811 -0.8573 -0.6395 -0.1070
    1DOPE   HN1    2   4.215   4.910  16.728 -0.3737 -0.9874 -0.0664
    1DOPE   HN2    3   4.082   4.816  16.798 -1.1818 -0.2367  0.6237
    1DOPE   HN3    4   4.162   4.941  16.879 -3.2418 -0.0577 -1.0559
    1DOPE   C12    5   4.269   4.766  16.859 -0.7626 -0.3595 -0.8075
    1DOPE  H12A    6   4.351   4.819  16.914 -3.0262  0.4824  1.9929
    1DOPE  H12B    7   4.305   4.697  16.780  0.4966 -0.5505 -0.1056
    1DOPE   C11    8   4.202   4.681  16.966  0.0217 -0.6073  0.0543
    1DOPE  H11A    9   4.267   4.593  16.986  1.0360  0.1193  0.0565
    1DOPE  H11B   10   4.102   4.647  16.931 -0.6260  1.5890 -0.3803
    1DOPE     P   11   4.071   4.741  17.177  0.3024 -0.2795  0.1392
    1DOPE   O13   12   3.953   4.770  17.099 -0.6884 -0.5163 -0.2876
    1DOPE   O14   13   4.096   4.812  17.303  0.2405  0.4674  0.5598
    1DOPE   O11   14   4.084   4.591  17.209 -0.4883  0.5457 -0.3474
    1DOPE   O12   15   4.201   4.757  17.088  0.7353 -0.5432  0.0829
    1DOPE    C1   16   3.970   4.506  17.255  0.0962 -0.8961 -0.2565
    1DOPE    HA   17   3.873   4.539  17.211 -0.0466 -1.0610 -0.0675
    1DOPE    HB   18   3.959   4.517  17.365 -0.0269  2.7900 -0.5064
    1DOPE    C2   19   3.998   4.357  17.224 -0.1110 -0.3846  0.0233
    1DOPE    HS   20   4.105   4.343  17.248 -0.0542 -1.3020 -0.7291
    1DOPE   O21   21   3.972   4.332  17.080  0.2534 -0.2629  0.2194
    1DOPE   C21   22   4.083   4.342  16.999  0.2625  0.8359  0.1041
    1DOPE   O22   23   4.194   4.352  17.039 -0.5821 -0.2908 -1.1111
    1DOPE   C22   24   4.046   4.345  16.851 -0.1925  0.1168  0.0858
    1DOPE   H2R   25   4.114   4.420  16.806 -0.2305 -0.3763 -0.8000
    1DOPE   H2S   26   3.942   4.380  16.831 -0.4784  0.9235  2.6519
    1DOPE    C3   27   3.910   4.256  17.305 -0.3199  0.4403  0.0450
    1DOPE    HX   28   3.805   4.272  17.274  0.0663  0.7920 -1.1707
    1DOPE    HY   29   3.925   4.286  17.411  1.7911  1.4074 -0.4757
    1DOPE   O31   30   3.943   4.116  17.281  0.1136 -0.1989 -0.2080
    1DOPE   C31   31   4.057   4.073  17.342  0.2409 -0.0865  1.0182
    1DOPE   O32   32   4.119   4.140  17.419 -0.0711 -1.3201 -0.3335
    1DOPE   C32   33   4.090   3.932  17.309 -0.1087 -0.0001 -0.5650
    1DOPE   H2X   34   4.200   3.918  17.318  0.1266  1.3271 -1.2582
    1DOPE   H2Y   35   4.042   3.876  17.393 -0.6993  0.1882 -0.7706
    1DOPE   C23   36   4.071   4.208  16.783  0.0842  0.3785  0.2398
    1DOPE   H3R   37   3.987   4.150  16.825  0.2319  0.8600  1.2305
    1DOPE   H3S   38   4.167   4.158  16.809 -0.6535 -1.6444 -0.7437
    1DOPE   C24   39   4.039   4.210  16.634 -0.0483  0.1382 -0.0099
    1DOPE   H4R   40   4.132   4.190  16.576  0.4685 -1.9399  1.4254
    1DOPE   H4S   41   3.999   4.307  16.597 -4.1114 -1.5109 -0.4182
    1DOPE   C25   42   3.949   4.100  16.573 -0.3618  0.2155  0.2194
    1DOPE   H5R   43   3.843   4.119  16.599 -0.9104  1.6721 -2.6124
    1DOPE   H5S   44   3.975   3.996  16.601 -0.3310 -1.1601 -4.1031
    1DOPE   C26   45   3.944   4.097  16.423 -0.7440 -0.0754  0.4226
    1DOPE   H6R   46   4.045   4.086  16.379 -0.3251  1.4263  0.9295
    1DOPE   H6S   47   3.907   4.195  16.386  0.4427 -0.2589 -1.3486
    1DOPE   C27   48   3.874   3.986  16.348 -0.0606  0.4240  0.3766
    1DOPE   H7R   49   3.763   3.979  16.348 -0.0552  0.2652 -0.4159
    1DOPE   H7S   50   3.899   3.893  16.405  1.6312 -1.8342 -3.6467
    1DOPE   C28   51   3.935   3.959  16.209  0.0392  0.2534  1.0677
    1DOPE   H8R   52   3.883   3.867  16.177  1.2609  0.2527 -1.0291
    1DOPE   H8S   53   4.044   3.937  16.215  0.0634 -0.3388 -0.8485
    1DOPE   C29   54   3.906   4.071  16.112  0.7130  0.4333 -0.0754
    1DOPE   H9R   55   3.868   4.166  16.153  2.3519  0.1232  2.3490
    1DOPE  C210   56   3.906   4.045  15.979 -0.2953 -0.6810 -0.2026
    1DOPE  H10R   57   3.867   4.121  15.910  0.8531  0.6517  0.5717
    1DOPE  C211   58   3.955   3.919  15.915  0.1636 -0.0439 -0.3161
    1DOPE  H11R   59   3.909   3.824  15.950  0.3033  0.0615  0.1592
    1DOPE  H11S   60   4.063   3.916  15.943  0.5110  1.0710 -1.4586
    1DOPE  C212   61   3.968   3.929  15.764 -0.2444 -0.2266 -0.0078
    1DOPE  H12R   62   3.867   3.908  15.721 -0.3817 -0.1137  0.2599
    1DOPE  H12S   63   4.037   3.844  15.746  0.2864  0.7117 -2.8862
    1DOPE  C213   64   4.031   4.058  15.705 -0.6969 -0.6199 -0.0514
    1DOPE  H13R   65   4.133   4.083  15.743 -1.1795  2.9714 -0.7561
    1DOPE  H13S   66   3.963   4.142  15.728 -0.6961 -0.7018  0.2576
    1DOPE  C214   67   4.062   4.056  15.553 -0.0165  0.3345 -0.2004
    1DOPE  H14R   68   4.108   3.959  15.523 -0.0571 -0.1700  1.2876
    1DOPE  H14S   69   4.142   4.131  15.532 -0.3018  0.5154 -0.6550
    1DOPE  C215   70   3.932   4.077  15.471 -0.4579  0.6378 -0.0154
    1DOPE  H15R   71   3.891   4.178  15.494 -1.0997 -0.2358  3.1862
    1DOPE  H15S   72   3.857   4.007  15.514 -0.1787 -0.1207 -0.7307
    1DOPE  C216   73   3.940   4.051  15.317 -1.4128  0.2078  0.2035
    1DOPE  H16R   74   4.001   3.957  15.315  0.0211  1.1062  0.3883
    1DOPE  H16S   75   4.003   4.126  15.265  0.2653 -0.6155  0.9536
    1DOPE  C217   76   3.803   4.041  15.244 -0.1324 -0.0068  0.4067
    1DOPE  H17R   77   3.759   4.141  15.221 -1.7310 -0.9969 -0.9772
    1DOPE  H17S   78   3.730   3.992  15.311 -0.5484 -0.9394 -0.7095
    1DOPE  C218   79   3.824   3.976  15.114  0.4631  0.4195  0.2752
    1DOPE  H18R   80   3.872   4.043  15.039 -1.1548 -0.0461 -1.2308
    1DOPE  H18S   81   3.726   3.958  15.065  0.9618  1.2251 -1.0881
    1DOPE  H18T   82   3.892   3.891  15.137 -1.9508 -1.9923 -0.9593
    1DOPE   C33   83   4.040   3.868  17.176  0.4912 -0.4527 -0.0213
    1DOPE   H3X   84   3.943   3.895  17.130  0.9200 -1.4941 -1.5908
    1DOPE   H3Y   85   4.027   3.762  17.206  0.9201 -0.5128 -0.0399
    1DOPE   C34   86   4.140   3.882  17.059  0.4695 -0.6595  0.0356
    1DOPE   H4X   87   4.076   3.899  16.970 -1.0343  0.2491  1.2537
    1DOPE   H4Y   88   4.194   3.979  17.063 -0.5627  0.0314 -1.6287
    1DOPE   C35   89   4.247   3.764  17.029  0.1171 -0.2747 -0.4988
    1DOPE   H5X   90   4.179   3.676  17.025  0.3709 -0.4608 -0.7457
    1DOPE   H5Y   91   4.318   3.756  17.113 -2.6006  2.9045  2.3763
    1DOPE   C36   92   4.321   3.780  16.895  0.0079 -0.5438  0.4320
    1DOPE   H6X   93   4.374   3.878  16.893 -3.1485  1.4213  2.7592
    1DOPE   H6Y   94   4.240   3.790  16.819  0.2216 -0.1546  0.2489
    1DOPE   C37   95   4.406   3.657  16.868  0.2873 -0.0731  0.0401
    1DOPE   H7X   96   4.486   3.664  16.944  0.9315  1.1288 -0.7221
    1DOPE   H7Y   97   4.351   3.562  16.888  3.0089 -2.0921 -1.3718
    1DOPE   C38   98   4.454   3.658  16.724  0.2578  1.1220  1.1985
    1DOPE   H8X   99   4.538   3.587  16.707  1.6244  3.2577 -2.0299
    1DOPE   H8Y  100   4.508   3.750  16.693 -1.2137  1.5712 -0.1196
    1DOPE   C39  101   4.350   3.621  16.615 -0.3193 -0.3133 -0.6862
    1DOPE   H9X  102   4.270   3.694  16.595 -0.2331 -0.6278 -2.4034
    1DOPE  C310  103   4.341   3.507  16.545 -0.2931 -0.2699 -0.3519
    1DOPE  H10X  104   4.247   3.493  16.489 -0.7157 -0.6847  0.4488
    1DOPE  C311  105   4.419   3.385  16.531 -0.1350 -0.1463 -0.3820
    1DOPE  H11X  106   4.441   3.340  16.629 -3.2595 -3.5331 -1.0283
    1DOPE  H11Y  107   4.358   3.310  16.476  0.4570 -0.2141 -0.9563
    1DOPE  C312  108   4.531   3.395  16.427 -0.6798 -0.3153  0.2763
    1DOPE  H12X  109   4.586   3.299  16.422  0.2836  0.2169  0.3826
    1DOPE  H12Y  110   4.605   3.472  16.457 -0.1372 -1.5070  2.1738
    1DOPE  C313  111   4.488   3.443  16.283 -0.6499  0.1198 -0.1690
    1DOPE  H13X  112   4.565   3.412  16.209 -1.5803  1.5188 -1.7789
    1DOPE  H13Y  113   4.392   3.396  16.254 -0.8263  0.7446 -0.6154
    1DOPE  C314  114   4.450   3.590  16.255 -0.9591  0.6011 -0.6263
    1DOPE  H14X  115   4.531   3.650  16.302 -1.8738  1.7400 -0.4782
    1DOPE  H14Y  116   4.352   3.615  16.302 -0.8840 -0.4761  0.1471
    1DOPE  C315  117   4.452   3.612  16.102 -0.2916 -0.4748 -0.6984
    1DOPE  H15X  118   4.365   3.558  16.058 -1.0750 -0.9609  1.3400
    1DOPE  H15Y  119   4.542   3.556  16.067  0.3435  1.2004 -1.8397
    1DOPE  C316  120   4.472   3.755  16.044 -0.0960  0.1189  0.1234
    1DOPE  H16X  121   4.575   3.792  16.057 -0.9043  1.9140  1.9620
    1DOPE  H16Y  122   4.405   3.819  16.105  0.4522  1.1135 -0.3149
    1DOPE  C317  123   4.426   3.763  15.899 -0.1535  0.3427  0.1320
    1DOPE  H17X  124   4.452   3.669  15.846  0.6508  0.2104  0.7591
    1DOPE  H17Y  125   4.318   3.791  15.894  0.5550  3.1887 -2.1027
    1DOPE  C318  126   4.475   3.883  15.811 -0.6830  0.6251  0.3847
    1DOPE  H18X  127   4.445   3.982  15.851  0.2889 -0.6926  4.9784
    1DOPE  H18Y  128   4.586   3.890  15.804 -0.5258 -0.3866  1.5840
    1DOPE  H18Z  129   4.442   3.873  15.705  1.6399 -0.3974 -0.2932
    2DOPE     N  130   4.357   4.508  17.249  0.1287  0.0617  0.2410
    2DOPE   HN1  131   4.405   4.467  17.166  0.4144 -1.1565  0.9813
    2DOPE   HN2  132   4.377   4.435  17.320 -1.4359  0.4859  1.1669
    2DOPE   HN3  133   4.260   4.509  17.210  0.7666 -3.0343 -1.8713
    2DOPE   C12  134   4.419   4.640  17.292 -0.2876 -0.2596  0.2755
    2DOPE  H12A  135   4.387   4.652  17.398 -2.5414  0.6932 -0.4362
    2DOPE  H12B  136   4.388   4.727  17.230 -2.4303 -2.3382 -1.7660
    2DOPE   C11  137   4.574   4.640  17.301  0.2052 -0.5873 -0.0851
    2DOPE  H11A  138   4.593   4.736  17.354 -0.5762  1.1232 -2.7061
    2DOPE  H11B  139   4.628   4.651  17.205  0.7827  1.9175  0.4322
    2DOPE     P  140   4.762   4.487  17.416 -0.1341 -0.0456  0.1738
    2DOPE   O13  141   4.758   4.468  17.564  0.3960  0.1866 -0.6412
    2DOPE   O14  142   4.866   4.587  17.374  0.6458  0.2701 -0.1489
    2DOPE   O11  143   4.790   4.352  17.347  0.1063  0.4552  0.2966
    2DOPE   O12  144   4.614   4.529  17.370 -0.2052  0.5283  0.6434
    2DOPE    C1  145   4.708   4.297  17.242  0.0537 -0.7479  0.0991
    2DOPE    HA  146   4.600   4.295  17.265  0.1990 -1.1244  0.7516
    2DOPE    HB  147   4.734   4.191  17.222  0.1507 -0.8388  0.7069
    2DOPE    C2  148   4.747   4.354  17.103 -0.3777 -0.1417  0.1783
    2DOPE    HS  149   4.707   4.458  17.104 -0.2149 -0.0724  1.5878
    2DOPE   O21  150   4.679   4.277  16.996  0.3534  0.7198  0.0750
    2DOPE   C21  151   4.547   4.296  16.985 -0.1342 -0.3757  0.6713
    2DOPE   O22  152   4.489   4.384  17.047 -0.1515  0.6460  0.4217
    2DOPE   C22  153   4.482   4.206  16.869 -0.3633  0.5707  0.4822
    2DOPE   H2R  154   4.410   4.134  16.913  1.2949 -0.1100  2.2904
    2DOPE   H2S  155   4.567   4.150  16.825 -0.5908  0.5147  0.1139
    2DOPE    C3  156   4.896   4.355  17.072  0.1684  0.3106  0.0535
    2DOPE    HX  157   4.934   4.256  17.106 -1.4582  0.5844  2.9355
    2DOPE    HY  158   4.943   4.418  17.151  1.1421 -0.5898  0.2243
    2DOPE   O31  159   4.938   4.384  16.939 -0.0833  0.9729  0.2758
    2DOPE   C31  160   5.069   4.411  16.926  0.2625  0.7234 -0.0035
    2DOPE   O32  161   5.149   4.416  17.020 -0.2644  0.0459  0.1536
    2DOPE   C32  162   5.103   4.444  16.780 -0.7660 -0.7755  0.8198
    2DOPE   H2X  163   5.033   4.385  16.717 -1.4774  0.1246  0.7403
    2DOPE   H2Y  164   5.070   4.549  16.766 -1.3999 -1.0336  0.3480
    2DOPE   C23  165   4.414   4.278  16.761  0.4600  0.0688  0.2682
    2DOPE   H3R  166   4.343   4.359  16.791  1.5175  1.4361 -0.7858
    2DOPE   H3S  167   4.365   4.209  16.689 -0.5423  0.7028  0.3210
    2DOPE   C24  168   4.507   4.356  16.663  0.2747 -0.5438 -0.0063
    2DOPE   H4R  169   4.576   4.281  16.618 -0.6109 -0.6908 -1.1654
    2DOPE   H4S  170   4.569   4.436  16.710  2.3896 -1.3099 -1.3104
    2DOPE   C25  171   4.416   4.423  16.549 -0.4200 -0.2987 -0.6153
    2DOPE   H5R  172   4.337   4.493  16.585 -0.7425 -1.4105  0.9848
    2DOPE   H5S  173   4.353   4.342  16.507 -2.2002  0.3851  0.6207
    2DOPE   C26  174   4.499   4.494  16.439 -0.2674  0.2277 -0.4476
    2DOPE   H6R  175   4.563   4.415  16.396 -2.0390 -0.1110 -2.6582
    2DOPE   H6S  176   4.552   4.574  16.496 -0.6684  1.3140 -1.5411
    2DOPE   C27  177   4.416   4.563  16.332  0.2584  0.0259 -0.0084
    2DOPE   H7R  178   4.336   4.627  16.374  0.4001  0.2789 -0.1222
    2DOPE   H7S  179   4.361   4.485  16.275  2.6676 -1.4258 -0.4962
    2DOPE   C28  180   4.502   4.639  16.230  0.7383  0.3729 -0.3819
    2DOPE   H8R  181   4.591   4.575  16.214  0.2787 -0.6501  0.9459
    2DOPE   H8S  182   4.545   4.726  16.284  0.2540 -0.6038  1.6618
    2DOPE   C29  183   4.431   4.684  16.100  0.2670  0.6195 -0.5012
    2DOPE   H9R  184   4.366   4.770  16.123  1.4630  1.6883 -0.9622
    2DOPE  C210  185   4.421   4.614  15.982  0.4832 -0.0358 -0.2508
    2DOPE  H10R  186   4.360   4.663  15.906  0.6492 -0.2809 -0.5451
    2DOPE  C211  187   4.493   4.489  15.942 -1.0767 -0.8518 -0.3887
    2DOPE  H11R  188   4.563   4.441  16.014  0.3907  1.0542 -0.4813
    2DOPE  H11S  189   4.563   4.532  15.868  0.1915  2.5926  2.5054
    2DOPE  C212  190   4.409   4.379  15.877 -0.3742 -0.7639  0.1148
    2DOPE  H12R  191   4.489   4.316  15.832  0.0575 -0.0026 -0.2183
    2DOPE  H12S  192   4.350   4.436  15.801  2.1167  1.6667 -0.1686
    2DOPE  C213  193   4.322   4.297  15.967  0.5811  0.0523  0.3462
    2DOPE  H13R  194   4.255   4.239  15.901  0.0495  0.8523  0.1598
    2DOPE  H13S  195   4.260   4.372  16.021  1.1746  0.5031  0.4221
    2DOPE  C214  196   4.396   4.223  16.081  0.5614 -0.0665  0.0867
    2DOPE  H14R  197   4.457   4.289  16.147  0.8065 -2.6365  2.6264
    2DOPE  H14S  198   4.449   4.136  16.037 -1.4467 -0.8296 -0.9151
    2DOPE  C215  199   4.294   4.167  16.176  0.4682  0.1656 -0.2280
    2DOPE  H15R  200   4.247   4.076  16.134 -0.0583 -0.1858  1.0481
    2DOPE  H15S  201   4.215   4.243  16.197  0.2898 -0.4035  1.3053
    2DOPE  C216  202   4.332   4.141  16.325 -0.0306  0.1712 -0.3288
    2DOPE  H16R  203   4.248   4.152  16.396 -0.5356  2.5440 -1.1923
    2DOPE  H16S  204   4.403   4.222  16.353 -0.6602  1.3049 -1.8311
    2DOPE  C217  205   4.382   3.998  16.354 -0.6627 -0.0176 -0.9418
    2DOPE  H17R  206   4.461   3.977  16.279 -1.3913 -0.6093 -1.5606
    2DOPE  H17S  207   4.296   3.931  16.333 -0.7311  0.3267 -1.8126
    2DOPE  C218  208   4.452   3.982  16.492  0.7030  0.7004 -0.3909
    2DOPE  H18R  209   4.381   3.958  16.574  0.9487 -0.7392 -0.5834
    2DOPE  H18S  210   4.509   4.071  16.525  2.3630 -0.5404  0.2157
    2DOPE  H18T  211   4.530   3.904  16.490  0.3629  0.2711  1.4032
    2DOPE   C33  212   5.249   4.417  16.741 -0.2921 -0.0498 -0.1264
    2DOPE   H3X  213   5.264   4.307  16.748  1.1495  0.1434  0.1296
    2DOPE   H3Y  214   5.321   4.473  16.805 -2.2971 -2.2781  4.5432
    2DOPE   C34  215   5.275   4.448  16.592 -0.6161 -0.4395 -0.7701
    2DOPE   H4X  216   5.336   4.360  16.562 -0.5078 -0.7691  0.3409
    2DOPE   H4Y  217   5.179   4.431  16.538 -1.1028  0.2856 -0.1537
    2DOPE   C35  218   5.336   4.587  16.569 -0.3714  0.4331 -0.0928
    2DOPE   H5X  219   5.417   4.603  16.643 -1.0363 -0.3119  0.8259
    2DOPE   H5Y  220   5.259   4.665  16.591 -1.2380 -0.0763 -1.1810
    2DOPE   C36  221   5.387   4.628  16.426  0.3278  0.5106 -0.1815
    2DOPE   H6X  222   5.469   4.557  16.402 -0.6439 -0.3291 -1.1544
    2DOPE   H6Y  223   5.421   4.733  16.431 -1.3611  1.2119 -2.0215
    2DOPE   C37  224   5.276   4.621  16.325  0.3338 -0.1335 -0.0129
    2DOPE   H7X  225   5.212   4.533  16.347  0.0056  0.2651  0.6451
    2DOPE   H7Y  226   5.216   4.713  16.337 -2.4969 -1.7043 -1.2010
    2DOPE   C38  227   5.328   4.606  16.178 -0.0746  0.1014 -0.0489
    2DOPE   H8X  228   5.364   4.503  16.160 -2.3517 -1.1646  1.9927
    2DOPE   H8Y  229   5.407   4.685  16.177 -0.4458  0.5019  1.0161
    2DOPE   C39  230   5.235   4.649  16.067  0.2930 -0.2129 -0.2503
    2DOPE   H9X  231   5.163   4.732  16.073  1.5038  0.8730 -0.3508
    2DOPE  C310  232   5.244   4.595  15.943 -0.2094  0.2370  0.0413
    2DOPE  H10X  233   5.170   4.620  15.865 -0.5467 -0.6603  0.0588
    2DOPE  C311  234   5.326   4.476  15.891 -0.2138 -0.3986  0.3592
    2DOPE  H11X  235   5.404   4.435  15.960  0.6328  1.4148  0.5385
    2DOPE  H11Y  236   5.252   4.396  15.870 -1.9876  1.0772  0.7381
    2DOPE  C312  237   5.392   4.517  15.758 -0.4750  0.2537  0.3985
    2DOPE  H12X  238   5.449   4.433  15.713 -1.5532  0.3440 -1.2253
    2DOPE  H12Y  239   5.467   4.595  15.781  3.4242 -3.2294  0.8414
    2DOPE  C313  240   5.287   4.555  15.648 -0.0984 -0.2346  0.2114
    2DOPE  H13X  241   5.211   4.475  15.639 -0.7353  0.4744 -1.1533
    2DOPE  H13Y  242   5.229   4.649  15.665 -0.3347  0.0096 -1.6772
    2DOPE  C314  243   5.360   4.569  15.512  0.6777  0.6334  0.9268
    2DOPE  H14X  244   5.409   4.471  15.496  2.4858  1.8877 -1.9309
    2DOPE  H14Y  245   5.441   4.643  15.526  0.8405  0.4254  1.0851
    2DOPE  C315  246   5.261   4.602  15.392 -0.1277  0.4253  0.6593
    2DOPE  H15X  247   5.217   4.704  15.393  2.5804  1.7079  0.2485
    2DOPE  H15Y  248   5.178   4.529  15.384  0.1724 -0.0765  1.8793
    2DOPE  C316  249   5.336   4.604  15.258 -0.3811 -0.4721 -0.0558
    2DOPE  H16X  250   5.364   4.498  15.240  0.7990 -0.2727  0.5322
    2DOPE  H16Y  251   5.418   4.679  15.255 -1.8951  1.2562 -2.9836
    2DOPE  C317  252   5.238   4.637  15.146 -0.0800  0.0643  0.1859
    2DOPE  H17X  253   5.146   4.578  15.164 -0.8733  0.6893 -1.5649
    2DOPE  H17Y  254   5.213   4.745  15.146  1.8442  0.5711 -1.2485
    2DOPE  C318  255   5.291   4.622  15.002  0.1623 -0.4392 -0.3212
    2DOPE  H18X  256   5.377   4.692  14.995 -1.4445  1.6491 -0.0247
    2DOPE  H18Y  257   5.316   4.516  14.982  1.1266 -0.4652  0.8706
    2DOPE  H18Z  258   5.222   4.649  14.920  0.8088 -1.1270 -1.1044
    3DOPE     N  259   3.523   5.141  17.369 -0.1222 -0.2106 -0.1122
    3DOPE   HN1  260   3.449   5.193  17.421 -1.1303  0.0262 -1.7137
    3DOPE   HN2  261   3.490   5.042  17.373 -1.0069  0.1116  0.7628
    3DOPE   HN3  262   3.607   5.134  17.430 -1.2024  0.5846  1.5158
    3DOPE   C12  263   3.552   5.190  17.224 -0.0796  0.6050  0.0483
    3DOPE  H12A  264   3.611   5.111  17.173  0.0979 -0.6803  2.1331
    3DOPE  H12B  265   3.608   5.285  17.229 -0.3265  0.9552 -2.6559
    3DOPE   C11  266   3.415   5.188  17.164  0.5704 -0.1489  0.4972
    3DOPE  H11A  267   3.376   5.085  17.150 -0.3038  0.3129 -0.6946
    3DOPE  H11B  268   3.420   5.215  17.056  0.4087  0.1095  0.5533
    3DOPE     P  269   3.180   5.288  17.172  0.2216  0.7905 -0.2620
    3DOPE   O13  270   3.124   5.420  17.190  0.3182 -1.0938 -0.2931
    3DOPE   O14  271   3.119   5.169  17.229  0.0779 -0.1608 -0.2051
    3DOPE   O11  272   3.207   5.268  17.014 -0.1909 -0.8674 -0.5585
    3DOPE   O12  273   3.329   5.277  17.230 -0.3464  0.3714 -0.6258
    3DOPE    C1  274   3.264   5.371  16.929 -0.5325 -0.7388  1.2717
    3DOPE    HA  275   3.373   5.355  16.913 -0.2485  1.9558 -0.1284
    3DOPE    HB  276   3.248   5.475  16.965 -3.5417 -0.1671 -1.2848
    3DOPE    C2  277   3.201   5.389  16.788  0.1810 -0.0831  0.3886
    3DOPE    HS  278   3.266   5.459  16.731 -1.3411  1.8712  0.9602
    3DOPE   O21  279   3.064   5.437  16.793  0.2199  0.9516  0.1269
    3DOPE   C21  280   3.042   5.569  16.823 -0.0196  0.6051  0.0488
    3DOPE   O22  281   3.126   5.657  16.818  0.1823 -0.0455  0.2394
    3DOPE   C22  282   2.900   5.580  16.873  0.3050 -0.4697  0.0361
    3DOPE   H2R  283   2.899   5.617  16.978  2.7534  0.9299 -0.3724
    3DOPE   H2S  284   2.854   5.479  16.864 -1.5296  0.4009 -1.2090
    3DOPE    C3  285   3.218   5.251  16.718  0.2234 -0.2365  1.2625
    3DOPE    HX  286   3.180   5.170  16.784  0.5159 -1.4799 -0.0439
    3DOPE    HY  287   3.326   5.227  16.708  0.1400  0.1563 -1.1699
    3DOPE   O31  288   3.146   5.252  16.586 -0.1935 -0.3120  0.4078
    3DOPE   C31  289   3.224   5.282  16.488  0.6374  0.1820  0.5377
    3DOPE   O32  290   3.342   5.307  16.490 -0.0114 -0.1505 -0.4728
    3DOPE   C32  291   3.143   5.277  16.361 -0.0922 -0.0502  0.3761
    3DOPE   H2X  292   3.123   5.172  16.330 -3.7167  0.5104  0.3726
    3DOPE   H2Y  293   3.044   5.327  16.371  0.2582  0.6433  0.3805
    3DOPE   C23  294   2.831   5.683  16.789  0.6176  0.7920 -0.1438
    3DOPE   H3R  295   2.866   5.786  16.809  1.3251  0.6603 -0.6573
    3DOPE   H3S  296   2.723   5.685  16.812  0.4794 -0.7644 -0.4904
    3DOPE   C24  297   2.848   5.654  16.639  0.0000 -0.5956  0.0684
    3DOPE   H4R  298   2.861   5.546  16.618  2.2588 -0.7613  2.0053
    3DOPE   H4S  299   2.941   5.709  16.614 -0.0268 -0.7034 -0.2820
    3DOPE   C25  300   2.728   5.705  16.550 -0.8596  0.5508 -0.1070
    3DOPE   H5R  301   2.716   5.810  16.582  3.2628  1.3430 -0.6108
    3DOPE   H5S  302   2.637   5.653  16.585  0.6351 -1.8231  0.4973
    3DOPE   C26  303   2.728   5.684  16.399  0.4999 -0.1758 -0.5855
    3DOPE   H6R  304   2.632   5.637  16.369 -0.6653  1.2517  0.7832
    3DOPE   H6S  305   2.821   5.633  16.366  0.6897 -0.2186  0.0027
    3DOPE   C27  306   2.722   5.813  16.322  0.2155  0.6617  1.0342
    3DOPE   H7R  307   2.809   5.872  16.357  3.1433 -2.6992  0.0819
    3DOPE   H7S  308   2.627   5.870  16.331  0.5101  1.1325  1.2068
    3DOPE   C28  309   2.724   5.779  16.171 -0.5553  0.5785  0.0201
    3DOPE   H8R  310   2.634   5.717  16.155 -0.7831  1.5775 -3.1898
    3DOPE   H8S  311   2.812   5.716  16.143 -1.1825 -0.2138 -0.2123
    3DOPE   C29  312   2.716   5.906  16.095 -0.3134 -0.1978  0.1380
    3DOPE   H9R  313   2.796   5.980  16.112  0.2952 -1.1319  1.5165
    3DOPE  C210  314   2.621   5.939  16.009 -0.0528 -0.0715 -0.3189
    3DOPE  H10R  315   2.614   6.041  15.967 -1.3258  0.5573  1.3013
    3DOPE  C211  316   2.501   5.859  15.963  0.0017 -0.4482  0.5207
    3DOPE  H11R  317   2.408   5.917  15.981 -2.1359 -3.7976  1.2382
    3DOPE  H11S  318   2.488   5.768  16.026 -0.1525 -0.6769  0.1545
    3DOPE  C212  319   2.516   5.831  15.811  0.0375 -0.2999  0.1060
    3DOPE  H12R  320   2.600   5.759  15.801 -1.1397 -2.1290  2.5403
    3DOPE  H12S  321   2.533   5.930  15.763 -2.0008 -0.6700 -1.5210
    3DOPE  C213  322   2.381   5.768  15.758 -0.7899 -0.1155 -0.6290
    3DOPE  H13R  323   2.308   5.848  15.785 -1.0506  0.4167 -2.7373
    3DOPE  H13S  324   2.356   5.680  15.821  0.0154 -0.5624 -0.9167
    3DOPE  C214  325   2.391   5.730  15.619  0.1183 -0.0826  0.2675
    3DOPE  H14R  326   2.297   5.673  15.602 -0.3890 -0.0165  2.5188
    3DOPE  H14S  327   2.482   5.674  15.590  0.0202  0.3329 -0.9241
    3DOPE  C215  328   2.389   5.849  15.522 -0.1723 -0.2052  0.4655
    3DOPE  H15R  329   2.468   5.921  15.551 -0.3309 -0.9058  2.8650
    3DOPE  H15S  330   2.290   5.899  15.532  0.4531  1.2272 -0.1292
    3DOPE  C216  331   2.414   5.818  15.371  0.0990  0.4964 -0.0628
    3DOPE  H16R  332   2.358   5.728  15.339 -1.2755  0.3880  2.4382
    3DOPE  H16S  333   2.522   5.798  15.351 -0.6075 -2.5435 -1.3710
    3DOPE  C217  334   2.368   5.921  15.275  0.0001  0.2631  0.7658
    3DOPE  H17R  335   2.436   6.005  15.301 -0.3229  0.6011  0.5288
    3DOPE  H17S  336   2.262   5.933  15.304 -0.8468 -0.7462 -1.6299
    3DOPE  C218  337   2.386   5.879  15.126  0.3922 -0.4759 -0.2337
    3DOPE  H18R  338   2.359   5.960  15.055  0.5668 -0.6656 -0.5223
    3DOPE  H18S  339   2.325   5.792  15.095 -1.4620  1.3159 -1.9034
    3DOPE  H18T  340   2.495   5.854  15.123  0.1500 -1.4571 -1.7982
    3DOPE   C33  341   3.225   5.352  16.249  0.8626 -0.3067  0.0070
    3DOPE   H3X  342   3.284   5.265  16.210 -0.9199 -0.5224 -2.4954
    3DOPE   H3Y  343   3.290   5.427  16.298 -1.4314 -0.6581  4.0367
    3DOPE   C34  344   3.146   5.395  16.124 -0.3449 -0.2676  0.1077
    3DOPE   H4X  345   3.080   5.311  16.095 -1.7054  0.8613 -0.2213
    3DOPE   H4Y  346   3.084   5.484  16.149  0.3918 -0.3149  2.3056
    3DOPE   C35  347   3.232   5.435  15.998  0.4549  0.1992 -0.1606
    3DOPE   H5X  348   3.330   5.389  16.021 -0.1946 -0.5109  1.3215
    3DOPE   H5Y  349   3.252   5.544  15.988 -1.0948  0.4285 -1.2784
    3DOPE   C36  350   3.175   5.383  15.864 -0.4811  0.0650  0.1450
    3DOPE   H6X  351   3.071   5.423  15.862 -0.6240 -0.3099 -1.1081
    3DOPE   H6Y  352   3.169   5.273  15.880  0.2701 -0.2259 -1.3955
    3DOPE   C37  353   3.244   5.425  15.731  0.3708  0.8176  0.5253
    3DOPE   H7X  354   3.229   5.535  15.730 -1.8966  0.5582  1.0336
    3DOPE   H7Y  355   3.352   5.401  15.747 -0.0849  1.1783  5.7990
    3DOPE   C38  356   3.172   5.360  15.614 -0.3675  0.1660  0.2068
    3DOPE   H8X  357   3.073   5.406  15.596 -0.5382 -0.1643  0.2969
    3DOPE   H8Y  358   3.144   5.255  15.638  0.7658  0.0527  1.1480
    3DOPE   C39  359   3.252   5.373  15.492  0.1673 -0.6019  0.0943
    3DOPE   H9X  360   3.345   5.431  15.506  1.5474 -2.8618  0.8521
    3DOPE  C310  361   3.248   5.294  15.379  0.4540  0.0327 -0.6494
    3DOPE  H10X  362   3.314   5.329  15.299  0.3649 -0.4034 -0.9115
    3DOPE  C311  363   3.137   5.195  15.341 -0.1129  0.5478 -0.5343
    3DOPE  H11X  364   3.132   5.109  15.412 -1.2190  1.2704  0.3055
    3DOPE  H11Y  365   3.038   5.244  15.347 -0.5090  0.0639 -2.5393
    3DOPE  C312  366   3.140   5.131  15.201  0.5029  0.6189 -0.9266
    3DOPE  H12X  367   3.227   5.062  15.193  1.2567  1.2084  1.4196
    3DOPE  H12Y  368   3.164   5.205  15.122  0.4128 -0.4340 -1.9720
    3DOPE  C313  369   3.015   5.050  15.169  0.6209  0.2612  0.1138
    3DOPE  H13X  370   2.992   4.964  15.236  1.0878 -0.2425 -0.3706
    3DOPE  H13Y  371   2.930   5.118  15.189  0.2580  0.2099 -1.1689
    3DOPE  C314  372   3.005   5.001  15.027  0.4800 -0.5834 -0.3283
    3DOPE  H14X  373   3.021   5.094  14.968 -0.0147 -0.1893  0.1579
    3DOPE  H14Y  374   2.906   4.954  15.005 -0.1992 -0.0633  1.4892
    3DOPE  C315  375   3.116   4.898  14.990 -0.9317 -0.2697  0.8377
    3DOPE  H15X  376   3.108   4.799  15.040 -0.2962 -0.4723  0.5563
    3DOPE  H15Y  377   3.218   4.938  15.010 -1.1576  0.1390  1.1797
    3DOPE  C316  378   3.094   4.864  14.842  0.3751  0.2468 -0.0110
    3DOPE  H16X  379   3.116   4.953  14.778 -0.3644  0.0961 -0.4934
    3DOPE  H16Y  380   2.984   4.845  14.842 -0.0338  2.3013  1.1821
    3DOPE  C317  381   3.171   4.734  14.806 -0.2038 -0.0308 -0.1686
    3DOPE  H17X  382   3.178   4.658  14.887  1.2397 -2.0961 -2.1255
    3DOPE  H17Y  383   3.111   4.677  14.733  1.2385 -0.5363 -0.9866
    3DOPE  C318  384   3.307   4.767  14.747  0.2554  0.0617  0.3188
    3DOPE  H18X  385   3.375   4.824  14.814 -0.2267 -2.3906  3.1050
    3DOPE  H18Y  386   3.369   4.678  14.727 -0.3874 -0.6020  1.1749
    3DOPE  H18Z  387   3.296   4.819  14.650  0.2516  1.3962  1.0005
    4DOPE     N  388   4.584   4.336  17.715  0.1598  0.1170 -0.2658
    4DOPE   HN1  389   4.644   4.337  17.630 -0.5977 -3.5080 -1.0367
    4DOPE   HN2  390   4.484   4.341  17.686 -0.6819 -0.5054  2.3183
    4DOPE   HN3  391   4.616   4.420  17.767  0.8900 -0.2627 -0.0895
    4DOPE   C12  392   4.615   4.219  17.799 -0.3462  0.9993 -0.5902
    4DOPE  H12A  393   4.550   4.210  17.889 -0.3076  1.8395 -0.4712
    4DOPE  H12B  394   4.721   4.226  17.832 -0.2051 -1.8426 -0.1597
    4DOPE   C11  395   4.601   4.086  17.717  0.3593  0.1443  0.0887
    4DOPE  H11A  396   4.492   4.078  17.698  0.4122  1.0229 -0.6744
    4DOPE  H11B  397   4.641   3.999  17.774  0.4739  0.1534  0.0238
    4DOPE     P  398   4.637   4.007  17.462  0.2840 -0.1557  0.2314
    4DOPE   O13  399   4.551   4.081  17.370  0.1184 -0.0311  0.5053
    4DOPE   O14  400   4.585   3.883  17.522  0.3990 -0.1874  0.2618
    4DOPE   O11  401   4.761   3.976  17.371 -0.1695 -0.5410 -0.0231
    4DOPE   O12  402   4.669   4.100  17.584 -0.7417 -0.5114 -0.4678
    4DOPE    C1  403   4.820   3.841  17.372 -0.2417  0.3649 -0.8239
    4DOPE    HA  404   4.813   3.789  17.470  0.1681  1.2050 -0.3333
    4DOPE    HB  405   4.928   3.866  17.369 -0.1830  0.3683  0.5161
    4DOPE    C2  406   4.774   3.745  17.254  0.3191 -0.1620  1.0322
    4DOPE    HS  407   4.856   3.674  17.231  0.2668 -0.2863  1.2288
    4DOPE   O21  408   4.739   3.827  17.144  0.2131  0.0085  0.3731
    4DOPE   C21  409   4.845   3.865  17.070  0.2439 -0.2527 -0.1139
    4DOPE   O22  410   4.959   3.831  17.095  0.0188  0.1634 -0.4306
    4DOPE   C22  411   4.795   3.958  16.957 -0.4680  0.3008  0.3026
    4DOPE   H2R  412   4.738   4.041  17.005  2.1682  0.6312  3.2377
    4DOPE   H2S  413   4.734   3.891  16.893  1.7782 -2.1105  0.4979
    4DOPE    C3  414   4.651   3.658  17.294 -0.3867  0.5460  0.2553
    4DOPE    HX  415   4.569   3.730  17.318 -1.0365  0.1632 -0.7521
    4DOPE    HY  416   4.688   3.608  17.386 -0.4328 -1.3091 -0.6986
    4DOPE   O31  417   4.614   3.551  17.208  0.0106 -0.3549 -0.5562
    4DOPE   C31  418   4.486   3.516  17.219 -0.1893 -0.0498 -0.5644
    4DOPE   O32  419   4.403   3.559  17.296  0.2848 -0.3967 -0.1503
    4DOPE   C32  420   4.462   3.391  17.129  0.6442  0.5255 -0.6515
    4DOPE   H2X  421   4.455   3.304  17.198 -2.2456  0.4230 -0.9266
    4DOPE   H2Y  422   4.361   3.411  17.088  0.4546 -0.1928 -0.5407
    4DOPE   C23  423   4.914   3.998  16.864  0.1233  0.3994  0.4777
    4DOPE   H3R  424   4.966   3.909  16.823  0.1434  1.3173 -1.5982
    4DOPE   H3S  425   4.989   4.057  16.920  1.1273  0.1631 -0.5751
    4DOPE   C24  426   4.859   4.084  16.752 -1.0788 -0.3453  0.2160
    4DOPE   H4R  427   4.806   4.178  16.776 -0.2493  0.0260  0.6167
    4DOPE   H4S  428   4.786   4.021  16.696 -2.5222 -0.4507  2.1358
    4DOPE   C25  429   4.957   4.121  16.642 -0.0611 -0.7155 -0.2997
    4DOPE   H5R  430   4.998   4.027  16.598  0.1869  0.0500 -1.7418
    4DOPE   H5S  431   5.041   4.175  16.691 -0.1016 -0.7402 -0.2038
    4DOPE   C26  432   4.897   4.214  16.529  0.3160  0.2810  0.1281
    4DOPE   H6R  433   4.881   4.313  16.576  0.8258 -1.3005  4.1215
    4DOPE   H6S  434   4.793   4.182  16.506  0.0486  0.9611  0.3645
    4DOPE   C27  435   4.986   4.216  16.401 -0.6901  0.1735  0.0660
    4DOPE   H7R  436   4.981   4.117  16.352  0.5878  1.1334 -2.1546
    4DOPE   H7S  437   5.087   4.232  16.445  0.2654 -2.0907 -1.1359
    4DOPE   C28  438   4.955   4.329  16.293  0.3362 -0.7714  0.5817
    4DOPE   H8R  439   5.045   4.329  16.228  0.7424 -0.7081  1.1414
    4DOPE   H8S  440   4.931   4.424  16.345 -1.5789 -1.0260  0.2382
    4DOPE   C29  441   4.822   4.295  16.222  0.1579 -0.4606  0.0531
    4DOPE   H9R  442   4.725   4.297  16.274 -0.5389  0.6572 -1.2181
    4DOPE  C210  443   4.825   4.292  16.088 -0.4752 -0.1161  0.9094
    4DOPE  H10R  444   4.740   4.269  16.024  0.2479  3.1164 -1.4962
    4DOPE  C211  445   4.948   4.304  15.995 -0.2422 -0.1742 -0.9663
    4DOPE  H11R  446   5.024   4.225  16.012 -1.4557 -1.9285 -3.1379
    4DOPE  H11S  447   4.999   4.399  16.022 -0.1240 -0.6921  0.7662
    4DOPE  C212  448   4.907   4.284  15.849 -0.6545 -0.6235 -0.7976
    4DOPE  H12R  449   4.993   4.300  15.780 -0.7480 -1.4739 -1.1131
    4DOPE  H12S  450   4.837   4.363  15.815 -1.2204  0.4106  2.3685
    4DOPE  C213  451   4.873   4.133  15.826 -0.2917  0.1687 -0.4925
    4DOPE  H13R  452   4.787   4.101  15.888 -0.3878 -0.0657 -0.7458
    4DOPE  H13S  453   4.963   4.082  15.868 -0.2563  1.6361  1.3665
    4DOPE  C214  454   4.846   4.090  15.681 -0.6397  0.3381 -0.4327
    4DOPE  H14R  455   4.840   3.979  15.678  1.2067  0.2261 -1.3351
    4DOPE  H14S  456   4.940   4.110  15.624 -0.5403 -1.0025 -0.7710
    4DOPE  C215  457   4.723   4.159  15.615  0.0490 -0.1096 -0.2949
    4DOPE  H15R  458   4.728   4.269  15.630 -2.3935  0.1545 -1.0115
    4DOPE  H15S  459   4.633   4.117  15.664  1.1878 -2.5744 -0.1763
    4DOPE  C216  460   4.718   4.137  15.467  0.1054  0.3323 -0.1771
    4DOPE  H16R  461   4.632   4.202  15.439 -0.0064  0.0760 -0.4352
    4DOPE  H16S  462   4.687   4.039  15.425  0.7281  0.9393 -2.2028
    4DOPE  C217  463   4.834   4.190  15.391 -0.6235 -0.4863 -0.8689
    4DOPE  H17R  464   4.921   4.121  15.393  1.2912  1.7971 -0.5991
    4DOPE  H17S  465   4.871   4.281  15.444  2.3696 -1.5987 -0.8417
    4DOPE  C218  466   4.802   4.218  15.247 -0.6024  0.0888  0.8214
    4DOPE  H18R  467   4.727   4.297  15.231  1.0651  1.4186 -1.0006
    4DOPE  H18S  468   4.756   4.137  15.187 -0.6067  0.2851  0.5598
    4DOPE  H18T  469   4.892   4.256  15.194 -0.1573 -2.6699 -0.6069
    4DOPE   C33  470   4.572   3.377  17.022  0.1372  0.3179 -0.2607
    4DOPE   H3X  471   4.680   3.376  17.050  0.4434  2.6082 -1.1381
    4DOPE   H3Y  472   4.546   3.459  16.951 -1.7891  0.6281  0.7322
    4DOPE   C34  473   4.550   3.246  16.946 -0.2190 -0.0705  0.1172
    4DOPE   H4X  474   4.559   3.170  17.027 -0.2152 -1.5069 -1.1975
    4DOPE   H4Y  475   4.447   3.234  16.906  0.6394 -4.3361 -1.4234
    4DOPE   C35  476   4.662   3.224  16.850  0.1315 -0.4873  0.2253
    4DOPE   H5X  477   4.768   3.232  16.883  1.8368  0.5237 -4.7149
    4DOPE   H5Y  478   4.659   3.294  16.764  3.8613 -0.1176  0.2129
    4DOPE   C36  479   4.658   3.074  16.797  0.1351 -0.1787  0.4229
    4DOPE   H6X  480   4.561   3.024  16.814  0.0680  0.0233  0.6430
    4DOPE   H6Y  481   4.731   3.015  16.856  1.4174  1.1304  0.2134
    4DOPE   C37  482   4.675   3.055  16.650 -0.2108  0.3568  0.4280
    4DOPE   H7X  483   4.601   3.114  16.592  0.2648 -0.3809 -0.9599
    4DOPE   H7Y  484   4.771   3.083  16.603 -0.5868 -2.1286 -2.0533
    4DOPE   C38  485   4.647   2.913  16.601 -0.0864  0.3528 -0.0782
    4DOPE   H8X  486   4.647   2.923  16.491 -1.0103  1.0693 -0.0187
    4DOPE   H8Y  487   4.541   2.889  16.622  0.0107 -2.1520 -2.0299
    4DOPE   C39  488   4.751   2.812  16.642 -0.1631  0.4062 -0.3973
    4DOPE   H9X  489   4.790   2.824  16.744 -2.8775  1.6203  0.6109
    4DOPE  C310  490   4.815   2.729  16.555  0.4067 -0.0317 -0.7907
    4DOPE  H10X  491   4.893   2.665  16.599 -2.1672 -3.0194 -0.2535
    4DOPE  C311  492   4.782   2.697  16.411  0.3554  0.1916 -0.2118
    4DOPE  H11X  493   4.716   2.609  16.395 -1.6339  1.3316  1.1754
    4DOPE  H11Y  494   4.728   2.783  16.365 -0.4207  0.9249  1.9589
    4DOPE  C312  495   4.904   2.669  16.326 -0.0701 -0.5899  0.5774
    4DOPE  H12X  496   4.949   2.577  16.370  1.8209  0.1754  0.2891
    4DOPE  H12Y  497   4.980   2.747  16.347  0.6823 -0.7521 -1.3937
    4DOPE  C313  498   4.882   2.648  16.182  0.0519  0.2970  0.0137
    4DOPE  H13X  499   4.973   2.611  16.130  0.2657  1.9507 -0.8693
    4DOPE  H13Y  500   4.796   2.578  16.171  1.5436 -1.4784 -0.9730
    4DOPE  C314  501   4.846   2.780  16.107 -0.0366 -0.2331  0.6470
    4DOPE  H14X  502   4.918   2.855  16.146  0.6594 -0.6688  0.2326
    4DOPE  H14Y  503   4.744   2.809  16.140 -0.3634 -1.9388  1.2276
    4DOPE  C315  504   4.866   2.771  15.953  0.7207 -0.3335  0.2613
    4DOPE  H15X  505   4.955   2.710  15.925 -1.1946 -2.2073 -2.2459
    4DOPE  H15Y  506   4.888   2.876  15.926  2.9685 -0.9379 -0.4837
    4DOPE  C316  507   4.733   2.731  15.877  0.2062 -0.2680  0.1294
    4DOPE  H16X  508   4.669   2.819  15.858  2.1283  0.7723 -2.0680
    4DOPE  H16Y  509   4.681   2.654  15.938 -1.0710 -0.3615 -1.0151
    4DOPE  C317  510   4.762   2.677  15.737 -0.1128  0.2413  0.3147
    4DOPE  H17X  511   4.845   2.731  15.686 -0.9703  1.1786 -0.1315
    4DOPE  H17Y  512   4.786   2.570  15.752 -0.5410 -0.3023 -2.4513
    4DOPE  C318  513   4.632   2.701  15.654  0.6496  0.4864 -0.3377
    4DOPE  H18X  514   4.632   2.661  15.550  0.7425  0.5616 -0.3675
    4DOPE  H18Y  515   4.547   2.650  15.704  1.7268 -1.4778 -0.3688
    4DOPE  H18Z  516   4.613   2.810  15.648  0.9483  0.5071 -1.0165
    5DOPE     N  517   1.592   5.777  17.148 -0.6259  0.0454 -0.3260
    5DOPE   HN1  518   1.658   5.828  17.210 -0.4421 -0.6776  0.0873
    5DOPE   HN2  519   1.575   5.845  17.071 -0.8165 -0.7381 -0.9883
    5DOPE   HN3  520   1.502   5.769  17.200 -0.0539 -1.1563  0.5348
    5DOPE   C12  521   1.630   5.640  17.109  0.2738  0.3790 -0.6840
    5DOPE  H12A  522   1.691   5.645  17.016  0.4564  2.5318 -0.4907
    5DOPE  H12B  523   1.544   5.579  17.074 -0.1187  0.7666 -0.4054
    5DOPE   C11  524   1.697   5.565  17.228 -0.4619 -1.1058  0.9186
    5DOPE  H11A  525   1.733   5.467  17.192  1.4038  0.1766 -0.9230
    5DOPE  H11B  526   1.619   5.543  17.304 -0.2811  2.3659  2.2848
    5DOPE     P  527   1.913   5.566  17.375 -0.1203 -0.1980 -0.0294
    5DOPE   O13  528   1.828   5.493  17.474  0.6288 -0.0166 -0.0545
    5DOPE   O14  529   2.007   5.669  17.428  0.0326 -0.3472  0.4289
    5DOPE   O11  530   2.002   5.461  17.297 -0.3699  0.1741 -0.1540
    5DOPE   O12  531   1.812   5.634  17.279 -0.7159  0.2156 -0.2463
    5DOPE    C1  532   2.130   5.491  17.232 -0.2632  0.3936 -0.0187
    5DOPE    HA  533   2.176   5.392  17.214 -0.4274  0.3770 -0.3612
    5DOPE    HB  534   2.195   5.555  17.295 -1.0035 -0.8333  2.1093
    5DOPE    C2  535   2.115   5.559  17.097  0.3110 -0.1763  0.4778
    5DOPE    HS  536   2.049   5.646  17.118 -1.7767 -1.7772  0.8890
    5DOPE   O21  537   2.070   5.467  16.995  0.3867  0.5668  0.4230
    5DOPE   C21  538   2.002   5.530  16.891  0.6619  0.0021  0.3297
    5DOPE   O22  539   1.980   5.646  16.891 -0.5422 -0.2404  0.7863
    5DOPE   C22  540   1.958   5.436  16.783  0.0818  0.2567  0.0871
    5DOPE   H2R  541   1.929   5.338  16.827  1.0710 -0.3194 -0.5119
    5DOPE   H2S  542   2.041   5.427  16.710  1.0533 -2.3345  1.3949
    5DOPE    C3  543   2.256   5.621  17.059 -0.2339  0.4760  0.3449
    5DOPE    HX  544   2.321   5.531  17.060  1.3847  1.5713  2.4945
    5DOPE    HY  545   2.290   5.685  17.142  2.5159  0.7005 -0.8700
    5DOPE   O31  546   2.261   5.693  16.935  0.0441  0.2843 -0.4960
    5DOPE   C31  547   2.242   5.825  16.952 -0.1937  0.0131  0.1258
    5DOPE   O32  548   2.218   5.880  17.054  0.1561 -0.5043 -0.3435
    5DOPE   C32  549   2.235   5.892  16.811 -0.3069 -0.0489  0.5354
    5DOPE   H2X  550   2.173   5.828  16.745  0.5910 -1.2577  0.8370
    5DOPE   H2Y  551   2.186   5.992  16.819 -0.2512  0.0417 -0.1689
    5DOPE   C23  552   1.829   5.497  16.710 -0.4676 -0.3369 -0.1564
    5DOPE   H3R  553   1.845   5.593  16.656 -2.9219  0.9910  1.2112
    5DOPE   H3S  554   1.771   5.529  16.800 -0.3917  0.1433 -0.2757
    5DOPE   C24  555   1.758   5.402  16.617  0.4413 -0.6653 -0.2025
    5DOPE   H4R  556   1.667   5.457  16.585  0.9320 -1.0440 -2.4572
    5DOPE   H4S  557   1.734   5.316  16.683  1.8259  0.8701  2.4534
    5DOPE   C25  558   1.834   5.369  16.489  0.2916 -0.1204  0.7977
    5DOPE   H5R  559   1.933   5.328  16.520  1.3409  0.6990 -1.2943
    5DOPE   H5S  560   1.856   5.464  16.436 -3.2841  0.4832  0.1868
    5DOPE   C26  561   1.777   5.269  16.391  0.1086 -0.4115  0.4000
    5DOPE   H6R  562   1.670   5.291  16.370  0.2581 -0.9001 -0.9731
    5DOPE   H6S  563   1.776   5.165  16.430 -0.5756  0.2124  2.1656
    5DOPE   C27  564   1.845   5.286  16.247  0.1391  0.4662  0.5342
    5DOPE   H7R  565   1.955   5.277  16.253 -0.0093 -2.3535  0.2248
    5DOPE   H7S  566   1.834   5.387  16.202  0.8244 -0.0447 -0.8491
    5DOPE   C28  567   1.803   5.178  16.140  0.1098  0.7238  0.1909
    5DOPE   H8R  568   1.703   5.211  16.103  0.2805 -0.5379 -1.4945
    5DOPE   H8S  569   1.798   5.074  16.179  1.1528 -0.1954 -1.9527
    5DOPE   C29  570   1.902   5.179  16.018  0.0732 -0.6661  0.0228
    5DOPE   H9R  571   2.009   5.173  16.044  1.0515 -1.8281 -3.6614
    5DOPE  C210  572   1.877   5.174  15.886  0.5392  0.4468  1.2458
    5DOPE  H10R  573   1.963   5.170  15.817 -0.5250 -0.1557 -0.0720
    5DOPE  C211  574   1.747   5.177  15.805  0.2482 -0.3680 -0.0009
    5DOPE  H11R  575   1.673   5.124  15.869  1.5284 -1.3763  0.6783
    5DOPE  H11S  576   1.760   5.115  15.714  1.1413  1.0614 -0.8949
    5DOPE  C212  577   1.704   5.321  15.762 -0.2321  0.5760  0.2514
    5DOPE  H12R  578   1.713   5.388  15.850 -3.2101  0.7989  0.5031
    5DOPE  H12S  579   1.596   5.321  15.732 -0.2118  0.4130  0.1744
    5DOPE  C213  580   1.776   5.380  15.638 -0.0678 -0.0742 -0.1971
    5DOPE  H13R  581   1.882   5.356  15.659  0.7877  4.7487  2.3560
    5DOPE  H13S  582   1.775   5.491  15.637 -1.0898 -0.0188 -3.1305
    5DOPE  C214  583   1.708   5.338  15.512  0.3111  1.2388  0.3461
    5DOPE  H14R  584   1.614   5.397  15.510  0.5430  1.6545  1.1077
    5DOPE  H14S  585   1.675   5.232  15.505  0.9770  1.1545 -3.4456
    5DOPE  C215  586   1.798   5.365  15.391 -0.2631  0.1558 -0.1306
    5DOPE  H15R  587   1.846   5.267  15.372  0.3035 -0.1211  2.3748
    5DOPE  H15S  588   1.883   5.435  15.408 -0.1164  0.3628 -1.6042
    5DOPE  C216  589   1.721   5.401  15.270 -0.1462 -0.1096  0.3676
    5DOPE  H16R  590   1.645   5.476  15.301  0.0335  0.4904 -0.6100
    5DOPE  H16S  591   1.665   5.309  15.243  1.3743 -1.5465  1.8994
    5DOPE  C217  592   1.808   5.440  15.143  0.7524  0.3256  0.1279
    5DOPE  H17R  593   1.873   5.354  15.115  0.5804  0.0829  0.4564
    5DOPE  H17S  594   1.877   5.522  15.171  0.4191  0.8183 -0.4839
    5DOPE  C218  595   1.729   5.473  15.012 -0.1433 -0.9841 -0.3965
    5DOPE  H18R  596   1.792   5.542  14.952 -1.2200 -0.5651 -1.0759
    5DOPE  H18S  597   1.634   5.527  15.031  0.1808  0.0976 -1.6837
    5DOPE  H18T  598   1.708   5.387  14.946  0.9843 -2.2081  0.7897
    5DOPE   C33  599   2.384   5.919  16.762  0.4256  0.2432 -0.7216
    5DOPE   H3X  600   2.451   5.830  16.765  0.1533  0.0641  1.1775
    5DOPE   H3Y  601   2.432   5.991  16.831 -0.3403  0.3298 -0.2649
    5DOPE   C34  602   2.390   5.989  16.624  0.0272  0.4106  0.2830
    5DOPE   H4X  603   2.330   6.082  16.628 -0.1310  0.3965 -1.0800
    5DOPE   H4Y  604   2.489   6.030  16.595 -0.2795  0.9652  0.0001
    5DOPE   C35  605   2.344   5.900  16.510 -0.1035  0.0232 -0.4172
    5DOPE   H5X  606   2.249   5.857  16.547 -0.3612  1.3220  0.5002
    5DOPE   H5Y  607   2.428   5.829  16.501  0.5257  0.7021 -0.0693
    5DOPE   C36  608   2.324   5.970  16.379 -0.3854 -1.1074  0.8646
    5DOPE   H6X  609   2.414   6.028  16.348 -0.4124 -1.8284 -0.6640
    5DOPE   H6Y  610   2.244   6.047  16.386  0.6742  0.2398 -0.9777
    5DOPE   C37  611   2.286   5.874  16.260  0.2041 -0.4000 -0.5139
    5DOPE   H7X  612   2.299   5.935  16.168  3.9109 -1.8710 -1.1424
    5DOPE   H7Y  613   2.368   5.799  16.257 -0.5055 -1.2244  0.2478
    5DOPE   C38  614   2.149   5.805  16.261  0.5271  0.3238 -0.3984
    5DOPE   H8X  615   2.128   5.756  16.358 -1.3654 -0.6910 -1.2624
    5DOPE   H8Y  616   2.153   5.721  16.189 -0.0397  0.7117 -0.8940
    5DOPE   C39  617   2.041   5.901  16.225  0.2421 -0.4274 -0.4742
    5DOPE   H9X  618   1.999   5.960  16.307  0.9139 -0.2173 -0.2787
    5DOPE  C310  619   2.007   5.935  16.099  0.0307 -0.2717  0.4273
    5DOPE  H10X  620   1.953   6.031  16.090  0.9771  0.2867  0.5310
    5DOPE  C311  621   2.060   5.876  15.973  0.3895  0.3011  0.0373
    5DOPE  H11X  622   2.111   5.957  15.916  0.9494  0.7901  1.2103
    5DOPE  H11Y  623   2.132   5.799  16.008  0.7130 -0.1087 -1.4421
    5DOPE  C312  624   1.961   5.811  15.866 -0.2575  0.0908 -0.6880
    5DOPE  H12X  625   1.871   5.877  15.867  0.9104  1.7392 -0.6609
    5DOPE  H12Y  626   1.939   5.707  15.897  0.0452  0.3899  0.5857
    5DOPE  C313  627   2.027   5.807  15.721 -0.2909  0.0405 -0.2256
    5DOPE  H13X  628   2.075   5.906  15.705 -0.8715  0.4517  0.5023
    5DOPE  H13Y  629   2.108   5.731  15.716  0.1326  0.4561  0.1345
    5DOPE  C314  630   1.935   5.770  15.608  0.0668  0.4346  0.0912
    5DOPE  H14X  631   1.861   5.852  15.600 -0.7845 -0.2413  0.8347
    5DOPE  H14Y  632   1.877   5.680  15.638 -1.4735  0.4486 -2.4822
    5DOPE  C315  633   2.005   5.761  15.473 -0.1057  0.0077 -0.1558
    5DOPE  H15X  634   2.078   5.677  15.464  1.2762  1.2267 -0.7162
    5DOPE  H15Y  635   2.059   5.855  15.451 -3.0160  1.5511 -1.1894
    5DOPE  C316  636   1.901   5.744  15.356  0.0332 -0.3513 -0.6468
    5DOPE  H16X  637   1.813   5.698  15.406  0.3456 -1.5278 -1.1488
    5DOPE  H16Y  638   1.934   5.671  15.279 -1.9911 -3.2034  1.0067
    5DOPE  C317  639   1.877   5.883  15.302  0.0854  0.8698  0.0514
    5DOPE  H17X  640   1.856   5.959  15.380  0.9020  2.6025 -1.3405
    5DOPE  H17Y  641   1.975   5.910  15.257 -0.7369 -0.2825 -2.6035
    5DOPE  C318  642   1.774   5.894  15.196  0.6904 -0.4612  0.1832
    5DOPE  H18X  643   1.682   5.836  15.217  1.4174 -2.5488 -1.9521
    5DOPE  H18Y  644   1.750   6.001  15.178  1.3958 -0.1782  0.8448
    5DOPE  H18Z  645   1.819   5.861  15.100  1.4559  1.0259  0.0123
    6DOPE     N  646   1.999   6.059  17.160 -0.0243 -0.1280 -0.1989
    6DOPE   HN1  647   1.950   6.014  17.080 -0.1965  1.8480 -1.2586
    6DOPE   HN2  648   2.037   6.150  17.127  1.1833 -0.9799 -1.2750
    6DOPE   HN3  649   2.080   6.000  17.190 -1.2981 -0.8205  2.1228
    6DOPE   C12  650   1.906   6.086  17.276 -0.6678  0.0217  0.1140
    6DOPE  H12A  651   1.952   6.154  17.351  2.0088 -1.6915  0.1464
    6DOPE  H12B  652   1.876   5.993  17.328  0.9729  0.4472  1.9422
    6DOPE   C11  653   1.775   6.157  17.231 -0.4505 -0.5605 -0.3858
    6DOPE  H11A  654   1.787   6.259  17.188 -1.5888  0.3152  1.2530
    6DOPE  H11B  655   1.713   6.179  17.320  0.0170  2.3232 -0.6764
    6DOPE     P  656   1.568   6.118  17.087  0.0517 -0.3956  0.5655
    6DOPE   O13  657   1.473   6.166  17.194 -0.3452 -0.4410 -0.1512
    6DOPE   O14  658   1.513   6.006  17.007 -0.3275 -0.8758 -0.1214
    6DOPE   O11  659   1.610   6.253  16.999 -0.3067  0.2617 -0.4800
    6DOPE   O12  660   1.692   6.070  17.150 -0.4527  0.2624 -0.5417
    6DOPE    C1  661   1.721   6.251  16.908 -0.0063  0.0970 -0.3693
    6DOPE    HA  662   1.786   6.160  16.910  1.7292  1.2777  2.0032
    6DOPE    HB  663   1.798   6.325  16.938 -0.3041  1.0974 -2.0134
    6DOPE    C2  664   1.676   6.294  16.765 -0.1027 -0.3087  0.7046
    6DOPE    HS  665   1.762   6.305  16.696 -2.2172 -2.0564 -2.4759
    6DOPE   O21  666   1.591   6.405  16.776 -0.2263 -0.6201 -0.0501
    6DOPE   C21  667   1.656   6.521  16.766 -0.3087  0.2767  0.5185
    6DOPE   O22  668   1.776   6.536  16.755 -0.0699  0.1419  0.3055
    6DOPE   C22  669   1.551   6.630  16.750  0.2199  0.1966  0.3196
    6DOPE   H2R  670   1.579   6.717  16.814  1.4858  0.4804 -0.5726
    6DOPE   H2S  671   1.459   6.593  16.799  0.1495  2.1725  1.8055
    6DOPE    C3  672   1.587   6.187  16.706  0.1083  0.0688 -0.3225
    6DOPE    HX  673   1.496   6.181  16.769  0.1168 -0.7649 -0.3741
    6DOPE    HY  674   1.634   6.088  16.719 -0.9924 -0.1424  2.8297
    6DOPE   O31  675   1.543   6.219  16.567  0.3971 -0.4831 -0.1882
    6DOPE   C31  676   1.637   6.190  16.476 -0.4781 -1.3433  0.2520
    6DOPE   O32  677   1.753   6.151  16.501 -0.0795 -0.2817 -0.4140
    6DOPE   C32  678   1.577   6.204  16.334  0.0083 -0.2038  0.3208
    6DOPE   H2X  679   1.511   6.117  16.311 -0.7805  0.8955 -1.7952
    6DOPE   H2Y  680   1.511   6.293  16.331  0.0085 -0.1529  1.4135
    6DOPE   C23  681   1.511   6.668  16.604  0.5430 -0.1570 -0.5184
    6DOPE   H3R  682   1.598   6.703  16.544  0.1470  0.3212 -0.8223
    6DOPE   H3S  683   1.432   6.746  16.609  0.5263 -0.2405  0.9908
    6DOPE   C24  684   1.460   6.543  16.518  0.5065 -0.2849  0.3562
    6DOPE   H4R  685   1.376   6.494  16.573  0.0271  0.5426  0.3691
    6DOPE   H4S  686   1.548   6.478  16.499  0.9789  0.5648 -0.4177
    6DOPE   C25  687   1.412   6.577  16.374 -0.1739  0.0430 -0.0684
    6DOPE   H5R  688   1.352   6.670  16.380  1.4608  1.2759 -1.7531
    6DOPE   H5S  689   1.346   6.498  16.332 -2.1093  0.7512  1.4950
    6DOPE   C26  690   1.523   6.604  16.272 -0.3630  0.0062  0.0183
    6DOPE   H6R  691   1.587   6.514  16.266  0.3342  0.4500  0.5709
    6DOPE   H6S  692   1.582   6.688  16.316 -1.6520  0.8550  0.1760
    6DOPE   C27  693   1.463   6.647  16.138  0.3747  0.5882 -0.1251
    6DOPE   H7R  694   1.404   6.739  16.159 -1.3354 -0.0866 -1.7098
    6DOPE   H7S  695   1.391   6.565  16.117 -1.3319  1.7935  0.8004
    6DOPE   C28  696   1.556   6.663  16.024  0.2185 -0.1255  0.1215
    6DOPE   H8R  697   1.625   6.746  16.051 -0.1361  0.5996 -1.1305
    6DOPE   H8S  698   1.482   6.702  15.951 -1.1193 -2.1793  0.2881
    6DOPE   C29  699   1.631   6.546  15.972  0.0867 -0.3439 -0.0935
    6DOPE   H9R  700   1.658   6.464  16.040 -2.9862 -2.6059 -1.3699
    6DOPE  C210  701   1.668   6.540  15.848 -0.6687  0.0940  0.6431
    6DOPE  H10R  702   1.719   6.449  15.812 -0.1558 -0.1222  1.8720
    6DOPE  C211  703   1.626   6.640  15.740 -0.5545 -0.5083 -0.0513
    6DOPE  H11R  704   1.621   6.747  15.768 -2.2701 -0.0879 -1.7687
    6DOPE  H11S  705   1.527   6.624  15.693 -0.2718  1.0990 -1.2751
    6DOPE  C212  706   1.723   6.633  15.622  0.2664  0.3387  0.0660
    6DOPE  H12R  707   1.829   6.639  15.654 -0.1767  1.2483  1.4649
    6DOPE  H12S  708   1.707   6.719  15.554 -1.3149 -0.9293 -1.2644
    6DOPE  C213  709   1.690   6.504  15.540  0.4055 -0.2023 -0.7393
    6DOPE  H13R  710   1.580   6.494  15.531  0.0366  1.2337  1.4656
    6DOPE  H13S  711   1.730   6.429  15.611  3.6375  0.0064 -2.1483
    6DOPE  C214  712   1.763   6.491  15.401  1.1439  0.1567 -0.6609
    6DOPE  H14R  713   1.872   6.491  15.420  1.4425 -2.9647 -1.7410
    6DOPE  H14S  714   1.741   6.572  15.328 -0.3776  0.3595 -0.0204
    6DOPE  C215  715   1.724   6.360  15.340  0.1808 -0.4645  0.5550
    6DOPE  H15R  716   1.714   6.282  15.417  0.6202  0.1044  1.2041
    6DOPE  H15S  717   1.794   6.331  15.259 -0.0272 -0.1198  0.2497
    6DOPE  C216  718   1.585   6.364  15.273 -0.1741 -0.8413 -0.7437
    6DOPE  H16R  719   1.582   6.465  15.227  1.2669 -0.8588 -0.9168
    6DOPE  H16S  720   1.509   6.371  15.353  0.9249 -0.3352  0.2962
    6DOPE  C217  721   1.555   6.241  15.191  0.1411  0.2598 -0.0261
    6DOPE  H17R  722   1.576   6.153  15.256  0.7482 -0.9986 -1.8218
    6DOPE  H17S  723   1.624   6.218  15.106 -2.0603 -1.0793 -1.5598
    6DOPE  C218  724   1.410   6.232  15.137  0.0427 -0.0253  0.7321
    6DOPE  H18R  725   1.342   6.258  15.220  0.9770 -1.6335  2.0773
    6DOPE  H18S  726   1.384   6.139  15.083 -2.5429  1.2470 -0.3516
    6DOPE  H18T  727   1.387   6.311  15.063  0.4312  0.3054  0.9558
    6DOPE   C33  728   1.675   6.203  16.216 -0.7682 -0.3003  0.0414
    6DOPE   H3X  729   1.762   6.139  16.242 -1.2409 -0.5872  0.9567
    6DOPE   H3Y  730   1.708   6.309  16.211 -1.8799  0.3012  3.0662
    6DOPE   C34  731   1.600   6.157  16.094 -0.1718 -0.2006  0.2206
    6DOPE   H4X  732   1.551   6.059  16.115  0.2358 -0.1268  1.6649
    6DOPE   H4Y  733   1.526   6.228  16.051 -1.7904 -1.3970  0.9353
    6DOPE   C35  734   1.695   6.119  15.978  0.2745  0.0018  0.6068
    6DOPE   H5X  735   1.750   6.031  16.018 -1.4071 -0.9779  0.8685
    6DOPE   H5Y  736   1.769   6.200  15.962 -0.3435  0.9120  2.1102
    6DOPE   C36  737   1.632   6.075  15.848 -0.8451 -0.0825 -0.0542
    6DOPE   H6X  738   1.544   6.013  15.873 -3.0724  3.2586  1.0843
    6DOPE   H6Y  739   1.711   6.012  15.802  2.0331  1.5229  2.3168
    6DOPE   C37  740   1.589   6.190  15.757  0.3687 -0.2199  0.0669
    6DOPE   H7X  741   1.525   6.259  15.817 -1.2155 -1.9848  0.4955
    6DOPE   H7Y  742   1.679   6.250  15.730  0.0970 -0.2057 -0.8488
    6DOPE   C38  743   1.517   6.154  15.626  0.1815  0.2068 -0.1698
    6DOPE   H8X  744   1.589   6.108  15.554  2.0258  1.3364  0.8617
    6DOPE   H8Y  745   1.480   6.249  15.584 -2.0941 -1.1674 -1.4538
    6DOPE   C39  746   1.400   6.056  15.636 -0.0817 -0.6072  0.2995
    6DOPE   H9X  747   1.400   5.981  15.717 -1.2294 -0.9982 -0.0390
    6DOPE  C310  748   1.294   6.055  15.557  0.3516 -0.6903 -0.3801
    6DOPE  H10X  749   1.214   5.988  15.593 -1.6049  2.6648  2.1110
    6DOPE  C311  750   1.258   6.136  15.438  0.7915  0.3709  0.2219
    6DOPE  H11X  751   1.312   6.233  15.447 -0.6378  1.0380  2.6574
    6DOPE  H11Y  752   1.290   6.078  15.349 -1.1960  1.5455 -1.3414
    6DOPE  C312  753   1.116   6.181  15.417 -0.2269  0.3243  0.1273
    6DOPE  H12X  754   1.083   6.250  15.497 -1.2542  2.0410 -1.6929
    6DOPE  H12Y  755   1.060   6.086  15.428  0.4546  0.0167  0.9866
    6DOPE  C313  756   1.082   6.248  15.285 -0.0797  0.1764 -0.4061
    6DOPE  H13X  757   1.146   6.338  15.272  1.5883 -0.9770 -0.4634
    6DOPE  H13Y  758   1.120   6.181  15.204 -1.4300  0.6585 -1.4702
    6DOPE  C314  759   0.938   6.280  15.262  0.3436 -0.1848 -0.1973
    6DOPE  H14X  760   0.928   6.327  15.162  1.4716 -0.8014 -0.6221
    6DOPE  H14Y  761   0.916   6.372  15.320 -0.1176 -1.0777  1.0789
    6DOPE  C315  762   0.840   6.169  15.297 -0.0867 -0.1761  0.3012
    6DOPE  H15X  763   0.824   6.155  15.406  1.0312 -3.8329  0.1324
    6DOPE  H15Y  764   0.894   6.075  15.274  0.2149  0.3851 -1.4742
    6DOPE  C316  765   0.708   6.175  15.218 -0.4614  0.5086 -0.2150
    6DOPE  H16X  766   0.682   6.281  15.197 -0.1590  0.5200 -0.5387
    6DOPE  H16Y  767   0.628   6.114  15.267 -1.6566  1.0838 -1.3899
    6DOPE  C317  768   0.726   6.091  15.085  0.1239 -0.3875 -0.0239
    6DOPE  H17X  769   0.821   6.119  15.036 -0.1596 -0.2582 -0.5048
    6DOPE  H17Y  770   0.723   5.986  15.123 -1.2125 -0.7314 -0.9922
    6DOPE  C318  771   0.613   6.120  14.986 -0.0146  0.2292 -0.5109
    6DOPE  H18X  772   0.613   6.046  14.903 -0.2005  3.3761 -3.5257
    6DOPE  H18Y  773   0.513   6.115  15.035  0.4951 -1.3012  0.4511
    6DOPE  H18Z  774   0.640   6.218  14.942 -1.1783  0.3139 -1.0752
    7DOPE     N  775   4.111   5.740  16.864  0.6965 -0.4073 -0.3658
    7DOPE   HN1  776   4.055   5.766  16.781 -0.2639 -1.9955 -0.2478
    7DOPE   HN2  777   4.204   5.786  16.874  0.1379  0.8320 -0.6770
    7DOPE   HN3  778   4.123   5.637  16.860  0.1601 -0.4855 -0.1396
    7DOPE   C12  779   4.037   5.790  16.992  0.0184 -0.5251  0.4752
    7DOPE  H12A  780   3.970   5.713  17.035 -1.5576  0.9031  0.6812
    7DOPE  H12B  781   3.981   5.882  16.963 -0.3134 -0.7178  0.4989
    7DOPE   C11  782   4.137   5.838  17.094  0.8072  0.1095  0.4065
    7DOPE  H11A  783   4.209   5.756  17.112  0.1388 -0.8963 -1.2638
    7DOPE  H11B  784   4.083   5.863  17.188  1.2908  0.5198  0.5741
    7DOPE     P  785   4.299   6.037  17.126  0.2519  0.5066  0.4431
    7DOPE   O13  786   4.313   5.983  17.263 -0.2573 -0.3373  0.1153
    7DOPE   O14  787   4.259   6.177  17.113  0.3929 -0.0262 -0.1001
    7DOPE   O11  788   4.435   6.001  17.057  0.7334  0.9908 -0.1683
    7DOPE   O12  789   4.202   5.952  17.039 -0.3766  0.0710  0.1230
    7DOPE    C1  790   4.507   6.100  16.984  0.6783  0.3507  0.2610
    7DOPE    HA  791   4.547   6.177  17.053  0.1157  1.6543 -0.8439
    7DOPE    HB  792   4.437   6.160  16.923 -0.2813 -0.2794  0.7235
    7DOPE    C2  793   4.624   6.044  16.900 -0.4323  0.1731  0.0943
    7DOPE    HS  794   4.709   6.116  16.896  1.6141 -1.7910  3.2321
    7DOPE   O21  795   4.585   6.001  16.770  0.6724  0.2022 -0.3576
    7DOPE   C21  796   4.547   6.098  16.681  0.5507 -0.6380 -0.5365
    7DOPE   O22  797   4.521   6.214  16.707 -0.5024 -0.2204 -0.1870
    7DOPE   C22  798   4.541   6.039  16.532  0.4781 -0.1928 -0.0992
    7DOPE   H2R  799   4.435   6.007  16.522  0.0351  1.2401 -0.1614
    7DOPE   H2S  800   4.604   5.949  16.514 -0.1100 -0.4551 -0.9054
    7DOPE    C3  801   4.695   5.925  16.973 -0.1429  0.0472 -0.5820
    7DOPE    HX  802   4.631   5.850  17.022 -2.0426  0.8372 -1.7328
    7DOPE    HY  803   4.742   5.970  17.063 -1.5222 -1.3030  0.8554
    7DOPE   O31  804   4.800   5.858  16.892  0.4078  0.3037 -0.1078
    7DOPE   C31  805   4.759   5.755  16.832 -0.1059 -0.7402  0.4942
    7DOPE   O32  806   4.653   5.698  16.848  0.0401 -0.0236 -0.0615
    7DOPE   C32  807   4.865   5.693  16.738 -0.3578 -0.5533 -0.1257
    7DOPE   H2X  808   4.942   5.772  16.727 -0.1887 -0.8574 -1.3064
    7DOPE   H2Y  809   4.908   5.605  16.790  0.0544 -0.4674 -0.3226
    7DOPE   C23  810   4.562   6.139  16.414  0.0282  0.4521 -0.4910
    7DOPE   H3R  811   4.671   6.140  16.392  0.3652  3.7608  0.8039
    7DOPE   H3S  812   4.525   6.239  16.442 -1.4230  0.1778 -1.3296
    7DOPE   C24  813   4.486   6.090  16.288  0.6211 -0.1780  0.0848
    7DOPE   H4R  814   4.379   6.074  16.316  0.1151  1.8407 -0.4763
    7DOPE   H4S  815   4.528   5.990  16.269  0.4755 -0.8479  2.8073
    7DOPE   C25  816   4.491   6.172  16.159 -0.0912  0.3584 -0.1929
    7DOPE   H5R  817   4.597   6.203  16.157  0.4595 -1.4381 -0.2813
    7DOPE   H5S  818   4.428   6.264  16.163  1.2069  1.3614 -1.5926
    7DOPE   C26  819   4.458   6.093  16.032  0.2397  0.0376 -0.3801
    7DOPE   H6R  820   4.362   6.041  16.049  0.3404  0.7810  3.3987
    7DOPE   H6S  821   4.544   6.025  16.017 -1.1570 -2.6494  2.6205
    7DOPE   C27  822   4.436   6.185  15.911  0.2710 -0.1876  0.6972
    7DOPE   H7R  823   4.342   6.241  15.927 -0.0078 -1.0155  2.0806
    7DOPE   H7S  824   4.416   6.111  15.830 -0.3094  0.4180  0.2654
    7DOPE   C28  825   4.541   6.296  15.874 -0.0436 -0.2906 -0.2047
    7DOPE   H8R  826   4.554   6.358  15.965 -0.9044  0.9703 -0.9167
    7DOPE   H8S  827   4.495   6.364  15.799 -0.5755  0.6502  0.9425
    7DOPE   C29  828   4.654   6.219  15.820 -0.0090 -0.0754 -0.2500
    7DOPE   H9R  829   4.742   6.219  15.885  1.0628  4.0066 -1.3741
    7DOPE  C210  830   4.658   6.174  15.693  0.0850 -0.6713 -0.3170
    7DOPE  H10R  831   4.755   6.133  15.660  1.8495  1.5630  1.7291
    7DOPE  C211  832   4.549   6.188  15.588 -0.4952 -0.1524 -0.0064
    7DOPE  H11R  833   4.466   6.255  15.618  0.7521  0.3100  2.7788
    7DOPE  H11S  834   4.507   6.092  15.551 -1.5102 -0.0314  0.8017
    7DOPE  C212  835   4.591   6.266  15.456  0.2932  0.1469 -0.7110
    7DOPE  H12R  836   4.684   6.227  15.409  0.3710 -1.7700  0.8931
    7DOPE  H12S  837   4.604   6.371  15.490 -1.0064  0.2888 -0.5927
    7DOPE  C213  838   4.474   6.267  15.360 -0.2260 -0.6241  0.0005
    7DOPE  H13R  839   4.386   6.319  15.403 -2.0549  0.9675 -4.8706
    7DOPE  H13S  840   4.447   6.166  15.322  0.8891 -0.9297 -0.0108
    7DOPE  C214  841   4.502   6.350  15.233  0.2408 -1.2607  0.9193
    7DOPE  H14R  842   4.583   6.299  15.177  1.6654  0.3388  1.4342
    7DOPE  H14S  843   4.544   6.452  15.250 -0.7842 -0.1981 -2.1462
    7DOPE  C215  844   4.378   6.365  15.153  0.0610 -0.5627  0.3130
    7DOPE  H15R  845   4.321   6.446  15.204  0.9551  0.5176 -0.3491
    7DOPE  H15S  846   4.316   6.273  15.148 -0.8221  0.0706 -1.2629
    7DOPE  C216  847   4.413   6.396  15.007  0.4279 -0.0367  0.7130
    7DOPE  H16R  848   4.464   6.303  14.974  2.7080  1.5724 -0.6100
    7DOPE  H16S  849   4.497   6.467  15.025  0.5972 -0.4088  1.4109
    7DOPE  C217  850   4.294   6.443  14.924  0.8666 -0.4864  0.0761
    7DOPE  H17R  851   4.333   6.497  14.835 -0.9113 -0.8576 -0.9800
    7DOPE  H17S  852   4.221   6.510  14.975  0.0610 -0.0158 -1.5998
    7DOPE  C218  853   4.207   6.330  14.871  1.0253 -0.0658  0.3064
    7DOPE  H18R  854   4.121   6.366  14.810  0.4327 -0.3191  0.9702
    7DOPE  H18S  855   4.175   6.261  14.952 -0.6608 -0.4053 -0.6135
    7DOPE  H18T  856   4.278   6.270  14.811  0.8681 -0.0424  0.0938
    7DOPE   C33  857   4.802   5.657  16.607 -0.6625 -0.2416 -0.2262
    7DOPE   H3X  858   4.711   5.594  16.616 -0.1199 -0.9048  0.7533
    7DOPE   H3Y  859   4.877   5.586  16.569  1.0803  0.4717  1.6922
    7DOPE   C34  860   4.793   5.760  16.500 -0.3788 -0.2066  0.3851
    7DOPE   H4X  861   4.712   5.740  16.427 -0.4907 -2.2327  1.0072
    7DOPE   H4Y  862   4.777   5.861  16.544  1.4894  0.2237  0.2057
    7DOPE   C35  863   4.924   5.785  16.422 -0.0992  0.3960  0.5229
    7DOPE   H5X  864   4.950   5.687  16.376 -1.2481  0.0778  0.4972
    7DOPE   H5Y  865   5.004   5.806  16.496  2.3308  2.2580 -2.4185
    7DOPE   C36  866   4.925   5.903  16.319  0.3034  0.6246  0.4300
    7DOPE   H6X  867   5.029   5.904  16.280  1.2690 -4.6385  2.0100
    7DOPE   H6Y  868   4.899   6.003  16.359 -1.5979 -0.0413  0.9657
    7DOPE   C37  869   4.833   5.881  16.199  0.4127 -0.1704  0.4311
    7DOPE   H7X  870   4.862   5.779  16.165 -1.9315 -1.3223  1.6142
    7DOPE   H7Y  871   4.726   5.868  16.225  0.1435 -0.0557 -0.5815
    7DOPE   C38  872   4.852   5.969  16.079  0.0336  0.0073 -0.3359
    7DOPE   H8X  873   4.821   6.075  16.095 -2.6842 -1.1072  2.7927
    7DOPE   H8Y  874   4.794   5.922  15.997  2.2112 -1.1870 -1.2925
    7DOPE   C39  875   4.991   5.976  16.017 -0.3549 -0.1954 -0.3365
    7DOPE   H9X  876   5.052   6.067  16.027  1.6537 -1.5923  1.1379
    7DOPE  C310  877   5.037   5.886  15.928  0.5034 -0.0738 -0.0736
    7DOPE  H10X  878   5.139   5.896  15.888  0.6249 -1.0691 -0.0325
    7DOPE  C311  879   4.973   5.753  15.881 -0.4146  0.2965  0.1050
    7DOPE  H11X  880   5.024   5.666  15.927  2.8560  1.3194 -1.3064
    7DOPE  H11Y  881   4.868   5.744  15.917  0.5809 -1.0453  2.9313
    7DOPE  C312  882   4.977   5.735  15.725  0.4977  0.3089  0.4778
    7DOPE  H12X  883   4.924   5.639  15.704  1.3938  0.1677 -1.3613
    7DOPE  H12Y  884   5.080   5.718  15.687  0.2438 -1.2439  0.4025
    7DOPE  C313  885   4.914   5.850  15.646 -0.9118  0.1277  0.2010
    7DOPE  H13X  886   4.819   5.862  15.702  0.4044  1.1010  2.3492
    7DOPE  H13Y  887   4.982   5.936  15.661  2.1879 -2.1309  0.0442
    7DOPE  C314  888   4.896   5.822  15.492  0.1412  0.0658 -0.0410
    7DOPE  H14X  889   4.817   5.745  15.482  0.1780 -0.0671  0.6197
    7DOPE  H14Y  890   4.989   5.786  15.443 -0.2901 -0.4141 -0.5155
    7DOPE  C315  891   4.842   5.949  15.429 -0.0881 -0.0469 -0.4503
    7DOPE  H15X  892   4.916   6.026  15.460  2.8455 -2.3563 -1.2761
    7DOPE  H15Y  893   4.741   5.985  15.461 -0.2194 -0.0009 -0.9087
    7DOPE  C316  894   4.838   5.944  15.271 -0.5657  0.2489  0.3107
    7DOPE  H16X  895   4.769   5.861  15.246 -0.9173  0.2791  1.1679
    7DOPE  H16Y  896   4.943   5.914  15.250 -0.6468  0.1029  0.1112
    7DOPE  C317  897   4.790   6.059  15.185  0.5704 -0.0249 -0.5725
    7DOPE  H17X  898   4.681   6.073  15.199  1.0041  1.0723  2.2994
    7DOPE  H17Y  899   4.838   6.148  15.229  2.2216 -1.1453 -0.0198
    7DOPE  C318  900   4.822   6.038  15.037  0.0691  0.0222  0.1916
    7DOPE  H18X  901   4.785   6.118  14.970 -1.7665  0.8045  2.0317
    7DOPE  H18Y  902   4.926   6.004  15.018  0.7334  2.3533 -0.5549
    7DOPE  H18Z  903   4.756   5.950  15.020  3.0727 -2.5253  0.7420
    8DOPE     N  904   4.261   0.242  16.952  0.8803 -0.3058 -0.7927
    8DOPE   HN1  905   4.283   0.340  16.924  0.9093  0.4508  1.6427
    8DOPE   HN2  906   4.340   0.213  17.012  1.0104 -0.5312 -1.0692
    8DOPE   HN3  907   4.255   0.183  16.867 -1.0312 -0.8264 -0.3396
    8DOPE   C12  908   4.134   0.228  17.027 -0.0993 -0.4556  0.3263
    8DOPE  H12A  909   4.079   0.322  17.001  1.6027  0.4043 -0.3409
    8DOPE  H12B  910   4.162   0.229  17.134  1.6859  0.8884 -0.0998
    8DOPE   C11  911   4.064   0.098  16.976  0.4839 -0.0955 -0.4083
    8DOPE  H11A  912   4.059   0.094  16.865 -1.8211  1.7204 -0.4506
    8DOPE  H11B  913   3.958   0.086  17.005  1.0435 -0.4363  1.5777
    8DOPE     P  914   4.098  -0.117  17.121  0.2731  0.0963 -0.3172
    8DOPE   O13  915   3.968  -0.086  17.187 -0.1178 -0.2052 -0.0868
    8DOPE   O14  916   4.214  -0.149  17.208 -0.0722  0.5673 -0.0055
    8DOPE   O11  917   4.083  -0.237  17.025 -0.7010 -0.1741 -0.1628
    8DOPE   O12  918   4.137  -0.009  17.017 -0.1805  0.1419  0.3824
    8DOPE    C1  919   4.041  -0.216  16.885  0.3608 -0.4802 -1.2883
    8DOPE    HA  920   4.131  -0.189  16.825  0.1374 -1.3894 -2.0482
    8DOPE    HB  921   3.970  -0.131  16.875 -0.4084 -0.9532 -0.0304
    8DOPE    C2  922   3.975  -0.349  16.825 -0.4747  0.2112 -0.4165
    8DOPE    HS  923   3.918  -0.393  16.909  0.2753  0.1673  0.0823
    8DOPE   O21  924   4.084  -0.439  16.784  0.5291  0.3559  0.2267
    8DOPE   C21  925   4.047  -0.567  16.764 -0.2315  0.5593  0.0074
    8DOPE   O22  926   3.933  -0.612  16.774  0.0010  0.4852 -0.7341
    8DOPE   C22  927   4.175  -0.651  16.736  0.2749 -0.7155 -0.1561
    8DOPE   H2R  928   4.183  -0.714  16.826 -0.6503 -1.6687 -0.7175
    8DOPE   H2S  929   4.262  -0.583  16.722 -0.3322  0.3335  1.0471
    8DOPE    C3  930   3.873  -0.317  16.714 -0.1384  0.6474  0.2211
    8DOPE    HX  931   3.802  -0.251  16.767 -1.5028 -1.9220  1.7524
    8DOPE    HY  932   3.832  -0.414  16.678  0.4701  0.0113  1.2076
    8DOPE   O31  933   3.943  -0.242  16.608  0.1751 -0.7895  0.6318
    8DOPE   C31  934   3.874  -0.147  16.542  0.1115  0.2683 -0.1354
    8DOPE   O32  935   3.756  -0.122  16.571  0.3765  0.4895  0.2761
    8DOPE   C32  936   3.961  -0.089  16.430  0.6178  0.7456  0.2213
    8DOPE   H2X  937   3.902  -0.015  16.372  0.4719  0.3178 -0.1867
    8DOPE   H2Y  938   4.043  -0.027  16.471 -0.6040  2.0183  0.8206
    8DOPE   C23  939   4.156  -0.743  16.609  0.2258  0.1414 -0.5626
    8DOPE   H3R  940   4.084  -0.826  16.623  0.7786 -0.4879 -1.3719
    8DOPE   H3S  941   4.256  -0.782  16.581  0.1735 -1.9759  1.8164
    8DOPE   C24  942   4.122  -0.658  16.487 -0.5500  0.6153  0.0820
    8DOPE   H4R  943   4.204  -0.585  16.470  2.5570 -2.2146  1.8785
    8DOPE   H4S  944   4.028  -0.603  16.509 -0.2090  0.6121  1.6641
    8DOPE   C25  945   4.097  -0.750  16.365  0.1374 -0.6233  0.4692
    8DOPE   H5R  946   4.009  -0.810  16.396 -2.1290  1.9652 -0.5353
    8DOPE   H5S  947   4.183  -0.819  16.350 -1.1621 -1.9441 -1.3078
    8DOPE   C26  948   4.052  -0.682  16.236 -0.0446 -0.1755 -0.3852
    8DOPE   H6R  949   4.113  -0.590  16.222 -1.2968  0.8147  0.4026
    8DOPE   H6S  950   3.950  -0.640  16.249  0.1959  0.5752 -0.8809
    8DOPE   C27  951   4.065  -0.768  16.116  0.6622 -0.2606  1.6509
    8DOPE   H7R  952   3.976  -0.836  16.115 -0.4300  1.0395 -1.3670
    8DOPE   H7S  953   4.154  -0.833  16.130  1.0591  0.0035  0.4767
    8DOPE   C28  954   4.077  -0.687  15.986  0.3626  0.0723  0.1077
    8DOPE   H8R  955   4.130  -0.762  15.924  3.1891  1.3332  0.8057
    8DOPE   H8S  956   4.155  -0.608  15.994  1.5009 -1.1281  1.1525
    8DOPE   C29  957   3.944  -0.639  15.929 -0.1355 -0.2741  0.8935
    8DOPE   H9R  958   3.890  -0.563  15.988  1.7817  0.2239  2.0865
    8DOPE  C210  959   3.901  -0.677  15.808 -0.5614 -0.2003 -0.2625
    8DOPE  H10R  960   3.815  -0.624  15.766 -1.6116 -0.0746  1.9061
    8DOPE  C211  961   3.979  -0.758  15.702 -0.2932  0.0366 -0.3590
    8DOPE  H11R  962   3.909  -0.819  15.640  0.3490 -0.4540 -0.6195
    8DOPE  H11S  963   4.058  -0.823  15.746  0.0887  1.5364  1.2731
    8DOPE  C212  964   4.056  -0.670  15.602 -0.0305 -0.5926  0.1137
    8DOPE  H12R  965   4.148  -0.617  15.635  0.1673 -1.2908  0.6978
    8DOPE  H12S  966   3.985  -0.591  15.569 -0.0859 -0.9016 -0.5127
    8DOPE  C213  967   4.103  -0.761  15.492 -0.4257 -0.1968  0.1843
    8DOPE  H13R  968   4.018  -0.798  15.430  0.3756 -0.2617 -0.9099
    8DOPE  H13S  969   4.161  -0.845  15.537 -0.2732  0.5189  1.3552
    8DOPE  C214  970   4.203  -0.693  15.402  0.5189 -0.2136  0.2325
    8DOPE  H14R  971   4.278  -0.636  15.461  1.1313 -2.2080  1.4871
    8DOPE  H14S  972   4.145  -0.610  15.357 -2.2878 -0.6595  2.6838
    8DOPE  C215  973   4.272  -0.789  15.302  0.4282  0.1383 -0.1243
    8DOPE  H15R  974   4.322  -0.732  15.221 -0.6833  1.0970 -0.1667
    8DOPE  H15S  975   4.193  -0.841  15.243  0.5170 -0.2425  0.0920
    8DOPE  C216  976   4.366  -0.891  15.374 -0.2495 -0.4249  0.4782
    8DOPE  H16R  977   4.314  -0.970  15.432 -0.4706  0.4969  1.5906
    8DOPE  H16S  978   4.416  -0.832  15.455 -1.1033  0.6902  0.2310
    8DOPE  C217  979   4.468  -0.959  15.278  0.1820 -0.1731 -0.4345
    8DOPE  H17R  980   4.541  -0.881  15.249  0.3477  0.3447  1.2930
    8DOPE  H17S  981   4.416  -0.979  15.181  0.6795  0.1728 -0.7787
    8DOPE  C218  982   4.542  -1.079  15.328  0.7818  0.2041 -0.3985
    8DOPE  H18R  983   4.466  -1.151  15.365  1.1331 -0.0002 -0.0680
    8DOPE  H18S  984   4.605  -1.062  15.417  1.1575 -0.6868 -0.4824
    8DOPE  H18T  985   4.610  -1.116  15.248 -0.3505 -1.1961 -0.7681
    8DOPE   C33  986   4.021  -0.203  16.341 -0.2078  0.6474  0.5987
    8DOPE   H3X  987   3.944  -0.270  16.298 -0.0536  1.6518 -1.3513
    8DOPE   H3Y  988   4.089  -0.264  16.405 -0.2464  0.4248  0.4274
    8DOPE   C34  989   4.106  -0.163  16.216  0.2598 -0.1103  0.5381
    8DOPE   H4X  990   4.049  -0.111  16.136  0.8660  1.1859  0.9139
    8DOPE   H4Y  991   4.185  -0.088  16.241 -0.8266  1.8682 -1.5774
    8DOPE   C35  992   4.196  -0.269  16.144  0.0605 -0.0457  0.1029
    8DOPE   H5X  993   4.128  -0.336  16.089 -0.5084  1.3903 -1.0268
    8DOPE   H5Y  994   4.242  -0.344  16.211 -0.5084 -1.7122 -1.2979
    8DOPE   C36  995   4.315  -0.210  16.059 -0.2127 -0.7080  1.6979
    8DOPE   H6X  996   4.364  -0.295  16.007  0.0106 -0.1594  0.9852
    8DOPE   H6Y  997   4.393  -0.169  16.126  0.8823  1.4375 -0.6919
    8DOPE   C37  998   4.274  -0.095  15.957  0.2997 -0.5421 -0.5370
    8DOPE   H7X  999   4.245  -0.003  16.012 -1.5916  0.4686 -3.0363
    8DOPE   H7Y 1000   4.360  -0.068  15.893  0.8045  0.8307  0.6560
    8DOPE   C38 1001   4.161  -0.143  15.863  0.1196  0.0028 -1.0511
    8DOPE   H8X 1002   4.138  -0.064  15.788  1.0583 -0.3806 -1.7739
    8DOPE   H8Y 1003   4.068  -0.158  15.921 -0.0030  0.6765 -1.0567
    8DOPE   C39 1004   4.196  -0.273  15.795 -0.6361  0.7266 -0.3875
    8DOPE   H9X 1005   4.194  -0.362  15.859 -1.7146  0.5764 -0.6057
    8DOPE  C310 1006   4.242  -0.295  15.672  0.4894 -0.3452 -0.1399
    8DOPE  H10X 1007   4.253  -0.401  15.643 -0.2912 -1.2467  2.5315
    8DOPE  C311 1008   4.272  -0.185  15.576  0.4082 -0.0031  0.3247
    8DOPE  H11X 1009   4.289  -0.089  15.629  0.3586 -0.1131  0.5359
    8DOPE  H11Y 1010   4.363  -0.205  15.514  0.0992  2.4374 -1.0479
    8DOPE  C312 1011   4.150  -0.146  15.479 -0.1700 -0.3633  0.1445
    8DOPE  H12X 1012   4.069  -0.112  15.547  1.0921  1.5885  0.7641
    8DOPE  H12Y 1013   4.124  -0.239  15.424 -2.7761  0.6259 -0.4672
    8DOPE  C313 1014   4.191  -0.024  15.387  0.7303 -0.0243 -0.2958
    8DOPE  H13X 1015   4.184   0.071  15.444  0.3107 -0.0092 -0.3681
    8DOPE  H13Y 1016   4.295  -0.054  15.362 -0.1293 -2.0550 -1.7453
    8DOPE  C314 1017   4.114  -0.027  15.252 -0.7615 -0.2965 -0.1678
    8DOPE  H14X 1018   4.099  -0.135  15.232 -1.8034 -0.7507  2.6226
    8DOPE  H14Y 1019   4.178   0.017  15.172 -1.3079 -0.4589 -0.7062
    8DOPE  C315 1020   3.981   0.051  15.225  0.0932 -0.2275 -0.0955
    8DOPE  H15X 1021   3.986   0.160  15.244  1.7600 -0.0804 -1.1492
    8DOPE  H15Y 1022   3.895   0.011  15.283  0.2642 -0.4660 -0.0044
    8DOPE  C316 1023   3.938   0.033  15.071  0.2515  0.1227  0.3017
    8DOPE  H16X 1024   3.937  -0.077  15.053  1.2283  0.0300  0.7463
    8DOPE  H16Y 1025   4.025   0.053  15.004  0.8586 -1.7979  0.4365
    8DOPE  C317 1026   3.808   0.098  15.038 -0.7340  0.0735  0.0556
    8DOPE  H17X 1027   3.727   0.064  15.106  0.0285  0.1631  1.0226
    8DOPE  H17Y 1028   3.810   0.207  15.059 -1.6761  0.6015 -2.2820
    8DOPE  C318 1029   3.766   0.080  14.889  0.2872  0.4113 -0.4779
    8DOPE  H18X 1030   3.859   0.086  14.829  0.6620  0.7625  0.1262
    8DOPE  H18Y 1031   3.690   0.154  14.857 -0.4999  0.2866  0.9948
    8DOPE  H18Z 1032   3.729  -0.024  14.875  2.7739 -0.4142 -1.5061
    9DOPE     N 1033   1.196   5.494  17.596  0.7630 -0.2249  0.7893
    9DOPE   HN1 1034   1.284   5.478  17.542 -0.4181  0.4042 -1.4760
    9DOPE   HN2 1035   1.148   5.580  17.562 -3.0138 -2.0599  0.9932
    9DOPE   HN3 1036   1.224   5.508  17.695  2.3950 -0.7137  0.4169
    9DOPE   C12 1037   1.123   5.365  17.581  1.8088  1.5249 -0.5262
    9DOPE  H12A 1038   1.016   5.387  17.598  1.9337  2.2660 -0.6935
    9DOPE  H12B 1039   1.144   5.289  17.660 -0.3712  1.4797  0.0846
    9DOPE   C11 1040   1.128   5.318  17.436  0.0075 -0.4769 -0.4341
    9DOPE  H11A 1041   1.132   5.402  17.364 -0.1747 -0.2906 -0.2285
    9DOPE  H11B 1042   1.036   5.259  17.415 -1.4976  0.9428  1.7628
    9DOPE     P 1043   1.383   5.293  17.371 -0.3310 -0.0250 -0.1022
    9DOPE   O13 1044   1.498   5.208  17.416  0.8472  0.2505  0.2032
    9DOPE   O14 1045   1.385   5.435  17.418  0.0349  0.3589  0.0375
    9DOPE   O11 1046   1.381   5.290  17.217 -0.2004 -0.9510  0.5468
    9DOPE   O12 1047   1.247   5.237  17.426  0.5071  0.3803 -0.4184
    9DOPE    C1 1048   1.306   5.178  17.162 -0.5596 -0.1123 -0.0426
    9DOPE    HA 1049   1.199   5.209  17.170 -0.4060  0.3540  0.2399
    9DOPE    HB 1050   1.324   5.080  17.211  1.0643 -0.0872 -0.5405
    9DOPE    C2 1051   1.331   5.163  17.008  0.3229  0.3374 -0.0092
    9DOPE    HS 1052   1.277   5.070  16.981  0.4630  0.4851 -0.7985
    9DOPE   O21 1053   1.471   5.159  16.974  0.1722  0.3146  0.4483
    9DOPE   C21 1054   1.537   5.061  17.025  1.0850 -0.3195 -0.3956
    9DOPE   O22 1055   1.487   4.962  17.084  0.0900 -0.6450 -0.1814
    9DOPE   C22 1056   1.685   5.082  17.003  0.7022  0.0161  0.6926
    9DOPE   H2R 1057   1.734   4.992  17.048 -2.6183 -1.4832  1.6072
    9DOPE   H2S 1058   1.704   5.181  17.049  1.3287 -0.0556  0.5968
    9DOPE    C3 1059   1.274   5.274  16.920  0.4863  0.0142 -0.1081
    9DOPE    HX 1060   1.331   5.368  16.933  0.4797 -0.0239  0.1960
    9DOPE    HY 1061   1.177   5.308  16.962  0.6058 -0.3896  0.5048
    9DOPE   O31 1062   1.255   5.225  16.784  0.4586 -0.6709  0.1088
    9DOPE   C31 1063   1.333   5.283  16.691 -0.0003  0.7084 -0.5802
    9DOPE   O32 1064   1.413   5.369  16.713  0.2560 -0.6065  0.2156
    9DOPE   C32 1065   1.310   5.211  16.557 -0.5083  0.4984  0.0622
    9DOPE   H2X 1066   1.356   5.110  16.565  1.5533  1.4599  0.8517
    9DOPE   H2Y 1067   1.202   5.197  16.535 -0.3446  0.9160 -1.0777
    9DOPE   C23 1068   1.714   5.087  16.850 -0.3276  1.2940  0.0957
    9DOPE   H3R 1069   1.817   5.121  16.827  0.3255  0.4228  1.5825
    9DOPE   H3S 1070   1.652   5.166  16.803 -0.3476  1.0329 -0.3231
    9DOPE   C24 1071   1.686   4.948  16.778 -0.1769  0.0705 -0.0491
    9DOPE   H4R 1072   1.576   4.937  16.779 -0.3739  1.7063  0.1188
    9DOPE   H4S 1073   1.734   4.871  16.842  1.8013  0.4901 -0.9338
    9DOPE   C25 1074   1.739   4.941  16.634  0.5261  0.5427 -1.3259
    9DOPE   H5R 1075   1.848   4.963  16.637  0.4581  0.9662  2.5489
    9DOPE   H5S 1076   1.690   5.004  16.556  0.9066 -1.1342 -3.0084
    9DOPE   C26 1077   1.726   4.796  16.587 -0.5553 -0.0032 -0.5892
    9DOPE   H6R 1078   1.625   4.773  16.548 -0.7378 -0.1987 -0.0040
    9DOPE   H6S 1079   1.754   4.724  16.666 -2.2532  0.2440  0.2633
    9DOPE   C27 1080   1.822   4.771  16.477 -0.2270  0.1730  0.4470
    9DOPE   H7R 1081   1.817   4.663  16.453 -0.9019  0.8214 -2.8872
    9DOPE   H7S 1082   1.924   4.787  16.517 -1.2236  3.8499  1.9339
    9DOPE   C28 1083   1.806   4.854  16.347 -0.5852  0.9190 -0.7657
    9DOPE   H8R 1084   1.889   4.820  16.282  0.6040 -1.9158  1.9054
    9DOPE   H8S 1085   1.823   4.960  16.375 -0.0139  1.1244 -1.8764
    9DOPE   C29 1086   1.682   4.836  16.266  0.0775  0.9364 -0.1367
    9DOPE   H9R 1087   1.595   4.850  16.332 -1.5436  1.3704 -2.2574
    9DOPE  C210 1088   1.661   4.788  16.143 -0.9145  0.3622  0.0257
    9DOPE  H10R 1089   1.561   4.779  16.099 -1.2823 -1.5542  1.0975
    9DOPE  C211 1090   1.775   4.754  16.047 -0.4546  0.4279  0.3576
    9DOPE  H11R 1091   1.819   4.654  16.068 -0.0872  0.4417 -0.3019
    9DOPE  H11S 1092   1.850   4.836  16.056 -0.0018 -0.1225  1.9172
    9DOPE  C212 1093   1.726   4.760  15.905 -0.2318  0.0916  0.2514
    9DOPE  H12R 1094   1.670   4.855  15.893  0.5234  0.4893 -0.1886
    9DOPE  H12S 1095   1.664   4.671  15.883  0.5949 -0.5299  0.3774
    9DOPE  C213 1096   1.833   4.773  15.798 -0.3036 -0.6542 -0.1452
    9DOPE  H13R 1097   1.889   4.677  15.795 -0.3674 -0.8769  2.9935
    9DOPE  H13S 1098   1.895   4.857  15.836 -2.4095  0.2199  1.5108
    9DOPE  C214 1099   1.782   4.809  15.656  0.0466 -0.5100 -1.1020
    9DOPE  H14R 1100   1.705   4.887  15.671 -0.8303 -1.5909  0.3824
    9DOPE  H14S 1101   1.721   4.722  15.623 -2.4518  0.1737  1.3163
    9DOPE  C215 1102   1.886   4.864  15.567  0.2909 -0.1512  0.3053
    9DOPE  H15R 1103   1.970   4.794  15.547 -0.0388 -1.1906  2.2699
    9DOPE  H15S 1104   1.937   4.944  15.624  0.0364  0.3682 -0.1849
    9DOPE  C216 1105   1.839   4.931  15.434  0.3797 -0.6648  0.5142
    9DOPE  H16R 1106   1.826   5.035  15.470  0.2686 -0.9778  1.3865
    9DOPE  H16S 1107   1.733   4.899  15.421 -0.7120  2.8466 -0.3350
    9DOPE  C217 1108   1.935   4.889  15.319  0.0340 -0.0254 -0.4013
    9DOPE  H17R 1109   1.937   4.778  15.326  0.2980 -0.1326 -1.9230
    9DOPE  H17S 1110   2.031   4.939  15.344  0.0315  0.7047 -1.7487
    9DOPE  C218 1111   1.890   4.936  15.178  0.0449 -1.1174  0.4717
    9DOPE  H18R 1112   1.914   5.044  15.170  2.1364 -1.4713  1.2707
    9DOPE  H18S 1113   1.781   4.924  15.164 -0.1878 -0.7029  1.7740
    9DOPE  H18T 1114   1.943   4.876  15.101 -1.4189 -3.5578  1.2484
    9DOPE   C33 1115   1.350   5.295  16.440 -0.8877 -0.4342 -0.4443
    9DOPE   H3X 1116   1.455   5.330  16.445 -0.4792 -1.6573 -0.2667
    9DOPE   H3Y 1117   1.288   5.388  16.437 -1.1335 -0.6173 -3.4835
    9DOPE   C34 1118   1.328   5.229  16.305  0.2054 -0.2569 -0.5346
    9DOPE   H4X 1119   1.368   5.125  16.306 -4.6658 -2.4283 -1.9081
    9DOPE   H4Y 1120   1.217   5.219  16.304  0.0251  0.3199  2.5770
    9DOPE   C35 1121   1.376   5.320  16.193 -0.3963  0.2221  0.6684
    9DOPE   H5X 1122   1.483   5.348  16.202  0.2264 -1.3827 -1.0698
    9DOPE   H5Y 1123   1.323   5.417  16.204  0.1027  0.4597  1.0386
    9DOPE   C36 1124   1.336   5.261  16.048 -0.4212  0.0990 -0.1955
    9DOPE   H6X 1125   1.362   5.333  15.968 -0.7004  0.8274  0.3528
    9DOPE   H6Y 1126   1.226   5.250  16.049 -0.4909  0.1026  2.9004
    9DOPE   C37 1127   1.405   5.125  16.025  0.5853 -0.3225 -0.7750
    9DOPE   H7X 1128   1.513   5.129  16.049  0.5603 -0.6209 -0.6083
    9DOPE   H7Y 1129   1.360   5.050  16.092  2.5944 -1.3533 -0.5027
    9DOPE   C38 1130   1.399   5.069  15.879 -0.7037 -0.4523 -0.0577
    9DOPE   H8X 1131   1.451   4.971  15.885 -1.5526 -0.8337  1.3978
    9DOPE   H8Y 1132   1.461   5.141  15.822  1.0535 -3.1215 -1.7238
    9DOPE   C39 1133   1.262   5.050  15.828  1.0134  0.2082 -0.0452
    9DOPE   H9X 1134   1.215   4.955  15.858 -0.4483  0.2984 -1.9005
    9DOPE  C310 1135   1.194   5.124  15.740  1.0308 -0.2479  0.3424
    9DOPE  H10X 1136   1.095   5.089  15.709  1.2904 -2.0800  1.4332
    9DOPE  C311 1137   1.242   5.242  15.668  0.5409  0.7090  0.0932
    9DOPE  H11X 1138   1.188   5.337  15.685  1.9898  1.6443 -0.3217
    9DOPE  H11Y 1139   1.348   5.262  15.695  0.7085 -0.8763  0.6918
    9DOPE  C312 1140   1.244   5.211  15.517  0.5121 -0.6442  0.1439
    9DOPE  H12X 1141   1.253   5.311  15.470  0.6709 -2.0623 -3.1014
    9DOPE  H12Y 1142   1.146   5.169  15.485  1.3007 -0.4119 -2.9507
    9DOPE  C313 1143   1.359   5.120  15.478 -0.4099  0.4983  0.0536
    9DOPE  H13X 1144   1.449   5.143  15.539  0.1043 -0.5457 -0.2882
    9DOPE  H13Y 1145   1.313   5.023  15.504 -1.9275  1.1054 -0.2224
    9DOPE  C314 1146   1.389   5.131  15.332  0.1559 -0.1921 -0.1395
    9DOPE  H14X 1147   1.428   5.231  15.306  0.1645 -0.5864 -1.7577
    9DOPE  H14Y 1148   1.296   5.119  15.272  1.0443 -1.6979 -1.2867
    9DOPE  C315 1149   1.493   5.032  15.272  0.1688 -0.1524  0.3328
    9DOPE  H15X 1150   1.492   4.945  15.341  0.6141 -1.2345 -0.9931
    9DOPE  H15Y 1151   1.591   5.085  15.271  0.7975 -1.2826 -0.0392
    9DOPE  C316 1152   1.467   4.975  15.131 -0.5168  0.3613  0.6762
    9DOPE  H16X 1153   1.361   4.940  15.123 -0.5444 -0.0914  2.6212
    9DOPE  H16Y 1154   1.529   4.885  15.111 -0.1444  0.9817 -1.2128
    9DOPE  C317 1155   1.502   5.083  15.015 -0.0213  0.1100 -1.3058
    9DOPE  H17X 1156   1.440   5.168  15.049  2.5855  0.2455  4.0571
    9DOPE  H17Y 1157   1.612   5.101  15.011  0.3014 -1.6696 -1.0980
    9DOPE  C318 1158   1.456   5.026  14.890  0.2350 -0.8951  0.6455
    9DOPE  H18X 1159   1.498   5.094  14.813 -0.6336  2.0964  2.6295
    9DOPE  H18Y 1160   1.480   4.918  14.878  1.7891 -0.4458 -0.6562
    9DOPE  H18Z 1161   1.346   5.032  14.884  0.3122 -1.2448 -2.1586
   10DOPE     N 1162   1.724   0.348  17.355  0.0698 -0.1201 -0.3344
   10DOPE   HN1 1163   1.692   0.413  17.280 -0.8929 -1.0332 -0.7379
   10DOPE   HN2 1164   1.787   0.276  17.313 -1.0595 -0.6108 -1.2478
   10DOPE   HN3 1165   1.646   0.302  17.407  1.9388 -1.2539  1.6396
   10DOPE   C12 1166   1.809   0.438  17.445 -0.2609  0.2683  0.2975
   10DOPE  H12A 1167   1.764   0.426  17.546 -1.2871  1.2524 -0.0207
   10DOPE  H12B 1168   1.795   0.541  17.404 -0.5076  0.2634  0.3684
   10DOPE   C11 1169   1.966   0.394  17.441  0.1059  0.5614  0.4756
   10DOPE  H11A 1170   1.982   0.301  17.499  1.4954  0.4793  0.0034
   10DOPE  H11B 1171   2.022   0.470  17.499  0.9910 -0.0496  0.4439
   10DOPE     P 1172   2.162   0.408  17.277  0.6497  0.1468  0.1115
   10DOPE   O13 1173   2.243   0.293  17.316  0.5427 -0.3834 -0.6700
   10DOPE   O14 1174   2.205   0.542  17.309 -0.1166  0.3705 -0.2450
   10DOPE   O11 1175   2.154   0.398  17.114 -0.1750 -0.5726 -0.8443
   10DOPE   O12 1176   2.012   0.382  17.306  0.0132 -0.0829 -0.0047
   10DOPE    C1 1177   2.048   0.467  17.048  0.3116 -0.0372  0.1844
   10DOPE    HA 1178   2.076   0.574  17.035  1.2527 -0.3386 -0.2844
   10DOPE    HB 1179   1.953   0.463  17.106  0.9192  0.2426  1.2227
   10DOPE    C2 1180   2.029   0.402  16.903 -0.0281 -0.2604 -0.1159
   10DOPE    HS 1181   2.020   0.292  16.912  0.8320 -0.2416  1.1986
   10DOPE   O21 1182   2.137   0.456  16.815  0.0283 -0.2577  0.4277
   10DOPE   C21 1183   2.173   0.369  16.727 -0.0042  0.2742  0.2259
   10DOPE   O22 1184   2.137   0.252  16.728 -0.0672 -0.5691  0.3065
   10DOPE   C22 1185   2.257   0.430  16.614  0.3474 -0.1944 -0.8478
   10DOPE   H2R 1186   2.350   0.373  16.634 -0.2565  0.0815  3.6693
   10DOPE   H2S 1187   2.278   0.539  16.625  1.1078 -0.2969 -1.1678
   10DOPE    C3 1188   1.892   0.445  16.848  0.2093 -0.5112  0.0450
   10DOPE    HX 1189   1.902   0.556  16.853 -0.9157 -0.3956  0.0815
   10DOPE    HY 1190   1.810   0.427  16.921  0.4139  0.6951  0.5917
   10DOPE   O31 1191   1.856   0.405  16.716  0.5077  0.0863 -0.2200
   10DOPE   C31 1192   1.832   0.278  16.703 -0.1003  0.4755 -0.4845
   10DOPE   O32 1193   1.836   0.194  16.791  0.2000 -0.3936  0.3432
   10DOPE   C32 1194   1.780   0.248  16.561 -0.5402  0.2530 -0.2754
   10DOPE   H2X 1195   1.719   0.155  16.562  0.4660 -0.5475 -3.0403
   10DOPE   H2Y 1196   1.719   0.335  16.530  0.5866  0.7358 -1.2362
   10DOPE   C23 1197   2.219   0.380  16.477  0.8626 -0.0010  0.1284
   10DOPE   H3R 1198   2.114   0.413  16.463  0.7814  0.4639  1.6550
   10DOPE   H3S 1199   2.209   0.270  16.471  0.0737  0.1027 -0.6295
   10DOPE   C24 1200   2.314   0.431  16.364 -0.8064 -0.1698  0.1737
   10DOPE   H4R 1201   2.420   0.405  16.382  0.0746  2.5425 -0.6832
   10DOPE   H4S 1202   2.313   0.542  16.371  1.8409 -0.0896  0.3366
   10DOPE   C25 1203   2.266   0.391  16.224  0.2553  0.2566 -0.2180
   10DOPE   H5R 1204   2.164   0.435  16.218 -0.0135 -0.2965  0.1171
   10DOPE   H5S 1205   2.246   0.282  16.212  1.6312  0.0060 -0.4243
   10DOPE   C26 1206   2.349   0.451  16.112 -0.7916 -0.1718 -0.3196
   10DOPE   H6R 1207   2.447   0.400  16.110 -1.2828 -1.1327 -1.8653
   10DOPE   H6S 1208   2.375   0.558  16.128  0.2737 -0.4220 -0.3459
   10DOPE   C27 1209   2.279   0.435  15.979  0.3652  0.8615 -0.1949
   10DOPE   H7R 1210   2.180   0.482  15.996  0.3229  0.4123  0.8222
   10DOPE   H7S 1211   2.265   0.326  15.959 -0.1658  0.9698 -0.4529
   10DOPE   C28 1212   2.354   0.496  15.857  0.4507 -0.3266  0.4841
   10DOPE   H8R 1213   2.443   0.552  15.894 -0.5305  1.3643  0.3753
   10DOPE   H8S 1214   2.293   0.569  15.800 -0.3747 -1.8687 -0.6750
   10DOPE   C29 1215   2.400   0.394  15.753 -0.2219 -0.3462  0.1914
   10DOPE   H9R 1216   2.475   0.327  15.798  0.6039  0.8955  0.7297
   10DOPE  C210 1217   2.381   0.397  15.623  0.1592 -0.7048 -0.0292
   10DOPE  H10R 1218   2.412   0.308  15.566 -1.9751 -1.3816 -0.2227
   10DOPE  C211 1219   2.293   0.481  15.546  0.5063  0.2110 -0.0950
   10DOPE  H11R 1220   2.278   0.583  15.587  0.4537  0.6362 -1.1316
   10DOPE  H11S 1221   2.188   0.446  15.541  0.8194 -0.7595 -0.0350
   10DOPE  C212 1222   2.344   0.508  15.406  0.0432  0.0724  0.6299
   10DOPE  H12R 1223   2.446   0.551  15.406  0.3597 -0.5225 -2.0685
   10DOPE  H12S 1224   2.276   0.590  15.374 -1.0530 -0.6211  1.1001
   10DOPE  C213 1225   2.345   0.387  15.314 -0.0906  0.1254  0.0939
   10DOPE  H13R 1226   2.256   0.327  15.344  0.1709 -0.4958 -0.3394
   10DOPE  H13S 1227   2.438   0.331  15.336 -0.4132  0.2703  2.0712
   10DOPE  C214 1228   2.353   0.413  15.162  0.3050 -0.1666 -0.5901
   10DOPE  H14R 1229   2.448   0.469  15.151 -0.4106  0.9101 -1.4514
   10DOPE  H14S 1230   2.268   0.471  15.121  1.4426 -0.2536 -3.3464
   10DOPE  C215 1231   2.372   0.279  15.089  0.5753 -0.0049  0.0425
   10DOPE  H15R 1232   2.358   0.289  14.979 -1.4689 -1.5413  0.0957
   10DOPE  H15S 1233   2.279   0.223  15.112 -0.5898  1.0569 -1.8486
   10DOPE  C216 1234   2.493   0.205  15.123  0.5747  0.0958  0.7546
   10DOPE  H16R 1235   2.475   0.137  15.208 -0.5222 -1.0431 -0.3510
   10DOPE  H16S 1236   2.581   0.271  15.140  2.3762 -1.2825 -2.2561
   10DOPE  C217 1237   2.533   0.123  14.997  0.5568 -0.3236  0.4700
   10DOPE  H17R 1238   2.639   0.091  15.000  0.4761 -1.3135 -3.1257
   10DOPE  H17S 1239   2.523   0.184  14.905 -2.9010  2.1015  2.2172
   10DOPE  C218 1240   2.444  -0.006  14.977  0.2199  0.3543  0.2976
   10DOPE  H18R 1241   2.359  -0.017  15.046 -0.0045 -0.0735 -0.0434
   10DOPE  H18S 1242   2.503  -0.097  15.002 -1.8557 -2.0259 -2.7508
   10DOPE  H18T 1243   2.400  -0.029  14.877  0.0696 -0.7362  0.6079
   10DOPE   C33 1244   1.886   0.238  16.454 -0.9976 -0.0209  0.0706
   10DOPE   H3X 1245   1.968   0.167  16.475  0.2151  1.2605 -0.2450
   10DOPE   H3Y 1246   1.936   0.335  16.437  0.5654 -0.6321  0.9704
   10DOPE   C34 1247   1.826   0.198  16.323  0.6496 -0.7793  1.1327
   10DOPE   H4X 1248   1.801   0.090  16.328  0.4409 -0.7817  0.2584
   10DOPE   H4Y 1249   1.724   0.234  16.296  0.3266 -2.3838  0.0400
   10DOPE   C35 1250   1.926   0.218  16.210  0.6259 -0.2101 -0.3441
   10DOPE   H5X 1251   2.021   0.171  16.244 -1.3201 -2.8622  1.9154
   10DOPE   H5Y 1252   1.940   0.328  16.201  0.7768 -0.3065 -1.4198
   10DOPE   C36 1253   1.890   0.157  16.080  0.0241  0.0559  0.5034
   10DOPE   H6X 1254   1.785   0.173  16.045  0.9566 -1.6901 -3.6668
   10DOPE   H6Y 1255   1.893   0.047  16.093 -1.5243 -0.0292  0.3725
   10DOPE   C37 1256   1.994   0.197  15.973 -0.1771 -0.2694 -0.0898
   10DOPE   H7X 1257   1.971   0.295  15.925 -1.3267  0.6540  2.1928
   10DOPE   H7Y 1258   2.093   0.202  16.023  0.6864  0.3535 -1.7692
   10DOPE   C38 1259   1.989   0.091  15.856 -0.0904 -0.3406 -0.0066
   10DOPE   H8X 1260   1.885   0.097  15.816  0.0465  4.2480 -0.1376
   10DOPE   H8Y 1261   2.004  -0.012  15.896 -0.2861 -0.0122  0.9660
   10DOPE   C39 1262   2.085   0.131  15.747  0.0256 -0.4140 -0.3265
   10DOPE   H9X 1263   2.194   0.122  15.756  0.2386  2.1958  0.3095
   10DOPE  C310 1264   2.048   0.207  15.640 -0.1087  0.5152  1.0124
   10DOPE  H10X 1265   2.127   0.230  15.567  3.1210 -1.0034  3.7799
   10DOPE  C311 1266   1.911   0.256  15.606 -0.1906 -0.6020  0.9709
   10DOPE  H11X 1267   1.849   0.178  15.558  2.0006 -1.6794 -0.2363
   10DOPE  H11Y 1268   1.857   0.293  15.696 -0.1183 -0.4864  0.9683
   10DOPE  C312 1269   1.912   0.368  15.503 -0.3040 -0.1111  0.5849
   10DOPE  H12X 1270   1.983   0.446  15.540 -0.4168 -1.0605  2.9450
   10DOPE  H12Y 1271   1.808   0.408  15.503  0.6574  2.6228  1.0889
   10DOPE  C313 1272   1.932   0.321  15.358  0.0832  0.0593  0.2277
   10DOPE  H13X 1273   2.030   0.270  15.343 -0.3673 -1.1486  1.2866
   10DOPE  H13Y 1274   1.855   0.246  15.332 -0.9769  1.4024 -0.6373
   10DOPE  C314 1275   1.927   0.429  15.249 -0.0799 -0.8507 -0.2411
   10DOPE  H14X 1276   2.019   0.492  15.256  0.7457 -2.1640  1.6341
   10DOPE  H14Y 1277   1.834   0.487  15.262 -0.2667 -0.7017 -2.0503
   10DOPE  C315 1278   1.921   0.382  15.100 -0.3217  0.6328 -0.3476
   10DOPE  H15X 1279   1.847   0.299  15.098 -1.5825  1.7062 -2.5109
   10DOPE  H15Y 1280   2.018   0.335  15.078 -1.7205 -1.5743 -2.2302
   10DOPE  C316 1281   1.882   0.490  15.001 -0.3183  0.0326 -0.1563
   10DOPE  H16X 1282   1.775   0.515  15.016 -0.8629 -1.4241 -1.4391
   10DOPE  H16Y 1283   1.885   0.446  14.899  0.9610 -1.3052  0.4324
   10DOPE  C317 1284   1.962   0.622  15.015  0.2212  0.7917  0.0462
   10DOPE  H17X 1285   1.934   0.655  15.118  0.1554 -1.8543  0.9705
   10DOPE  H17Y 1286   2.070   0.597  15.015  0.8624  3.0560  2.3462
   10DOPE  C318 1287   1.925   0.730  14.909 -0.2592 -0.5519  0.8270
   10DOPE  H18X 1288   1.822   0.774  14.908 -0.3919 -0.6931 -2.5146
   10DOPE  H18Y 1289   1.998   0.812  14.926  0.1462 -0.7185 -0.0658
   10DOPE  H18Z 1290   1.953   0.705  14.804  1.0865  1.2564  0.6984
   11DOPE     N 1291   0.637   4.817  18.091  0.2283 -0.5012  0.2766
   11DOPE   HN1 1292   0.586   4.844  18.177  2.9879 -0.0709  1.9162
   11DOPE   HN2 1293   0.701   4.741  18.123  0.5510  0.3631  1.7938
   11DOPE   HN3 1294   0.698   4.896  18.061  2.6042 -2.0248  0.8075
   11DOPE   C12 1295   0.550   4.778  17.974  0.2102  1.1284 -0.2888
   11DOPE  H12A 1296   0.509   4.678  18.000  2.2813 -0.0267 -1.1890
   11DOPE  H12B 1297   0.626   4.758  17.895  1.7325 -0.7485  1.5299
   11DOPE   C11 1298   0.441   4.874  17.921 -0.1570 -0.6751 -0.1316
   11DOPE  H11A 1299   0.382   4.925  18.000 -0.9005 -1.8037  0.0526
   11DOPE  H11B 1300   0.376   4.802  17.866 -0.8149 -1.6063  1.7761
   11DOPE     P 1301   0.470   4.998  17.692  0.0861  0.5600  0.2389
   11DOPE   O13 1302   0.569   5.089  17.635  0.5085  0.2098  0.4862
   11DOPE   O14 1303   0.329   5.028  17.666  0.0075 -0.3253 -0.1170
   11DOPE   O11 1304   0.491   4.845  17.630 -0.1599  0.4581 -0.5701
   11DOPE   O12 1305   0.501   4.972  17.840  0.1980  0.0666 -0.3768
   11DOPE    C1 1306   0.612   4.826  17.557  0.0793  0.1612  0.2239
   11DOPE    HA 1307   0.664   4.730  17.579  0.4085  0.6432  1.6641
   11DOPE    HB 1308   0.697   4.896  17.573 -0.3317  0.3323  1.8421
   11DOPE    C2 1309   0.588   4.826  17.402  0.3095  0.0474 -0.3296
   11DOPE    HS 1310   0.576   4.935  17.384  1.3350 -0.1381 -2.4428
   11DOPE   O21 1311   0.472   4.747  17.381 -0.0325 -0.3177 -0.1634
   11DOPE   C21 1312   0.385   4.803  17.296 -0.2857 -0.5108  0.3082
   11DOPE   O22 1313   0.380   4.921  17.258  0.7557 -0.2843 -0.1731
   11DOPE   C22 1314   0.287   4.692  17.255 -0.3662  0.2001  0.0507
   11DOPE   H2R 1315   0.187   4.741  17.250  0.1682  1.2293 -0.8428
   11DOPE   H2S 1316   0.299   4.621  17.340 -1.0853 -0.7410 -0.6090
   11DOPE    C3 1317   0.710   4.785  17.314  0.7654 -0.5215  0.1643
   11DOPE    HX 1318   0.735   4.678  17.331 -0.1704 -0.8808 -0.6331
   11DOPE    HY 1319   0.798   4.848  17.337  0.6477 -0.3880  0.2517
   11DOPE   O31 1320   0.668   4.802  17.174 -0.0368  0.6198  0.2407
   11DOPE   C31 1321   0.701   4.917  17.108  0.8302 -0.3112 -0.5305
   11DOPE   O32 1322   0.762   5.013  17.150 -0.0382  0.0626  0.0471
   11DOPE   C32 1323   0.633   4.918  16.968  0.1517 -0.1133  0.1236
   11DOPE   H2X 1324   0.543   4.854  16.972 -0.7686  1.1594  0.5569
   11DOPE   H2Y 1325   0.587   5.018  16.951  0.2342 -0.0441  0.3002
   11DOPE   C23 1326   0.325   4.614  17.126 -0.0300  0.2067 -0.4360
   11DOPE   H3R 1327   0.291   4.508  17.133  1.2006 -0.0775  2.8443
   11DOPE   H3S 1328   0.433   4.608  17.101  0.2251 -1.1568  0.8496
   11DOPE   C24 1329   0.270   4.673  16.995  0.1097 -0.0065 -0.2118
   11DOPE   H4R 1330   0.270   4.784  16.993  2.2238  0.1143  1.9415
   11DOPE   H4S 1331   0.164   4.642  16.994  0.4267 -1.1488  0.1753
   11DOPE   C25 1332   0.332   4.621  16.862 -0.0812  0.8821  0.0186
   11DOPE   H5R 1333   0.346   4.512  16.871  0.1527  0.9822  0.9799
   11DOPE   H5S 1334   0.434   4.665  16.853 -0.3684  1.2419 -2.2501
   11DOPE   C26 1335   0.258   4.666  16.738  0.1205 -0.1856 -0.2728
   11DOPE   H6R 1336   0.259   4.776  16.745 -0.3400 -0.2061  0.1385
   11DOPE   H6S 1337   0.153   4.638  16.712 -0.5101  2.1873 -0.4478
   11DOPE   C27 1338   0.347   4.626  16.612 -0.5406 -0.5142 -0.7055
   11DOPE   H7R 1339   0.340   4.516  16.601  0.4734 -0.7745  0.8999
   11DOPE   H7S 1340   0.453   4.637  16.641 -0.5974  0.5987 -0.8734
   11DOPE   C28 1341   0.318   4.686  16.477  0.3350 -1.0692 -0.2033
   11DOPE   H8R 1342   0.419   4.694  16.432  0.8066 -0.7424  0.8741
   11DOPE   H8S 1343   0.284   4.792  16.483 -0.2486 -1.2870  0.6102
   11DOPE   C29 1344   0.222   4.608  16.394 -0.1273  0.1846 -0.9875
   11DOPE   H9R 1345   0.140   4.568  16.456  2.0009 -2.1097  0.5205
   11DOPE  C210 1346   0.236   4.558  16.272 -0.5295  0.2495  0.1203
   11DOPE  H10R 1347   0.164   4.487  16.230  1.0993 -2.2826  1.3937
   11DOPE  C211 1348   0.351   4.587  16.182  0.4923 -0.0263  0.1920
   11DOPE  H11R 1349   0.434   4.640  16.234  0.2731  0.2638  0.2447
   11DOPE  H11S 1350   0.328   4.664  16.105  2.5910 -1.2821 -1.8410
   11DOPE  C212 1351   0.414   4.470  16.103 -0.0403 -0.1738 -0.0866
   11DOPE  H12R 1352   0.343   4.403  16.051  2.7728 -1.4824 -2.5191
   11DOPE  H12S 1353   0.478   4.403  16.164 -0.1582  0.1920  0.4504
   11DOPE  C213 1354   0.513   4.517  15.991 -0.4872 -0.2312 -0.0943
   11DOPE  H13R 1355   0.590   4.582  16.038 -3.3377  1.2498  2.9768
   11DOPE  H13S 1356   0.456   4.592  15.933 -0.5944 -1.6000 -1.8277
   11DOPE  C214 1357   0.571   4.412  15.891  0.1278  0.1245 -0.3867
   11DOPE  H14R 1358   0.496   4.332  15.870  0.6630 -0.6269  0.4639
   11DOPE  H14S 1359   0.655   4.356  15.939 -0.1147  0.5689  0.5710
   11DOPE  C215 1360   0.622   4.480  15.764  0.6157  0.3004  0.1929
   11DOPE  H15R 1361   0.685   4.408  15.708  0.6673 -0.8497  1.6723
   11DOPE  H15S 1362   0.686   4.569  15.781  1.6730 -0.2548 -0.7909
   11DOPE  C216 1363   0.504   4.508  15.666  0.3602 -0.3251  0.6143
   11DOPE  H16R 1364   0.429   4.574  15.714  1.1367  1.6710 -0.7351
   11DOPE  H16S 1365   0.448   4.421  15.626  0.4724  0.1562 -0.6500
   11DOPE  C217 1366   0.534   4.603  15.549 -0.3199  0.7052  0.1446
   11DOPE  H17R 1367   0.561   4.704  15.586 -1.9305  1.6745 -1.1733
   11DOPE  H17S 1368   0.445   4.613  15.483  0.0419 -0.7114 -0.5869
   11DOPE  C218 1369   0.640   4.548  15.453  0.1684 -0.6349  0.3351
   11DOPE  H18R 1370   0.669   4.607  15.363  0.8557 -0.7884  0.4484
   11DOPE  H18S 1371   0.597   4.470  15.387 -0.5999 -0.6388  0.8296
   11DOPE  H18T 1372   0.732   4.512  15.503  0.2739 -0.7154  0.0812
   11DOPE   C33 1373   0.724   4.871  16.856 -0.7875 -0.0022  0.2227
   11DOPE   H3X 1374   0.674   4.897  16.760  0.4619 -0.4108 -0.5754
   11DOPE   H3Y 1375   0.754   4.765  16.862  0.3905  0.3744  2.0399
   11DOPE   C34 1376   0.866   4.943  16.845  0.4452 -0.0107  0.3983
   11DOPE   H4X 1377   0.843   5.051  16.841  2.0231  0.3031 -1.7126
   11DOPE   H4Y 1378   0.924   4.912  16.935  0.4429  0.5799  0.6109
   11DOPE   C35 1379   0.938   4.903  16.716 -0.0818  0.7662 -0.4088
   11DOPE   H5X 1380   0.947   4.792  16.711 -0.4656  0.6153  1.4810
   11DOPE   H5Y 1381   1.034   4.958  16.714 -0.3460  1.2325 -0.3419
   11DOPE   C36 1382   0.881   4.944  16.572  0.9017 -0.6984  0.4994
   11DOPE   H6X 1383   0.851   5.050  16.587 -1.4586 -1.2244  0.0151
   11DOPE   H6Y 1384   0.792   4.886  16.539  2.2884 -0.8589 -3.5514
   11DOPE   C37 1385   0.995   4.939  16.466  0.5412  1.1154  0.1917
   11DOPE   H7X 1386   1.050   5.036  16.468 -0.8246  1.9143  0.3607
   11DOPE   H7Y 1387   1.077   4.866  16.481  0.5716  0.9675 -0.6472
   11DOPE   C38 1388   0.924   4.933  16.333 -0.1288  1.0295 -0.0130
   11DOPE   H8X 1389   0.844   5.008  16.313 -0.8937  0.0233 -0.8115
   11DOPE   H8Y 1390   0.867   4.839  16.341 -1.4100  1.7669 -0.1861
   11DOPE   C39 1391   1.022   4.944  16.218 -0.1093 -0.3462  0.2277
   11DOPE   H9X 1392   1.105   5.014  16.232  1.0060 -1.0109 -2.3147
   11DOPE  C310 1393   1.014   4.891  16.094  0.0193  0.4899  0.1229
   11DOPE  H10X 1394   1.093   4.903  16.019 -1.1605  1.4257 -1.0148
   11DOPE  C311 1395   0.895   4.802  16.052 -0.6769  0.2094 -0.3724
   11DOPE  H11X 1396   0.935   4.699  16.037 -0.8964  0.4734 -3.5027
   11DOPE  H11Y 1397   0.815   4.790  16.128  0.8785 -2.3547  1.0428
   11DOPE  C312 1398   0.828   4.842  15.921  0.6423  0.1317 -0.8781
   11DOPE  H12X 1399   0.780   4.940  15.937 -1.6795 -1.1182  0.3118
   11DOPE  H12Y 1400   0.752   4.764  15.897  1.5643 -0.5805 -1.5702
   11DOPE  C313 1401   0.915   4.836  15.796  0.3658 -0.4751  0.4437
   11DOPE  H13X 1402   0.987   4.921  15.802 -1.6930  1.2797  1.7860
   11DOPE  H13Y 1403   0.974   4.742  15.789  2.1014  0.6164 -0.4306
   11DOPE  C314 1404   0.829   4.871  15.670 -1.1187  0.0637  0.1438
   11DOPE  H14X 1405   0.789   4.974  15.679  3.1090  1.8594  0.6919
   11DOPE  H14Y 1406   0.750   4.793  15.660 -0.9903 -0.2791  1.5543
   11DOPE  C315 1407   0.918   4.870  15.538 -0.3974 -0.1597 -0.6982
   11DOPE  H15X 1408   0.975   4.775  15.545 -1.0740 -0.4936  0.5577
   11DOPE  H15Y 1409   0.983   4.959  15.522  0.1120 -0.5333 -0.7300
   11DOPE  C316 1410   0.823   4.866  15.416  0.5165 -0.6526  0.1177
   11DOPE  H16X 1411   0.772   4.964  15.425 -0.8168 -1.2621 -0.4358
   11DOPE  H16Y 1412   0.736   4.801  15.441 -1.3409  1.5328 -0.3075
   11DOPE  C317 1413   0.871   4.842  15.269 -0.3605 -0.0657 -1.0215
   11DOPE  H17X 1414   0.904   4.736  15.268 -0.4270 -0.0865 -1.7673
   11DOPE  H17Y 1415   0.795   4.843  15.189 -1.5467  0.4036  0.0799
   11DOPE  C318 1416   0.988   4.934  15.218  0.2629 -0.4233 -1.0352
   11DOPE  H18X 1417   1.082   4.907  15.270 -1.0327  1.5627  2.7404
   11DOPE  H18Y 1418   1.017   4.933  15.111  3.5897 -1.0972 -0.2515
   11DOPE  H18Z 1419   0.974   5.042  15.241  0.6535 -0.2047 -1.8032
   12DOPE     N 1420   3.185   0.884  17.010 -0.0487 -0.3026  0.1951
   12DOPE   HN1 1421   3.267   0.947  17.022  1.6188 -2.1381 -0.9487
   12DOPE   HN2 1422   3.167   0.869  16.908  1.5469 -0.8675 -0.0405
   12DOPE   HN3 1423   3.108   0.936  17.056  0.9568  0.9413  0.5477
   12DOPE   C12 1424   3.206   0.751  17.080 -0.0659  0.5304 -0.1445
   12DOPE  H12A 1425   3.118   0.686  17.061 -0.3060  0.8204 -0.0143
   12DOPE  H12B 1426   3.213   0.777  17.187 -4.2040 -0.0862  0.4194
   12DOPE   C11 1427   3.342   0.699  17.025  0.4000 -0.0769  0.6578
   12DOPE  H11A 1428   3.421   0.776  17.030  0.4073  0.3201 -3.0767
   12DOPE  H11B 1429   3.338   0.677  16.916  1.6228 -0.0857  0.6019
   12DOPE     P 1430   3.338   0.440  17.090  0.1689 -0.0641  0.1026
   12DOPE   O13 1431   3.270   0.413  17.221 -0.3901  0.1526  0.9404
   12DOPE   O14 1432   3.451   0.353  17.059  0.0019 -0.3075 -0.0463
   12DOPE   O11 1433   3.233   0.445  16.973 -0.0527  0.4469 -0.0393
   12DOPE   O12 1434   3.389   0.584  17.094 -0.5836  0.0758  0.0140
   12DOPE    C1 1435   3.260   0.369  16.857 -0.9052 -0.3369  0.1226
   12DOPE    HA 1436   3.265   0.261  16.885 -1.6639 -0.4250 -0.0807
   12DOPE    HB 1437   3.355   0.395  16.805 -0.6333  0.7551  1.1316
   12DOPE    C2 1438   3.141   0.391  16.771 -0.9614 -0.3227  0.5251
   12DOPE    HS 1439   3.113   0.299  16.715  0.4648  0.1816 -1.0842
   12DOPE   O21 1440   3.163   0.503  16.682  0.4963 -0.5414 -0.2618
   12DOPE   C21 1441   3.217   0.468  16.560  1.2402  0.2701  0.2143
   12DOPE   O22 1442   3.242   0.353  16.523  0.0590 -0.1796  0.0368
   12DOPE   C22 1443   3.230   0.596  16.488 -0.5036 -0.1535  0.6681
   12DOPE   H2R 1444   3.294   0.653  16.559 -0.0615  0.8066 -0.4585
   12DOPE   H2S 1445   3.131   0.647  16.482 -0.0885  0.8832  2.1556
   12DOPE    C3 1446   3.013   0.405  16.857 -0.5257  0.5934 -0.6038
   12DOPE    HX 1447   3.019   0.501  16.914  2.6010  0.0062  0.2467
   12DOPE    HY 1448   3.014   0.320  16.929  1.3996 -3.2264 -4.6599
   12DOPE   O31 1449   2.898   0.389  16.769  0.4503  0.6677  0.3799
   12DOPE   C31 1450   2.845   0.504  16.738  0.8992 -0.9105  0.2096
   12DOPE   O32 1451   2.897   0.612  16.752  0.4067  0.1069  0.2982
   12DOPE   C32 1452   2.720   0.473  16.654  0.7574  0.5976 -0.9165
   12DOPE   H2X 1453   2.716   0.370  16.613  0.5429  0.6129 -0.9369
   12DOPE   H2Y 1454   2.629   0.489  16.716  1.5024 -0.9085  0.6655
   12DOPE   C23 1455   3.302   0.582  16.349  0.2030  0.1156 -0.0071
   12DOPE   H3R 1456   3.395   0.525  16.370 -1.2989 -2.3797  0.2919
   12DOPE   H3S 1457   3.327   0.686  16.320 -0.7417  0.4314  0.2672
   12DOPE   C24 1458   3.203   0.534  16.237  0.4366 -0.4047  0.4897
   12DOPE   H4R 1459   3.110   0.594  16.233 -0.7988 -2.2674 -0.0441
   12DOPE   H4S 1460   3.178   0.430  16.268 -2.6609  0.4840  1.2732
   12DOPE   C25 1461   3.266   0.533  16.096  0.3278 -0.0827 -0.7868
   12DOPE   H5R 1462   3.354   0.465  16.093 -0.2868 -0.8553 -2.2732
   12DOPE   H5S 1463   3.301   0.633  16.061  1.7063 -0.7099 -1.3014
   12DOPE   C26 1464   3.173   0.489  15.986  0.6804  0.4144  0.5685
   12DOPE   H6R 1465   3.108   0.578  15.968 -0.5113  0.2732  3.4538
   12DOPE   H6S 1466   3.101   0.414  16.026 -1.6154  1.9203 -0.4927
   12DOPE   C27 1467   3.250   0.433  15.866  0.5069  0.6626  0.2923
   12DOPE   H7R 1468   3.278   0.327  15.886 -0.8245  0.1203 -0.5561
   12DOPE   H7S 1469   3.341   0.493  15.847  0.9249 -0.3233 -0.9452
   12DOPE   C28 1470   3.170   0.420  15.735 -0.1570 -0.2342 -0.0739
   12DOPE   H8R 1471   3.148   0.529  15.725  1.6934  0.2643  0.8837
   12DOPE   H8S 1472   3.071   0.373  15.748 -1.2667  1.2370 -2.4248
   12DOPE   C29 1473   3.244   0.365  15.618 -0.4036  0.3479 -0.5317
   12DOPE   H9R 1474   3.266   0.258  15.622  1.4440  0.5883 -2.3817
   12DOPE  C210 1475   3.280   0.438  15.514  0.6229 -0.5706  0.1065
   12DOPE  H10R 1476   3.350   0.387  15.445 -0.0235 -0.2891 -0.7809
   12DOPE  C211 1477   3.259   0.584  15.491  0.4987  0.0143  0.0740
   12DOPE  H11R 1478   3.347   0.632  15.444  0.4696 -0.6141 -0.6490
   12DOPE  H11S 1479   3.249   0.645  15.583 -0.4827 -0.4843  0.3132
   12DOPE  C212 1480   3.138   0.610  15.401 -0.2441  0.0490  0.1004
   12DOPE  H12R 1481   3.123   0.720  15.399  1.4104  0.3316  1.3499
   12DOPE  H12S 1482   3.043   0.568  15.441  0.5941  0.6503  2.9040
   12DOPE  C213 1483   3.159   0.554  15.257  0.7764 -0.0037 -0.1147
   12DOPE  H13R 1484   3.188   0.448  15.272 -1.0795 -0.4970  0.2937
   12DOPE  H13S 1485   3.238   0.610  15.204 -0.4728  2.2420  0.2838
   12DOPE  C214 1486   3.027   0.541  15.180 -0.3629 -0.2423 -0.4793
   12DOPE  H14R 1487   3.004   0.644  15.146 -1.7605 -0.0420  0.9528
   12DOPE  H14S 1488   2.942   0.500  15.238 -0.6072  2.0562  0.8793
   12DOPE  C215 1489   3.033   0.447  15.060 -0.4432 -0.5522  0.1331
   12DOPE  H15R 1490   3.051   0.342  15.092 -1.2351 -0.4730  0.8708
   12DOPE  H15S 1491   3.111   0.479  14.987 -1.6477  0.6256 -0.6721
   12DOPE  C216 1492   2.902   0.441  14.980  0.7156  0.2611  0.4886
   12DOPE  H16R 1493   2.864   0.543  14.959  0.9770  0.1932 -0.3323
   12DOPE  H16S 1494   2.823   0.380  15.028  1.3192 -2.7681 -2.1010
   12DOPE  C217 1495   2.921   0.378  14.837 -0.0404 -0.7647 -0.6351
   12DOPE  H17R 1496   2.975   0.283  14.856  0.3710 -0.2620  0.8496
   12DOPE  H17S 1497   2.971   0.441  14.761  1.3287 -3.0210 -1.6928
   12DOPE  C218 1498   2.779   0.341  14.779 -0.8552  0.0916 -0.1086
   12DOPE  H18R 1499   2.710   0.424  14.803 -0.6634  0.2620 -0.1398
   12DOPE  H18S 1500   2.735   0.254  14.831 -0.7953 -2.2616 -3.6458
   12DOPE  H18T 1501   2.777   0.321  14.670  1.4847 -0.1843 -0.1690
   12DOPE   C33 1502   2.710   0.581  16.538 -0.0499  0.0724  0.1615
   12DOPE   H3X 1503   2.720   0.688  16.565  0.5075 -0.3484  1.7408
   12DOPE   H3Y 1504   2.604   0.560  16.512  0.3758 -2.0147 -0.0970
   12DOPE   C34 1505   2.785   0.526  16.409 -0.0858  0.0628 -0.0288
   12DOPE   H4X 1506   2.876   0.589  16.409 -0.6361  0.8652 -0.3045
   12DOPE   H4Y 1507   2.815   0.419  16.402  2.1642  0.6982 -0.8914
   12DOPE   C35 1508   2.718   0.561  16.282  0.4359  0.0768  0.2534
   12DOPE   H5X 1509   2.655   0.651  16.294  0.9838  1.0256 -2.9040
   12DOPE   H5Y 1510   2.643   0.479  16.269  0.2283  0.1632  0.8941
   12DOPE   C36 1511   2.811   0.569  16.164  0.3086 -0.1556 -0.0111
   12DOPE   H6X 1512   2.874   0.478  16.159 -2.5297 -2.2496 -0.7789
   12DOPE   H6Y 1513   2.867   0.664  16.177 -0.4938  0.2708  0.4315
   12DOPE   C37 1514   2.735   0.574  16.027  0.0995  0.3032  0.4152
   12DOPE   H7X 1515   2.699   0.470  16.012 -0.4646  0.1514  2.5311
   12DOPE   H7Y 1516   2.651   0.644  16.047 -0.4561 -1.3613  5.3052
   12DOPE   C38 1517   2.832   0.609  15.907 -0.1955  0.0787 -0.3848
   12DOPE   H8X 1518   2.890   0.518  15.884 -0.9500  0.1063 -2.6139
   12DOPE   H8Y 1519   2.896   0.696  15.934  2.4969 -1.8021 -0.3611
   12DOPE   C39 1520   2.740   0.654  15.794  0.3747  0.0413  0.1870
   12DOPE   H9X 1521   2.692   0.752  15.811 -0.5097 -0.5769  1.3717
   12DOPE  C310 1522   2.709   0.576  15.688 -0.2893  0.0153  0.7141
   12DOPE  H10X 1523   2.625   0.593  15.619  0.5698 -0.5711 -0.5311
   12DOPE  C311 1524   2.762   0.437  15.663 -0.4998 -0.2558  0.2634
   12DOPE  H11X 1525   2.867   0.428  15.699 -0.7436 -1.3751  0.7345
   12DOPE  H11Y 1526   2.706   0.354  15.711  1.4998 -1.7440  0.1684
   12DOPE  C312 1527   2.759   0.406  15.513 -0.2167 -0.7532 -0.4169
   12DOPE  H12X 1528   2.810   0.494  15.471 -3.7862  2.5497  1.5292
   12DOPE  H12Y 1529   2.658   0.412  15.466 -0.7470  1.9573  0.8520
   12DOPE  C313 1530   2.845   0.285  15.477 -0.7679  0.0159  0.1216
   12DOPE  H13X 1531   2.950   0.321  15.482  0.0591 -1.9501 -1.6123
   12DOPE  H13Y 1532   2.830   0.198  15.546 -0.8207  0.1340  0.2603
   12DOPE  C314 1533   2.816   0.238  15.332  0.3733 -0.6443  0.2079
   12DOPE  H14X 1534   2.832   0.326  15.266 -1.0615  0.2583  1.0125
   12DOPE  H14Y 1535   2.710   0.205  15.321 -0.0930  0.0411  2.1892
   12DOPE  C315 1536   2.919   0.135  15.299  0.2105 -0.3068 -0.3040
   12DOPE  H15X 1537   2.938   0.067  15.385 -2.8952 -1.6450 -0.5394
   12DOPE  H15Y 1538   3.014   0.191  15.285 -0.5379  1.2345  0.5189
   12DOPE  C316 1539   2.891   0.052  15.170 -0.1610 -0.4142  0.2296
   12DOPE  H16X 1540   2.983  -0.005  15.144  0.8289  1.5647 -0.7904
   12DOPE  H16Y 1541   2.854   0.116  15.086  0.5983  0.3287  0.4536
   12DOPE  C317 1542   2.788  -0.054  15.195  0.4579  0.4154 -0.0855
   12DOPE  H17X 1543   2.697  -0.001  15.232  0.4854  0.1584  0.3680
   12DOPE  H17Y 1544   2.757  -0.080  15.092 -1.1938  1.0482  0.2057
   12DOPE  C318 1545   2.817  -0.170  15.286 -0.4836 -0.2867 -0.1712
   12DOPE  H18X 1546   2.925  -0.197  15.276  0.1638  2.7200 -5.3809
   12DOPE  H18Y 1547   2.807  -0.148  15.394 -2.1307 -1.9861  0.0563
   12DOPE  H18Z 1548   2.748  -0.256  15.274 -0.5685 -0.4868  1.5494
   13DOPE     N 1549   1.884   2.713  18.229  0.2884  0.3429 -0.0521
   13DOPE   HN1 1550   1.894   2.610  18.216 -2.0414 -0.0447  0.5829
   13DOPE   HN2 1551   1.970   2.752  18.272  2.7122 -3.2854 -1.1546
   13DOPE   HN3 1552   1.795   2.719  18.284  1.2174 -1.5323  1.8312
   13DOPE   C12 1553   1.844   2.770  18.092 -0.1153  0.5726 -0.6695
   13DOPE  H12A 1554   1.914   2.722  18.021 -0.9151 -0.6156 -0.6913
   13DOPE  H12B 1555   1.855   2.880  18.097 -1.8256  0.7392  0.3679
   13DOPE   C11 1556   1.695   2.729  18.058 -0.2488 -0.2118  0.3166
   13DOPE  H11A 1557   1.622   2.783  18.122 -0.7722  3.3122 -2.8779
   13DOPE  H11B 1558   1.679   2.621  18.078 -0.8754 -0.2127 -0.1631
   13DOPE     P 1559   1.541   2.789  17.855 -0.5786 -0.0425 -0.3679
   13DOPE   O13 1560   1.461   2.866  17.947 -0.0913 -0.4520  0.4811
   13DOPE   O14 1561   1.478   2.661  17.816 -0.3871  0.2458 -0.4404
   13DOPE   O11 1562   1.570   2.858  17.715  0.0732 -0.1423  0.1421
   13DOPE   O12 1563   1.680   2.750  17.917  0.2379  0.2544  0.4318
   13DOPE    C1 1564   1.669   2.807  17.619 -0.2547 -0.1634 -0.5563
   13DOPE    HA 1565   1.663   2.698  17.598  2.1416 -0.4304 -0.0483
   13DOPE    HB 1566   1.771   2.815  17.662 -0.4700 -1.9585  0.4047
   13DOPE    C2 1567   1.653   2.875  17.478  1.1421 -0.2513 -0.5320
   13DOPE    HS 1568   1.645   2.983  17.503 -1.5810 -0.1531 -1.4899
   13DOPE   O21 1569   1.527   2.823  17.412 -0.2247 -0.2376 -0.8015
   13DOPE   C21 1570   1.470   2.911  17.331  0.4151 -0.7045  0.0124
   13DOPE   O22 1571   1.493   3.029  17.327  0.0256  0.4150 -0.2977
   13DOPE   C22 1572   1.347   2.851  17.258 -1.1396  0.3212  0.1817
   13DOPE   H2R 1573   1.263   2.848  17.332 -0.5713  0.2548  0.8367
   13DOPE   H2S 1574   1.370   2.746  17.233  2.4116  0.5940  1.6103
   13DOPE    C3 1575   1.778   2.849  17.389  0.1107 -0.0093 -0.2080
   13DOPE    HX 1576   1.808   2.742  17.385  1.6296  0.3921 -0.0334
   13DOPE    HY 1577   1.859   2.913  17.430  1.9332 -1.5092 -1.2823
   13DOPE   O31 1578   1.755   2.877  17.253 -0.1122 -0.4295 -0.1210
   13DOPE   C31 1579   1.819   2.980  17.202  0.0455 -0.6826  0.7573
   13DOPE   O32 1580   1.902   3.049  17.251 -1.0011  0.1108 -0.2495
   13DOPE   C32 1581   1.770   2.989  17.053  0.0988  0.1627  0.2789
   13DOPE   H2X 1582   1.768   2.884  17.015 -0.1285  1.2886 -3.1544
   13DOPE   H2Y 1583   1.664   3.023  17.046 -0.1181  0.1456  2.7091
   13DOPE   C23 1584   1.288   2.939  17.139 -0.2430 -0.1546 -0.4860
   13DOPE   H3R 1585   1.290   3.044  17.175  0.5403  0.5102 -2.3516
   13DOPE   H3S 1586   1.180   2.916  17.125 -0.8126 -0.4247  3.3631
   13DOPE   C24 1587   1.365   2.944  17.007 -0.1202 -0.7313  0.3324
   13DOPE   H4R 1588   1.399   2.840  16.992  0.3345 -0.6942  1.0519
   13DOPE   H4S 1589   1.448   3.017  17.005 -2.1971  2.0643  3.6998
   13DOPE   C25 1590   1.273   3.001  16.894  0.1499  0.2193 -0.4396
   13DOPE   H5R 1591   1.229   3.098  16.925 -1.6073 -0.7499  0.2248
   13DOPE   H5S 1592   1.185   2.933  16.886  0.9460 -0.7461 -1.3865
   13DOPE   C26 1593   1.344   3.017  16.766 -1.2380 -0.1797 -0.0283
   13DOPE   H6R 1594   1.347   2.920  16.711  0.6034 -0.6530  0.8282
   13DOPE   H6S 1595   1.451   3.032  16.792 -0.7191 -3.6192  0.1902
   13DOPE   C27 1596   1.293   3.130  16.680  0.3161 -0.8661  0.3050
   13DOPE   H7R 1597   1.247   3.217  16.732 -0.1595  0.5457 -2.3089
   13DOPE   H7S 1598   1.209   3.080  16.627 -0.3101 -0.0625  0.5271
   13DOPE   C28 1599   1.393   3.190  16.578 -0.0271  1.1538  0.4447
   13DOPE   H8R 1600   1.482   3.225  16.635  0.3000 -1.2857  1.5518
   13DOPE   H8S 1601   1.347   3.281  16.534  1.1310  0.9476 -1.2562
   13DOPE   C29 1602   1.424   3.082  16.481  1.0085 -0.0898 -0.2937
   13DOPE   H9R 1603   1.475   2.995  16.526 -0.2855 -0.7492 -0.0531
   13DOPE  C210 1604   1.383   3.067  16.353  0.0609 -0.2625  0.0888
   13DOPE  H10R 1605   1.417   2.971  16.312 -0.3790 -0.1687 -0.5106
   13DOPE  C211 1606   1.310   3.167  16.268 -0.4724 -0.0994 -0.0687
   13DOPE  H11R 1607   1.302   3.268  16.315  0.0424 -1.6872  3.7368
   13DOPE  H11S 1608   1.202   3.143  16.282 -0.6690 -0.0280 -1.3178
   13DOPE  C212 1609   1.346   3.162  16.116 -0.1898 -0.4120  0.5415
   13DOPE  H12R 1610   1.349   3.058  16.078  1.0563 -0.8805  1.8272
   13DOPE  H12S 1611   1.447   3.202  16.093 -0.7361  0.8601  0.2808
   13DOPE  C213 1612   1.251   3.250  16.023  0.0889  0.0687 -0.8607
   13DOPE  H13R 1613   1.273   3.356  16.046  1.3464 -0.4360  0.4192
   13DOPE  H13S 1614   1.145   3.223  16.042 -0.7707  1.6176 -3.1010
   13DOPE  C214 1615   1.278   3.209  15.873  0.2343  0.3310 -0.1832
   13DOPE  H14R 1616   1.278   3.098  15.864  1.4366  0.3712 -0.7533
   13DOPE  H14S 1617   1.381   3.236  15.844  0.9657 -1.3874  0.6357
   13DOPE  C215 1618   1.175   3.270  15.778  0.2849  0.7882 -0.2752
   13DOPE  H15R 1619   1.167   3.379  15.801  0.0001  0.4109  1.5330
   13DOPE  H15S 1620   1.078   3.223  15.804  0.7523 -0.6093 -0.9798
   13DOPE  C216 1621   1.215   3.250  15.631 -0.7733 -0.7950  0.2526
   13DOPE  H16R 1622   1.259   3.149  15.614  0.6662 -0.2484  0.6216
   13DOPE  H16S 1623   1.293   3.321  15.597 -0.5771 -1.1865 -0.1208
   13DOPE  C217 1624   1.100   3.266  15.528 -0.0904  0.2435  0.3839
   13DOPE  H17R 1625   1.065   3.372  15.532 -0.2970  0.2076 -0.3024
   13DOPE  H17S 1626   1.011   3.203  15.550 -2.0331  2.6438 -0.0787
   13DOPE  C218 1627   1.154   3.244  15.385  0.5339  0.4013 -0.0940
   13DOPE  H18R 1628   1.193   3.140  15.373 -1.3864 -0.3177 -0.5628
   13DOPE  H18S 1629   1.229   3.318  15.351  0.4774  0.0513 -0.9985
   13DOPE  H18T 1630   1.071   3.242  15.311 -0.3340  1.8790  0.7989
   13DOPE   C33 1631   1.870   3.065  16.961 -0.2850  0.4750  0.1566
   13DOPE   H3X 1632   1.970   3.016  16.965  0.1761  1.4751  1.4504
   13DOPE   H3Y 1633   1.887   3.169  16.995 -1.8318  0.6584  0.4565
   13DOPE   C34 1634   1.816   3.065  16.815 -0.0126 -0.4973 -0.7143
   13DOPE   H4X 1635   1.792   2.962  16.784  0.4663 -1.0057  0.5240
   13DOPE   H4Y 1636   1.721   3.123  16.815 -0.2580 -0.6944  2.9310
   13DOPE   C35 1637   1.903   3.138  16.707  0.7569  0.8418  0.0214
   13DOPE   H5X 1638   2.008   3.105  16.720  0.5995  0.5355  0.5700
   13DOPE   H5Y 1639   1.887   3.246  16.729 -2.4341  0.3428  0.6854
   13DOPE   C36 1640   1.848   3.109  16.569  0.5386 -0.8016  0.2388
   13DOPE   H6X 1641   1.754   3.168  16.557  0.8303 -0.2679  0.5831
   13DOPE   H6Y 1642   1.828   2.999  16.570  1.1014 -0.9410  3.0592
   13DOPE   C37 1643   1.934   3.155  16.445  0.4598  0.2510  0.5385
   13DOPE   H7X 1644   1.959   3.263  16.446  1.2851  0.2412 -3.2244
   13DOPE   H7Y 1645   2.032   3.104  16.446  0.5092  0.1520 -2.2122
   13DOPE   C38 1646   1.861   3.132  16.309  0.0136 -1.1352 -0.4990
   13DOPE   H8X 1647   1.933   3.167  16.232  0.8814 -0.6102  0.5232
   13DOPE   H8Y 1648   1.778   3.205  16.309  1.8414  1.0620 -1.1858
   13DOPE   C39 1649   1.814   2.994  16.289  0.6449 -0.6284 -0.1708
   13DOPE   H9X 1650   1.831   2.931  16.377 -3.1640  0.4462  1.5131
   13DOPE  C310 1651   1.753   2.948  16.180 -0.1781  0.7983 -0.1025
   13DOPE  H10X 1652   1.719   2.844  16.188  0.1030  0.4882 -2.2998
   13DOPE  C311 1653   1.713   3.029  16.056 -0.2126  0.1350 -0.7892
   13DOPE  H11X 1654   1.611   3.014  16.015  0.2728  0.4435 -2.1581
   13DOPE  H11Y 1655   1.742   3.132  16.087  2.2543 -0.8930  0.6812
   13DOPE  C312 1656   1.791   3.001  15.925 -0.3300 -0.1783 -0.0172
   13DOPE  H12X 1657   1.747   2.909  15.880 -0.4886  0.3213 -0.9080
   13DOPE  H12Y 1658   1.900   2.985  15.940 -0.6480 -3.2017 -0.1756
   13DOPE  C313 1659   1.768   3.113  15.815 -0.2423  0.3813 -0.2492
   13DOPE  H13X 1660   1.661   3.116  15.785 -0.9403  0.8889  2.0707
   13DOPE  H13Y 1661   1.812   3.209  15.851  0.1433 -0.3403  1.2650
   13DOPE  C314 1662   1.845   3.083  15.682 -0.2170 -0.4640 -0.6756
   13DOPE  H14X 1663   1.824   2.980  15.649 -2.6026 -0.3655  0.3362
   13DOPE  H14Y 1664   1.951   3.073  15.715 -0.7647 -2.2180  0.7332
   13DOPE  C315 1665   1.829   3.188  15.572 -0.7665  0.8494 -0.8991
   13DOPE  H15X 1666   1.891   3.163  15.483 -0.2731  0.5294 -0.4650
   13DOPE  H15Y 1667   1.875   3.283  15.608  1.9229 -0.0093 -1.8602
   13DOPE  C316 1668   1.679   3.221  15.550 -0.2353 -0.4287  0.2233
   13DOPE  H16X 1669   1.677   3.289  15.461  0.2058  2.4911  2.2914
   13DOPE  H16Y 1670   1.645   3.283  15.635 -2.2190 -0.8389 -0.2222
   13DOPE  C317 1671   1.587   3.106  15.518  0.0068  0.1664  0.0831
   13DOPE  H17X 1672   1.574   3.040  15.607 -1.3063  0.4291  0.1094
   13DOPE  H17Y 1673   1.488   3.139  15.479 -0.8539 -0.1678  1.8456
   13DOPE  C318 1674   1.646   3.010  15.407  0.4883 -0.1491  0.2671
   13DOPE  H18X 1675   1.569   2.952  15.352  0.5452 -0.2420  0.2844
   13DOPE  H18Y 1676   1.711   3.058  15.330 -0.5251  0.0148 -0.5061
   13DOPE  H18Z 1677   1.718   2.951  15.467  1.1814 -1.8332 -2.0401
   14DOPE     N 1678   5.112   5.391  17.535 -0.5565  0.4795  0.0180
   14DOPE   HN1 1679   5.105   5.466  17.606  1.5311 -0.4990  1.3485
   14DOPE   HN2 1680   5.021   5.381  17.485 -1.0868 -0.0842  1.0715
   14DOPE   HN3 1681   5.135   5.301  17.580  0.7461 -0.1229 -1.7271
   14DOPE   C12 1682   5.220   5.435  17.431  0.5824 -0.4376 -0.5453
   14DOPE  H12A 1683   5.216   5.350  17.360 -0.9914  0.7161 -1.9173
   14DOPE  H12B 1684   5.316   5.424  17.487  0.1861  0.8971  0.4411
   14DOPE   C11 1685   5.190   5.562  17.356 -0.2218 -0.1870 -0.0335
   14DOPE  H11A 1686   5.087   5.562  17.314  0.4880  1.5874 -1.9114
   14DOPE  H11B 1687   5.254   5.574  17.266 -0.3171 -0.2654 -0.1102
   14DOPE     P 1688   5.331   5.755  17.470 -0.3099 -0.6202  0.0378
   14DOPE   O13 1689   5.445   5.679  17.524  0.3190  0.4829 -0.7004
   14DOPE   O14 1690   5.294   5.875  17.549  0.5829  0.3820 -0.7136
   14DOPE   O11 1691   5.360   5.810  17.319 -0.0851 -0.5489 -0.2778
   14DOPE   O12 1692   5.199   5.671  17.448 -0.4177  0.4481  0.2391
   14DOPE    C1 1693   5.488   5.769  17.268 -0.8632  0.2902 -0.0166
   14DOPE    HA 1694   5.514   5.668  17.306 -1.0386  0.0593 -0.5090
   14DOPE    HB 1695   5.564   5.842  17.305 -0.7625 -0.4404  1.2987
   14DOPE    C2 1696   5.500   5.746  17.112 -0.1021  0.5901 -0.1811
   14DOPE    HS 1697   5.473   5.845  17.068  1.8070  0.1351 -2.5646
   14DOPE   O21 1698   5.388   5.659  17.075 -0.3849  0.0682 -0.3169
   14DOPE   C21 1699   5.354   5.676  16.944  0.5840  0.0423 -0.4096
   14DOPE   O22 1700   5.377   5.780  16.883  0.0166 -0.0371 -0.0998
   14DOPE   C22 1701   5.265   5.566  16.888  0.6335  0.0934 -0.1887
   14DOPE   H2R 1702   5.168   5.618  16.874  1.8147  2.2052 -0.9762
   14DOPE   H2S 1703   5.246   5.490  16.967 -0.2269 -1.7792 -2.0884
   14DOPE    C3 1704   5.641   5.705  17.092 -0.2594  0.1828 -0.4519
   14DOPE    HX 1705   5.670   5.628  17.167 -0.1990  2.5745  2.1561
   14DOPE    HY 1706   5.709   5.790  17.115 -0.8284 -0.0257  2.2995
   14DOPE   O31 1707   5.655   5.659  16.957 -0.4771  0.7583  0.2320
   14DOPE   C31 1708   5.714   5.734  16.865 -0.2669 -0.1641 -0.1889
   14DOPE   O32 1709   5.776   5.842  16.889  0.9355 -0.0488  0.3168
   14DOPE   C32 1710   5.720   5.656  16.736 -0.0148  0.5195  1.2025
   14DOPE   H2X 1711   5.824   5.618  16.721  0.2643  0.9502  1.9647
   14DOPE   H2Y 1712   5.648   5.571  16.738 -0.8134  1.1477 -0.1756
   14DOPE   C23 1713   5.325   5.500  16.761  0.5613  0.2634 -0.5457
   14DOPE   H3R 1714   5.267   5.406  16.764 -2.8288  2.2312  1.1414
   14DOPE   H3S 1715   5.433   5.478  16.779  0.3081 -0.4923  0.1177
   14DOPE   C24 1716   5.301   5.576  16.634  0.0247  0.1590  0.3135
   14DOPE   H4R 1717   5.362   5.668  16.616  2.2292 -1.3997 -0.7539
   14DOPE   H4S 1718   5.191   5.591  16.635 -0.1610 -1.1048  0.2766
   14DOPE   C25 1719   5.328   5.493  16.510  0.3815  0.6200  0.4494
   14DOPE   H5R 1720   5.265   5.401  16.513  0.8769  0.2794  0.6544
   14DOPE   H5S 1721   5.436   5.467  16.504 -0.0443 -1.0408 -0.8006
   14DOPE   C26 1722   5.273   5.567  16.387  0.3758  0.0476  0.4580
   14DOPE   H6R 1723   5.316   5.669  16.384 -1.9922  1.0773 -0.2202
   14DOPE   H6S 1724   5.168   5.599  16.402  0.1223  0.4017 -1.7786
   14DOPE   C27 1725   5.288   5.485  16.256 -0.3697  0.0475  0.4294
   14DOPE   H7R 1726   5.220   5.399  16.271 -0.4436  0.0827  0.2982
   14DOPE   H7S 1727   5.388   5.439  16.245 -0.2992 -0.1631  1.7831
   14DOPE   C28 1728   5.241   5.550  16.129 -0.3577  0.6175 -0.2560
   14DOPE   H8R 1729   5.140   5.592  16.142 -0.7028 -0.6543  1.5868
   14DOPE   H8S 1730   5.217   5.479  16.047 -0.8757 -1.3264  1.4807
   14DOPE   C29 1731   5.352   5.643  16.092  0.5189 -0.5358 -0.4042
   14DOPE   H9R 1732   5.370   5.722  16.166 -3.4795 -0.6601  0.9427
   14DOPE  C210 1733   5.426   5.649  15.980  0.7811 -0.2510 -0.1636
   14DOPE  H10R 1734   5.496   5.734  15.973 -0.1565  0.6377  0.9504
   14DOPE  C211 1735   5.411   5.566  15.855  0.4223 -0.1407  0.5146
   14DOPE  H11R 1736   5.345   5.479  15.874 -0.5021  0.8638  2.0387
   14DOPE  H11S 1737   5.509   5.514  15.845  0.7440  0.7248 -1.1441
   14DOPE  C212 1738   5.381   5.638  15.728  0.4029 -0.9282 -0.7072
   14DOPE  H12R 1739   5.454   5.720  15.714  1.0004 -1.7687 -2.9367
   14DOPE  H12S 1740   5.287   5.696  15.732  2.1608  2.0945 -0.4829
   14DOPE  C213 1741   5.370   5.535  15.611  0.2875  0.1551 -0.8577
   14DOPE  H13R 1742   5.291   5.461  15.637  1.1212 -0.3277  0.4051
   14DOPE  H13S 1743   5.466   5.481  15.602  0.1734 -0.1295 -0.3947
   14DOPE  C214 1744   5.328   5.591  15.477 -0.2054  0.0548 -0.6129
   14DOPE  H14R 1745   5.399   5.656  15.421  1.0688  2.0027  2.9815
   14DOPE  H14S 1746   5.244   5.660  15.499  0.0322 -0.1795  1.1240
   14DOPE  C215 1747   5.282   5.470  15.390 -0.0137  0.7629  0.2889
   14DOPE  H15R 1748   5.200   5.426  15.451  0.8830 -1.0889  0.2570
   14DOPE  H15S 1749   5.372   5.404  15.383 -0.9321 -0.3317 -2.4825
   14DOPE  C216 1750   5.241   5.509  15.250  0.8682  0.3911  0.3654
   14DOPE  H16R 1751   5.203   5.419  15.197 -0.6313  1.1185  0.1735
   14DOPE  H16S 1752   5.331   5.535  15.189 -0.1620  1.0363 -0.9197
   14DOPE  C217 1753   5.132   5.614  15.241 -0.1330 -0.4807  0.1384
   14DOPE  H17R 1754   5.168   5.717  15.259 -1.2832  0.0760 -0.6584
   14DOPE  H17S 1755   5.050   5.590  15.311 -2.9180  2.2541 -1.9483
   14DOPE  C218 1756   5.066   5.617  15.098  0.1757 -0.1257 -0.1704
   14DOPE  H18R 1757   5.153   5.637  15.032  0.8702 -0.3866  0.6548
   14DOPE  H18S 1758   4.994   5.702  15.087 -1.3352 -1.4772 -1.3023
   14DOPE  H18T 1759   5.011   5.523  15.077  0.9331 -0.3514 -1.2401
   14DOPE   C33 1760   5.685   5.742  16.611 -0.3112  0.5310 -0.0822
   14DOPE   H3X 1761   5.738   5.840  16.607 -0.0624  0.4471  0.9141
   14DOPE   H3Y 1762   5.578   5.767  16.628 -0.4486  0.0475 -0.2196
   14DOPE   C34 1763   5.696   5.663  16.490 -0.3118  0.4656 -0.0093
   14DOPE   H4X 1764   5.801   5.628  16.484 -0.2939 -0.2046  2.8360
   14DOPE   H4Y 1765   5.637   5.569  16.491  1.4029 -0.6430  0.4035
   14DOPE   C35 1766   5.662   5.741  16.366  0.0399 -0.0214 -0.6462
   14DOPE   H5X 1767   5.660   5.850  16.388 -1.6286  0.2610 -1.9898
   14DOPE   H5Y 1768   5.560   5.714  16.330 -0.4874  0.3694  0.5068
   14DOPE   C36 1769   5.767   5.717  16.260  0.2689 -0.3373  0.0926
   14DOPE   H6X 1770   5.759   5.610  16.229 -0.2075 -0.0901 -0.6643
   14DOPE   H6Y 1771   5.872   5.728  16.295  0.3888 -0.0229 -0.3568
   14DOPE   C37 1772   5.744   5.796  16.137  0.6168  0.6335 -0.5131
   14DOPE   H7X 1773   5.635   5.794  16.116 -0.1921  0.7261  3.1087
   14DOPE   H7Y 1774   5.761   5.903  16.164 -1.3025  0.5164  1.4395
   14DOPE   C38 1775   5.819   5.751  16.017  0.3719 -0.0727 -0.7925
   14DOPE   H8X 1776   5.760   5.667  15.973  1.0759 -1.0335  0.0368
   14DOPE   H8Y 1777   5.914   5.717  16.064 -0.3370  0.3587  1.0160
   14DOPE   C39 1778   5.850   5.866  15.924 -0.4170  0.3573  0.3410
   14DOPE   H9X 1779   5.918   5.942  15.965 -2.0983  1.9880  0.2520
   14DOPE  C310 1780   5.816   5.888  15.796  0.6181 -0.0190  0.3916
   14DOPE  H10X 1781   5.866   5.970  15.743 -2.0027  0.6943 -1.1841
   14DOPE  C311 1782   5.726   5.801  15.713  0.8382  0.4892  0.7031
   14DOPE  H11X 1783   5.695   5.707  15.763  0.3778  0.8200  1.0501
   14DOPE  H11Y 1784   5.633   5.856  15.684  1.3120  1.1896  0.4805
   14DOPE  C312 1785   5.793   5.765  15.579 -0.5402  0.2708  0.4222
   14DOPE  H12X 1786   5.873   5.689  15.590 -1.0835 -0.2846  0.5195
   14DOPE  H12Y 1787   5.843   5.855  15.537 -1.0125 -1.0183 -3.2472
   14DOPE  C313 1788   5.681   5.719  15.482 -0.2184  0.3410  0.5649
   14DOPE  H13X 1789   5.649   5.614  15.503  1.7944 -0.1495  1.4799
   14DOPE  H13Y 1790   5.591   5.782  15.494  2.0448  3.5052  2.2358
   14DOPE  C314 1791   5.739   5.723  15.335  0.1803 -0.4744  0.0765
   14DOPE  H14X 1792   5.818   5.647  15.318  0.2561 -0.9847  2.3541
   14DOPE  H14Y 1793   5.782   5.823  15.314  0.2903 -0.2991  1.0874
   14DOPE  C315 1794   5.628   5.700  15.228  0.7461 -0.4800  0.4134
   14DOPE  H15X 1795   5.553   5.781  15.222  0.4249 -0.8130 -0.1703
   14DOPE  H15Y 1796   5.564   5.612  15.250 -0.0295 -0.3579 -1.1781
   14DOPE  C316 1797   5.683   5.699  15.082 -0.0656  0.1292 -0.8368
   14DOPE  H16X 1798   5.748   5.610  15.074 -2.7197 -2.0746  0.4286
   14DOPE  H16Y 1799   5.737   5.793  15.057 -0.1706  0.4732  0.1823
   14DOPE  C317 1800   5.581   5.681  14.962  0.3677  0.0475 -0.0974
   14DOPE  H17X 1801   5.637   5.708  14.870  1.1197 -1.9641 -0.2958
   14DOPE  H17Y 1802   5.548   5.575  14.957  0.5338 -0.0151  0.0969
   14DOPE  C318 1803   5.454   5.769  14.976 -0.0477  0.8168  1.0051
   14DOPE  H18X 1804   5.399   5.745  15.070  0.0152 -1.7152  0.4683
   14DOPE  H18Y 1805   5.479   5.876  14.986  0.6803  0.7617 -0.0579
   14DOPE  H18Z 1806   5.388   5.757  14.887  1.1148 -1.0821  0.3196
   15DOPE     N 1807   0.839   4.168  18.096 -0.6794 -1.0787  0.3063
   15DOPE   HN1 1808   0.843   4.129  18.192  0.5636  1.7334  1.5127
   15DOPE   HN2 1809   0.932   4.172  18.049 -1.2152  2.5325 -0.7144
   15DOPE   HN3 1810   0.807   4.266  18.103 -0.5668 -0.8557 -1.6473
   15DOPE   C12 1811   0.731   4.108  18.015  0.0611  0.3455 -0.1272
   15DOPE  H12A 1812   0.634   4.141  18.057  0.4211  1.2586  0.0210
   15DOPE  H12B 1813   0.742   3.997  18.014  1.9617  0.5015 -0.4695
   15DOPE   C11 1814   0.738   4.150  17.867  0.0815  0.3875 -0.0026
   15DOPE  H11A 1815   0.648   4.111  17.815  0.7954 -1.0905 -0.1778
   15DOPE  H11B 1816   0.827   4.110  17.816  1.0492  0.2345  1.7222
   15DOPE     P 1817   0.834   4.378  17.762  0.1084  0.2163 -0.0439
   15DOPE   O13 1818   0.977   4.345  17.785  0.0399  0.3550  0.0905
   15DOPE   O14 1819   0.802   4.523  17.778  0.3265  0.6346 -0.2723
   15DOPE   O11 1820   0.798   4.336  17.618  0.4730  0.0066 -0.3145
   15DOPE   O12 1821   0.744   4.292  17.857  0.1789  0.2478 -0.0963
   15DOPE    C1 1822   0.667   4.296  17.569 -0.0284 -0.5259  0.5037
   15DOPE    HA 1823   0.580   4.355  17.606 -1.1922 -0.6217 -1.8847
   15DOPE    HB 1824   0.652   4.190  17.600 -1.4976 -0.3880  0.3622
   15DOPE    C2 1825   0.653   4.286  17.416 -0.1619  0.2676 -0.0285
   15DOPE    HS 1826   0.547   4.260  17.397 -0.5933  1.7127  0.2635
   15DOPE   O21 1827   0.737   4.182  17.358 -0.3366 -0.1758 -0.6682
   15DOPE   C21 1828   0.700   4.058  17.370 -0.2124 -0.2429  0.0715
   15DOPE   O22 1829   0.597   4.015  17.421 -0.5668 -0.1462 -0.2524
   15DOPE   C22 1830   0.804   3.960  17.316  0.6433 -0.2088  0.2910
   15DOPE   H2R 1831   0.854   3.902  17.396 -0.7896 -1.2407  0.4793
   15DOPE   H2S 1832   0.871   4.023  17.253 -0.2884 -1.3331 -1.9174
   15DOPE    C3 1833   0.670   4.427  17.346  0.4068 -0.0436 -0.8140
   15DOPE    HX 1834   0.765   4.474  17.383 -0.3558 -0.2413  1.5692
   15DOPE    HY 1835   0.594   4.499  17.383 -0.2213 -0.5695 -1.0663
   15DOPE   O31 1836   0.647   4.421  17.203 -0.4286  0.5650 -0.3695
   15DOPE   C31 1837   0.745   4.463  17.131  0.3905  0.1152 -0.1187
   15DOPE   O32 1838   0.844   4.525  17.167  0.1150  0.0383  0.3220
   15DOPE   C32 1839   0.701   4.440  16.984 -0.3534  0.5382  0.4147
   15DOPE   H2X 1840   0.634   4.352  16.977 -1.6214  1.4641  0.4167
   15DOPE   H2Y 1841   0.635   4.526  16.958 -0.8306  0.2288  0.5773
   15DOPE   C23 1842   0.740   3.859  17.210  0.5078  0.1754 -0.2764
   15DOPE   H3R 1843   0.683   3.778  17.260  1.9758  0.0833  1.3379
   15DOPE   H3S 1844   0.822   3.797  17.167 -0.1111 -0.4722 -0.5424
   15DOPE   C24 1845   0.668   3.927  17.095 -0.1302  0.6264 -0.2032
   15DOPE   H4R 1846   0.727   4.016  17.063  0.0754  0.9253  0.9639
   15DOPE   H4S 1847   0.569   3.966  17.126  0.3359  0.3718  1.7163
   15DOPE   C25 1848   0.648   3.831  16.973  0.3774 -0.3192 -0.0555
   15DOPE   H5R 1849   0.569   3.869  16.905 -0.6892 -0.5720  1.0153
   15DOPE   H5S 1850   0.620   3.734  17.018  1.6414 -1.4995 -1.6733
   15DOPE   C26 1851   0.777   3.821  16.898 -0.0719 -0.2994  0.8620
   15DOPE   H6R 1852   0.865   3.788  16.958  1.0768  3.7799  1.6905
   15DOPE   H6S 1853   0.811   3.910  16.842  1.4074  0.5324  2.9940
   15DOPE   C27 1854   0.762   3.722  16.777  0.1266 -0.0890 -0.4760
   15DOPE   H7R 1855   0.714   3.631  16.820 -0.5562  1.6702  2.7826
   15DOPE   H7S 1856   0.864   3.695  16.744 -0.4365  0.0655 -2.5044
   15DOPE   C28 1857   0.677   3.786  16.662  0.0855  0.3267 -0.0145
   15DOPE   H8R 1858   0.691   3.895  16.648 -0.5822  0.1043 -3.3132
   15DOPE   H8S 1859   0.569   3.776  16.686  0.4252  0.7279  1.7974
   15DOPE   C29 1860   0.692   3.713  16.527 -0.0047  0.7505 -0.3889
   15DOPE   H9R 1861   0.638   3.618  16.537 -1.4487  1.4938 -0.8371
   15DOPE  C210 1862   0.768   3.738  16.418 -0.0018  0.6016 -0.1516
   15DOPE  H10R 1863   0.767   3.666  16.336  1.0110 -0.7073  0.9271
   15DOPE  C211 1864   0.859   3.855  16.422 -0.6973  0.1175 -0.5370
   15DOPE  H11R 1865   0.949   3.826  16.364  1.1651  1.5547  1.4544
   15DOPE  H11S 1866   0.897   3.869  16.526  1.6978 -3.0949 -0.8424
   15DOPE  C212 1867   0.789   3.984  16.380 -0.2501 -0.7305 -0.0522
   15DOPE  H12R 1868   0.711   4.003  16.456  0.7629  0.8313  0.6543
   15DOPE  H12S 1869   0.741   3.964  16.282 -2.0001  0.2782  0.5452
   15DOPE  C213 1870   0.879   4.109  16.376 -0.3942  0.4892 -0.2127
   15DOPE  H13R 1871   0.959   4.068  16.311 -0.8842 -1.4577  0.3185
   15DOPE  H13S 1872   0.911   4.118  16.482  0.2832  0.0659 -0.3734
   15DOPE  C214 1873   0.816   4.230  16.309 -0.2722  0.3059 -0.1167
   15DOPE  H14R 1874   0.721   4.250  16.363  0.6582  0.0752  1.6533
   15DOPE  H14S 1875   0.797   4.211  16.201 -0.4168 -2.8906  0.3787
   15DOPE  C215 1876   0.893   4.367  16.323 -0.4655  0.3573 -0.8617
   15DOPE  H15R 1877   0.993   4.367  16.275  0.1407  0.4551  0.3454
   15DOPE  H15S 1878   0.908   4.391  16.431 -1.4427 -1.9215 -0.1643
   15DOPE  C216 1879   0.824   4.488  16.252  0.0439  0.1655 -0.0660
   15DOPE  H16R 1880   0.798   4.456  16.149  0.7680 -0.5186 -0.0558
   15DOPE  H16S 1881   0.893   4.575  16.246  1.5052 -0.8330  1.2930
   15DOPE  C217 1882   0.701   4.543  16.340 -0.6035  0.0736  0.9872
   15DOPE  H17R 1883   0.637   4.454  16.357  1.8318 -2.0309 -0.1456
   15DOPE  H17S 1884   0.650   4.629  16.293 -1.1475 -1.1583 -0.7776
   15DOPE  C218 1885   0.728   4.594  16.483 -0.5578  0.0147  0.1647
   15DOPE  H18R 1886   0.648   4.661  16.520 -0.3786  0.1381  0.3334
   15DOPE  H18S 1887   0.826   4.645  16.477  1.3980 -3.5209 -1.4897
   15DOPE  H18T 1888   0.734   4.509  16.554 -1.4214 -1.0282 -0.9799
   15DOPE   C33 1889   0.810   4.449  16.875 -0.0091  0.3749  0.2709
   15DOPE   H3X 1890   0.848   4.553  16.867  2.3442 -0.4652 -0.3416
   15DOPE   H3Y 1891   0.765   4.413  16.779 -0.6259 -0.2914  0.7994
   15DOPE   C34 1892   0.936   4.354  16.901  0.9633 -0.0074  0.2907
   15DOPE   H4X 1893   0.980   4.396  16.994 -0.3885  1.4264  0.3161
   15DOPE   H4Y 1894   0.901   4.251  16.927  1.0005  0.3026  1.6794
   15DOPE   C35 1895   1.044   4.343  16.791 -0.8832  0.6367 -0.0474
   15DOPE   H5X 1896   1.094   4.436  16.756  0.0124 -0.3750 -1.5562
   15DOPE   H5Y 1897   1.003   4.295  16.700 -1.0974  0.9186 -0.1003
   15DOPE   C36 1898   1.156   4.252  16.850  0.2014 -0.1823  0.1752
   15DOPE   H6X 1899   1.108   4.161  16.890  2.5091 -1.6611 -0.1992
   15DOPE   H6Y 1900   1.200   4.313  16.932  1.0234  2.0385 -1.8094
   15DOPE   C37 1901   1.265   4.224  16.743  0.2198  0.6568  0.3878
   15DOPE   H7X 1902   1.299   4.323  16.705  0.7977 -0.0314 -0.9940
   15DOPE   H7Y 1903   1.349   4.179  16.800  1.9215  3.3538  0.2129
   15DOPE   C38 1904   1.226   4.131  16.626  0.6272 -0.7655 -0.7266
   15DOPE   H8X 1905   1.139   4.170  16.569 -0.6367  1.0623  2.2630
   15DOPE   H8Y 1906   1.190   4.042  16.681  1.7474 -0.5008  0.4931
   15DOPE   C39 1907   1.345   4.091  16.551 -0.2239  0.0407  0.2689
   15DOPE   H9X 1908   1.419   4.044  16.617  0.0471  1.4719  1.0165
   15DOPE  C310 1909   1.360   4.101  16.415 -0.2069 -0.1989  0.2447
   15DOPE  H10X 1910   1.447   4.052  16.369  0.1728 -0.0762  0.8174
   15DOPE  C311 1911   1.271   4.185  16.316 -0.2784 -0.5107  0.8745
   15DOPE  H11X 1912   1.177   4.213  16.370 -1.2257  0.2838 -1.1048
   15DOPE  H11Y 1913   1.324   4.276  16.281 -0.6831  0.0304  1.6356
   15DOPE  C312 1914   1.217   4.115  16.191 -0.6321  0.5500 -0.1526
   15DOPE  H12X 1915   1.135   4.179  16.153 -0.3480  0.3283 -1.1987
   15DOPE  H12Y 1916   1.196   4.007  16.206 -1.8213  0.8128  0.1358
   15DOPE  C313 1917   1.323   4.114  16.077  0.5593  0.2356  0.1464
   15DOPE  H13X 1918   1.354   4.218  16.053  1.8539 -0.1343  0.1394
   15DOPE  H13Y 1919   1.413   4.066  16.122  0.3550 -0.5796 -0.2924
   15DOPE  C314 1920   1.267   4.042  15.964  0.4052  0.2957 -0.2399
   15DOPE  H14X 1921   1.261   3.932  15.971  1.2046  0.3313  1.1070
   15DOPE  H14Y 1922   1.343   4.066  15.887 -0.7207 -0.6434 -1.7060
   15DOPE  C315 1923   1.129   4.088  15.914  0.1136 -0.6852  0.5399
   15DOPE  H15X 1924   1.058   4.064  15.996 -0.3139  0.6227  0.5840
   15DOPE  H15Y 1925   1.105   4.020  15.830  0.5554 -1.0780  0.7290
   15DOPE  C316 1926   1.117   4.234  15.876 -0.0611 -0.1346  0.2553
   15DOPE  H16X 1927   1.189   4.269  15.799  0.5515  0.9935  1.3123
   15DOPE  H16Y 1928   1.153   4.288  15.966 -0.2704 -1.1932  0.9934
   15DOPE  C317 1929   0.977   4.282  15.843  0.1276  0.0279 -1.0990
   15DOPE  H17X 1930   0.960   4.272  15.734  1.6852 -3.7992 -1.1401
   15DOPE  H17Y 1931   0.906   4.218  15.899  0.5351 -1.1921 -1.9339
   15DOPE  C318 1932   0.962   4.435  15.884  0.9043  0.0402  0.0099
   15DOPE  H18X 1933   1.038   4.501  15.838  1.2405  1.7434  2.7806
   15DOPE  H18Y 1934   0.862   4.479  15.861  0.9928 -0.9607 -2.5443
   15DOPE  H18Z 1935   0.974   4.444  15.994 -2.0487  2.0240  0.3046
   16DOPE     N 1936   6.419   5.052  17.617  0.0440  0.8061 -0.1928
   16DOPE   HN1 1937   6.459   5.121  17.550  1.2297  0.0274 -0.3198
   16DOPE   HN2 1938   6.407   4.955  17.581  1.3195  0.1232  1.1309
   16DOPE   HN3 1939   6.330   5.099  17.643  0.5101  1.9900 -0.6358
   16DOPE   C12 1940   6.518   5.059  17.723  0.4627 -0.1261 -0.1181
   16DOPE  H12A 1941   6.526   4.957  17.766 -0.5851 -0.8405 -1.5257
   16DOPE  H12B 1942   6.491   5.138  17.796  1.6121  2.8110 -2.6565
   16DOPE   C11 1943   6.653   5.101  17.661 -0.9548  0.7398 -0.1927
   16DOPE  H11A 1944   6.684   5.033  17.580  1.2153  2.3989 -0.8602
   16DOPE  H11B 1945   6.730   5.089  17.741 -2.3705  0.7209  1.2153
   16DOPE     P 1946   6.626   5.303  17.492 -0.2807 -0.1160  0.3124
   16DOPE   O13 1947   6.594   5.451  17.507 -0.0216  0.5084 -0.2546
   16DOPE   O14 1948   6.521   5.213  17.439 -0.1281 -0.2874  1.0743
   16DOPE   O11 1949   6.765   5.291  17.422  0.0271 -0.4657  0.2087
   16DOPE   O12 1950   6.675   5.244  17.633  0.2729  0.3275  0.1981
   16DOPE    C1 1951   6.795   5.174  17.343 -0.1500  0.1530  0.3628
   16DOPE    HA 1952   6.719   5.094  17.356  0.5842 -0.6796 -0.3490
   16DOPE    HB 1953   6.894   5.127  17.360  0.8135  1.2903 -1.7950
   16DOPE    C2 1954   6.809   5.207  17.189 -0.0459 -0.2946 -0.6885
   16DOPE    HS 1955   6.895   5.276  17.177 -0.4962  0.6087  0.9646
   16DOPE   O21 1956   6.687   5.267  17.138 -0.0299  0.1988 -0.0229
   16DOPE   C21 1957   6.708   5.380  17.059  0.1393  0.7698  0.3938
   16DOPE   O22 1958   6.816   5.423  17.033 -0.2898  0.2739 -0.3119
   16DOPE   C22 1959   6.578   5.438  16.999 -0.0034 -0.0595  0.1339
   16DOPE   H2R 1960   6.565   5.536  17.050 -2.6383  0.1452 -0.7860
   16DOPE   H2S 1961   6.493   5.372  17.028 -0.5496  0.7686  0.4565
   16DOPE    C3 1962   6.846   5.074  17.117  0.1262 -0.2990  0.6542
   16DOPE    HX 1963   6.751   5.016  17.123 -1.1734  1.1718 -2.9928
   16DOPE    HY 1964   6.922   5.007  17.164 -1.0978 -2.7572 -0.6790
   16DOPE   O31 1965   6.860   5.100  16.976 -0.2016 -0.3000  0.7123
   16DOPE   C31 1966   6.979   5.135  16.934 -0.0895 -0.4308 -0.2594
   16DOPE   O32 1967   7.077   5.161  17.005  0.5608 -0.4442 -0.5070
   16DOPE   C32 1968   6.974   5.127  16.785  0.2464  0.5030  0.1515
   16DOPE   H2X 1969   6.882   5.069  16.759  0.5741  0.0384  0.0166
   16DOPE   H2Y 1970   6.955   5.227  16.739  1.0822 -0.4583 -2.4730
   16DOPE   C23 1971   6.584   5.488  16.847 -0.4296  0.3243 -0.6778
   16DOPE   H3R 1972   6.683   5.537  16.834  0.6006 -0.4547  3.0526
   16DOPE   H3S 1973   6.503   5.563  16.831 -1.7184 -0.7843  0.3798
   16DOPE   C24 1974   6.579   5.376  16.745  0.6052  0.0254 -0.3271
   16DOPE   H4R 1975   6.496   5.303  16.764 -1.3658  2.3727  0.6281
   16DOPE   H4S 1976   6.663   5.303  16.744  1.1824  0.6944 -1.6311
   16DOPE   C25 1977   6.563   5.420  16.604  0.0116  0.1216  0.0527
   16DOPE   H5R 1978   6.639   5.497  16.579 -0.0328  0.0933 -0.1719
   16DOPE   H5S 1979   6.471   5.482  16.613  1.4254  2.1671  1.4987
   16DOPE   C26 1980   6.568   5.294  16.516 -0.0632  0.4134  0.4535
   16DOPE   H6R 1981   6.491   5.223  16.553 -0.2871 -0.2420 -1.1852
   16DOPE   H6S 1982   6.666   5.244  16.526 -0.5366 -0.0846  3.4115
   16DOPE   C27 1983   6.537   5.316  16.368 -0.4955  0.3669 -0.1230
   16DOPE   H7R 1984   6.438   5.367  16.363 -0.2866  0.6749 -1.1928
   16DOPE   H7S 1985   6.521   5.221  16.312  0.5727  0.5747 -0.7962
   16DOPE   C28 1986   6.647   5.395  16.296 -0.1441  0.3314 -0.4594
   16DOPE   H8R 1987   6.689   5.471  16.364  0.3405 -0.1781 -0.1810
   16DOPE   H8S 1988   6.602   5.453  16.213 -1.1706  2.3659  1.4210
   16DOPE   C29 1989   6.757   5.313  16.240  0.0110 -0.1776  0.0073
   16DOPE   H9R 1990   6.838   5.297  16.312  0.8565  2.7247 -0.1693
   16DOPE  C210 1991   6.770   5.277  16.112  0.0764  0.2006  0.4052
   16DOPE  H10R 1992   6.858   5.217  16.085 -0.0565 -0.9411  2.3457
   16DOPE  C211 1993   6.668   5.304  15.998 -0.5530 -0.0980  0.2687
   16DOPE  H11R 1994   6.583   5.373  16.018 -2.3852 -2.1629  0.0153
   16DOPE  H11S 1995   6.616   5.209  15.972  2.2956 -1.3826 -1.2329
   16DOPE  C212 1996   6.738   5.351  15.870 -0.2458 -0.5923 -0.0782
   16DOPE  H12R 1997   6.829   5.289  15.856 -1.9246 -3.2265 -0.2012
   16DOPE  H12S 1998   6.768   5.457  15.882  2.5980 -1.3407  0.1923
   16DOPE  C213 1999   6.659   5.331  15.741  0.1567 -0.2049 -0.1895
   16DOPE  H13R 2000   6.574   5.401  15.753  1.2908  1.3740 -1.0765
   16DOPE  H13S 2001   6.626   5.225  15.742  2.4416 -0.9815  0.9824
   16DOPE  C214 2002   6.723   5.349  15.604 -0.1095  0.4532 -0.7488
   16DOPE  H14R 2003   6.811   5.282  15.598  0.2138  0.8478 -0.4785
   16DOPE  H14S 2004   6.752   5.456  15.601  2.0101 -0.0714 -0.4311
   16DOPE  C215 2005   6.637   5.324  15.474 -0.5523  0.2660 -0.1113
   16DOPE  H15R 2006   6.543   5.382  15.463 -0.0383  1.3975  1.1998
   16DOPE  H15S 2007   6.601   5.222  15.499 -0.8317  0.4460  0.2141
   16DOPE  C216 2008   6.733   5.344  15.352  0.5384  0.1315 -1.2511
   16DOPE  H16R 2009   6.831   5.301  15.382  0.0589  1.5692  3.1790
   16DOPE  H16S 2010   6.749   5.453  15.337  0.1301  0.3353 -0.2945
   16DOPE  C217 2011   6.674   5.293  15.224  0.1009 -0.1489 -0.8156
   16DOPE  H17R 2012   6.584   5.354  15.204 -0.0942 -0.3529 -0.5618
   16DOPE  H17S 2013   6.641   5.188  15.236  1.1932 -0.2841  1.4198
   16DOPE  C218 2014   6.778   5.293  15.110  0.0527 -0.1608  0.7655
   16DOPE  H18R 2015   6.816   5.394  15.084  3.4388 -1.4981 -0.0372
   16DOPE  H18S 2016   6.740   5.244  15.017 -2.1939  0.6488  1.1744
   16DOPE  H18T 2017   6.872   5.247  15.144 -0.1773  1.2989  3.6950
   16DOPE   C33 2018   7.109   5.069  16.727 -0.4267 -0.6104  0.2751
   16DOPE   H3X 2019   7.131   4.965  16.761  0.5184 -0.5598 -0.1560
   16DOPE   H3Y 2020   7.188   5.139  16.761  0.7343 -1.5664 -0.3745
   16DOPE   C34 2021   7.100   5.077  16.572 -0.2029 -0.3840  0.1125
   16DOPE   H4X 2022   7.020   5.019  16.521 -0.7757 -0.9142  1.5676
   16DOPE   H4Y 2023   7.079   5.184  16.552 -3.6869 -1.0304 -0.3571
   16DOPE   C35 2024   7.242   5.042  16.524  0.0567 -0.2991 -0.4451
   16DOPE   H5X 2025   7.258   4.932  16.534 -4.2192 -1.0933 -0.3777
   16DOPE   H5Y 2026   7.316   5.085  16.595  0.7586 -0.8049 -0.8588
   16DOPE   C36 2027   7.276   5.081  16.383  0.2777 -0.4715 -0.4260
   16DOPE   H6X 2028   7.383   5.109  16.374  0.2166 -0.7473 -2.5922
   16DOPE   H6Y 2029   7.204   5.160  16.352  1.2242  0.3710 -0.5167
   16DOPE   C37 2030   7.259   4.963  16.277  0.6151 -0.6635  0.2062
   16DOPE   H7X 2031   7.327   4.877  16.295 -1.4749 -2.3003  0.6229
   16DOPE   H7Y 2032   7.157   4.921  16.273  0.8809 -1.2696 -0.3660
   16DOPE   C38 2033   7.287   5.015  16.133  0.1527  0.5775 -0.7001
   16DOPE   H8X 2034   7.298   4.919  16.079 -0.7787  0.4142 -0.6180
   16DOPE   H8Y 2035   7.379   5.076  16.129 -0.9017  2.2505 -0.4357
   16DOPE   C39 2036   7.178   5.096  16.078 -0.4949 -0.0593  0.2381
   16DOPE   H9X 2037   7.151   5.190  16.130 -0.8601 -0.0513  0.0403
   16DOPE  C310 2038   7.095   5.053  15.982  0.1221 -0.2555  0.2402
   16DOPE  H10X 2039   7.011   5.123  15.966  0.8831  0.6163 -0.0626
   16DOPE  C311 2040   7.091   4.933  15.892  0.0719 -0.0029  0.1718
   16DOPE  H11X 2041   7.159   4.852  15.925  2.5134  0.9981 -2.0388
   16DOPE  H11Y 2042   6.987   4.893  15.889 -0.2613  0.8939 -1.6682
   16DOPE  C312 2043   7.127   4.960  15.740  0.5930 -0.1457  0.4380
   16DOPE  H12X 2044   7.142   4.865  15.685  0.8117 -0.3346  0.8223
   16DOPE  H12Y 2045   7.221   5.020  15.746  0.5905  0.0747 -1.1930
   16DOPE  C313 2046   7.025   5.045  15.661  0.1728  0.1214 -0.5451
   16DOPE  H13X 2047   6.930   4.989  15.652  0.6442 -0.5147 -1.8147
   16DOPE  H13Y 2048   6.992   5.128  15.728 -1.5792 -1.7226  1.0093
   16DOPE  C314 2049   7.077   5.105  15.532 -0.1832 -0.1167 -0.0457
   16DOPE  H14X 2050   7.179   5.147  15.547 -0.2315 -0.2466  0.6646
   16DOPE  H14Y 2051   7.004   5.185  15.504 -1.1741 -1.0938 -0.3369
   16DOPE  C315 2052   7.101   5.005  15.416  0.2944 -0.0969  0.4498
   16DOPE  H15X 2053   7.141   4.907  15.451 -0.9396 -0.5164  0.7458
   16DOPE  H15Y 2054   7.159   5.061  15.340 -1.6626  0.7595 -0.5038
   16DOPE  C316 2055   6.960   4.957  15.357 -0.3430 -0.0124 -0.1519
   16DOPE  H16X 2056   6.890   5.043  15.360  0.9020  0.9819  1.0925
   16DOPE  H16Y 2057   6.905   4.891  15.429  1.2076  0.3745  1.4402
   16DOPE  C317 2058   6.976   4.900  15.219  0.1104 -0.0644 -0.2605
   16DOPE  H17X 2059   7.018   4.798  15.222 -2.3691 -1.1949 -1.0275
   16DOPE  H17Y 2060   6.878   4.869  15.175 -0.5099  1.6107 -0.1526
   16DOPE  C318 2061   7.061   4.982  15.127  0.2514  0.0837 -0.4333
   16DOPE  H18X 2062   7.035   4.944  15.026 -1.2857 -1.2512  0.4164
   16DOPE  H18Y 2063   7.024   5.086  15.130  0.1724  0.1861 -2.8183
   16DOPE  H18Z 2064   7.170   4.981  15.149  0.1674  0.9574  0.0563
   17DOPE     N 2065   1.649   1.013  17.369 -0.4791  0.0172  0.5688
   17DOPE   HN1 2066   1.563   1.071  17.360  0.9359  1.9569 -1.5828
   17DOPE   HN2 2067   1.715   1.064  17.431  0.7872 -0.8764 -0.0019
   17DOPE   HN3 2068   1.688   1.002  17.273 -3.6532 -0.1703 -0.8102
   17DOPE   C12 2069   1.635   0.874  17.421  0.0575  0.1355  1.0667
   17DOPE  H12A 2070   1.600   0.874  17.526  0.4312  0.9528  1.1960
   17DOPE  H12B 2071   1.737   0.833  17.434  1.1583  3.2879  3.5987
   17DOPE   C11 2072   1.549   0.789  17.323 -0.0868  0.0672 -0.0282
   17DOPE  H11A 2073   1.449   0.836  17.311 -0.7851 -1.2052  0.4870
   17DOPE  H11B 2074   1.533   0.686  17.364 -1.7946 -0.0855 -0.9913
   17DOPE     P 2075   1.703   0.664  17.135 -0.4292 -0.1008 -0.2240
   17DOPE   O13 2076   1.650   0.542  17.191 -0.0637  0.1535  0.2311
   17DOPE   O14 2077   1.849   0.696  17.153  0.5202  0.2724  0.2111
   17DOPE   O11 2078   1.664   0.671  16.986  0.1341  0.6175  0.4799
   17DOPE   O12 2079   1.620   0.785  17.196 -0.5055 -0.0212  0.3851
   17DOPE    C1 2080   1.582   0.776  16.931 -0.7480  0.3750  0.2905
   17DOPE    HA 2081   1.635   0.872  16.949 -0.6070  0.0113  1.9785
   17DOPE    HB 2082   1.477   0.779  16.966 -0.7138 -0.5583  0.5093
   17DOPE    C2 2083   1.579   0.751  16.778  0.0016 -0.5331 -0.3558
   17DOPE    HS 2084   1.535   0.649  16.781 -0.5880 -0.2750  1.0565
   17DOPE   O21 2085   1.711   0.734  16.730 -0.1451 -0.8302 -0.2289
   17DOPE   C21 2086   1.720   0.662  16.613  0.1675  0.1531 -0.0442
   17DOPE   O22 2087   1.633   0.587  16.574  0.2286 -0.1515 -0.0264
   17DOPE   C22 2088   1.856   0.680  16.561  0.1320 -0.4915 -0.2108
   17DOPE   H2R 2089   1.933   0.621  16.615 -1.5875 -2.1064  0.5378
   17DOPE   H2S 2090   1.879   0.789  16.571  2.3016 -0.8321 -0.8133
   17DOPE    C3 2091   1.497   0.863  16.710  0.0771  0.3722 -0.0684
   17DOPE    HX 2092   1.557   0.956  16.713  0.8396  0.0943 -2.9366
   17DOPE    HY 2093   1.407   0.875  16.773  0.8429 -1.1755  1.3895
   17DOPE   O31 2094   1.468   0.829  16.574 -0.0642 -0.0656 -0.0910
   17DOPE   C31 2095   1.351   0.777  16.542  0.2779  0.6521 -0.8879
   17DOPE   O32 2096   1.253   0.775  16.616 -0.0826 -0.2408  0.0430
   17DOPE   C32 2097   1.353   0.725  16.401 -0.7372  0.3670  0.6765
   17DOPE   H2X 2098   1.452   0.677  16.390 -0.4586  1.1367 -0.3998
   17DOPE   H2Y 2099   1.273   0.650  16.384 -1.3198  1.1103  0.0203
   17DOPE   C23 2100   1.871   0.640  16.413 -0.4707  0.4486  0.1237
   17DOPE   H3R 2101   1.858   0.536  16.376  3.5546  0.2373 -1.1537
   17DOPE   H3S 2102   1.980   0.655  16.401 -0.2651 -0.2673  0.9737
   17DOPE   C24 2103   1.794   0.725  16.320  0.5373 -0.4897  0.9351
   17DOPE   H4R 2104   1.793   0.829  16.359  2.5473  0.2214 -0.7142
   17DOPE   H4S 2105   1.689   0.694  16.333 -0.2000  1.4847  0.1612
   17DOPE   C25 2106   1.839   0.691  16.178  0.0879 -0.3313 -0.2898
   17DOPE   H5R 2107   1.771   0.743  16.108  1.0572  1.3911 -0.0069
   17DOPE   H5S 2108   1.825   0.581  16.165 -2.7115  0.2247 -3.2156
   17DOPE   C26 2109   1.981   0.724  16.128  0.3818 -0.1484 -0.2887
   17DOPE   H6R 2110   2.059   0.687  16.199 -1.2815  1.3586  2.5327
   17DOPE   H6S 2111   1.992   0.834  16.122  0.6764 -0.1189  0.6505
   17DOPE   C27 2112   1.994   0.662  15.986  0.2359 -0.5747 -0.6166
   17DOPE   H7R 2113   1.973   0.553  15.980  2.0863 -1.0700  0.7581
   17DOPE   H7S 2114   2.095   0.681  15.943  0.4888 -1.4947 -0.4543
   17DOPE   C28 2115   1.889   0.723  15.883  0.3806  0.1406 -0.2799
   17DOPE   H8R 2116   1.892   0.830  15.912 -0.1480  0.2458 -0.5783
   17DOPE   H8S 2117   1.783   0.698  15.909  0.0234 -0.1103 -1.8609
   17DOPE   C29 2118   1.923   0.685  15.747 -0.4218  0.0978  0.9431
   17DOPE   H9R 2119   1.924   0.575  15.739 -0.8636 -0.0122  2.1641
   17DOPE  C210 2120   1.948   0.768  15.641 -0.8701  0.4897  0.5568
   17DOPE  H10R 2121   1.955   0.725  15.540 -4.0686  2.1952 -0.5280
   17DOPE  C211 2122   1.947   0.923  15.648  0.2007 -0.5526 -0.0875
   17DOPE  H11R 2123   2.044   0.972  15.670  1.9235 -0.8987 -5.4128
   17DOPE  H11S 2124   1.873   0.959  15.722  0.4247 -1.3635  0.5453
   17DOPE  C212 2125   1.921   0.985  15.511  0.2726  0.4507  0.2829
   17DOPE  H12R 2126   1.986   0.932  15.438  1.0848 -0.3746  1.5750
   17DOPE  H12S 2127   1.962   1.087  15.497  1.9711 -0.3180 -0.6892
   17DOPE  C213 2128   1.770   0.994  15.468  0.2323 -0.0640 -0.8045
   17DOPE  H13R 2129   1.711   1.045  15.547  0.9042 -1.0371  0.3589
   17DOPE  H13S 2130   1.718   0.896  15.466  2.2589 -1.2614  0.8860
   17DOPE  C214 2131   1.737   1.078  15.348 -0.0288  0.2558 -0.1660
   17DOPE  H14R 2132   1.776   1.180  15.364 -0.9836  0.7024 -0.6206
   17DOPE  H14S 2133   1.626   1.078  15.339 -0.1853 -1.4114  1.1442
   17DOPE  C215 2134   1.798   1.028  15.216 -0.1086  0.2286 -0.4609
   17DOPE  H15R 2135   1.764   0.926  15.191 -0.6784  0.2318  0.2628
   17DOPE  H15S 2136   1.907   1.024  15.238 -0.5082  0.4777  1.9086
   17DOPE  C216 2137   1.766   1.119  15.091  0.6184  0.9168 -0.2420
   17DOPE  H16R 2138   1.663   1.087  15.065  0.6145 -1.6866  2.4540
   17DOPE  H16S 2139   1.853   1.101  15.024  2.7708  3.2856  1.6952
   17DOPE  C217 2140   1.751   1.267  15.132  0.1393 -0.3557 -0.0960
   17DOPE  H17R 2141   1.854   1.296  15.161 -0.2171  1.0663 -0.1654
   17DOPE  H17S 2142   1.689   1.273  15.224  1.6924 -1.5840  1.0978
   17DOPE  C218 2143   1.712   1.357  15.022  0.5514 -0.4235 -0.0619
   17DOPE  H18R 2144   1.685   1.460  15.055  0.9125 -1.3113  3.3973
   17DOPE  H18S 2145   1.620   1.324  14.970  1.0309  0.7008 -1.7051
   17DOPE  H18T 2146   1.774   1.356  14.930  0.8386 -1.4147  0.1302
   17DOPE   C33 2147   1.344   0.844  16.302 -0.3077  0.1489  0.4341
   17DOPE   H3X 2148   1.421   0.920  16.328  0.4437 -0.4209 -0.1180
   17DOPE   H3Y 2149   1.246   0.898  16.296  1.0093  2.5579 -1.4886
   17DOPE   C34 2150   1.359   0.799  16.156 -0.4813  0.5533 -0.7573
   17DOPE   H4X 2151   1.441   0.724  16.157 -0.2767  0.7583  0.7926
   17DOPE   H4Y 2152   1.260   0.759  16.125 -0.6064 -0.2309  0.5588
   17DOPE   C35 2153   1.405   0.910  16.070 -0.2476  0.2641  0.9137
   17DOPE   H5X 2154   1.506   0.944  16.102  0.4216 -1.7104  0.9998
   17DOPE   H5Y 2155   1.340   1.000  16.080  0.8278  0.9360  2.5001
   17DOPE   C36 2156   1.402   0.879  15.914  0.5346  0.5812 -0.2251
   17DOPE   H6X 2157   1.319   0.806  15.900  1.6520 -0.9744  0.8666
   17DOPE   H6Y 2158   1.491   0.820  15.881  0.2328 -0.3447  0.5746
   17DOPE   C37 2159   1.385   1.002  15.827  0.4271  0.4989  0.4207
   17DOPE   H7X 2160   1.286   1.047  15.851  0.0666  0.8236 -1.5100
   17DOPE   H7Y 2161   1.461   1.074  15.863  0.0096  0.2155  1.9467
   17DOPE   C38 2162   1.414   0.980  15.676 -0.2963 -0.1563 -0.1485
   17DOPE   H8X 2163   1.509   0.924  15.668 -0.5572 -0.4725 -1.1742
   17DOPE   H8Y 2164   1.429   1.081  15.634 -1.9676  0.7594  1.3012
   17DOPE   C39 2165   1.298   0.906  15.617 -0.7930  0.0838  1.1195
   17DOPE   H9X 2166   1.273   0.811  15.668 -0.6761 -0.0453  0.9345
   17DOPE  C310 2167   1.220   0.922  15.504 -0.2050 -0.2325  0.1075
   17DOPE  H10X 2168   1.137   0.854  15.481 -3.2638  4.2552 -4.4351
   17DOPE  C311 2169   1.245   1.038  15.411 -0.0748 -0.3817 -0.2890
   17DOPE  H11X 2170   1.146   1.078  15.379 -0.7680 -2.2768 -0.6286
   17DOPE  H11Y 2171   1.312   1.113  15.459 -0.5835 -0.5052  0.6255
   17DOPE  C312 2172   1.319   0.995  15.282 -0.0716  0.1091 -0.8848
   17DOPE  H12X 2173   1.238   0.934  15.237 -0.0354 -0.8077  0.2216
   17DOPE  H12Y 2174   1.404   0.927  15.302 -1.0691 -1.0258 -0.3413
   17DOPE  C313 2175   1.354   1.101  15.186  0.1425 -0.4000  0.8605
   17DOPE  H13X 2176   1.430   1.174  15.219  0.9876  0.5292 -2.6904
   17DOPE  H13Y 2177   1.406   1.041  15.108  1.1616  0.6463  0.7073
   17DOPE  C314 2178   1.243   1.185  15.123  0.2114  0.1935  0.3946
   17DOPE  H14X 2179   1.195   1.248  15.201  0.9680 -1.5364  2.3527
   17DOPE  H14Y 2180   1.173   1.106  15.088 -0.3456  1.3262 -1.1310
   17DOPE  C315 2181   1.295   1.281  15.019 -0.1510 -0.5444 -0.0982
   17DOPE  H15X 2182   1.319   1.229  14.924 -1.7966  1.8455 -1.9298
   17DOPE  H15Y 2183   1.390   1.328  15.052 -0.4980  0.7449 -0.8861
   17DOPE  C316 2184   1.193   1.392  14.988  0.2479  0.0992 -0.1029
   17DOPE  H16X 2185   1.235   1.472  14.923  0.9528 -1.1124 -1.1740
   17DOPE  H16Y 2186   1.158   1.440  15.082 -1.5009 -1.7830  0.2692
   17DOPE  C317 2187   1.052   1.349  14.936  0.3577 -0.1357 -0.2278
   17DOPE  H17X 2188   1.077   1.283  14.850  1.9345 -1.3681  1.1125
   17DOPE  H17Y 2189   1.017   1.286  15.021  1.0509  2.1151  1.8466
   17DOPE  C318 2190   0.958   1.462  14.893 -0.0364 -0.2930 -0.3406
   17DOPE  H18X 2191   0.863   1.416  14.861  0.2179 -0.3023 -1.0831
   17DOPE  H18Y 2192   0.935   1.517  14.987  0.6668  0.0168 -0.3421
   17DOPE  H18Z 2193   1.003   1.529  14.817 -3.0401  1.0806 -1.0260
   18DOPE     N 2194   5.399   4.652  17.520 -0.1721  0.7007 -0.1694
   18DOPE   HN1 2195   5.419   4.550  17.531  1.9490  0.7693 -2.5553
   18DOPE   HN2 2196   5.455   4.696  17.596  0.1147  1.1737 -0.6497
   18DOPE   HN3 2197   5.296   4.657  17.535 -0.2870 -0.2927 -0.5551
   18DOPE   C12 2198   5.442   4.698  17.374  0.3908  0.6307  0.0901
   18DOPE  H12A 2199   5.402   4.800  17.361 -1.0664  0.1044  0.2825
   18DOPE  H12B 2200   5.395   4.627  17.303 -3.0892  0.5368  2.2809
   18DOPE   C11 2201   5.594   4.700  17.370 -0.6261  0.0704  0.1258
   18DOPE  H11A 2202   5.629   4.743  17.274 -0.1562 -1.1960 -0.2926
   18DOPE  H11B 2203   5.628   4.594  17.365 -0.5165  0.0591  0.9296
   18DOPE     P 2204   5.806   4.747  17.527 -0.2883 -0.1869  0.0326
   18DOPE   O13 2205   5.858   4.615  17.480  0.3024  0.1531 -0.0083
   18DOPE   O14 2206   5.816   4.770  17.675  0.1147 -0.1853 -0.1189
   18DOPE   O11 2207   5.885   4.859  17.451  0.2269 -0.1658 -0.0923
   18DOPE   O12 2208   5.653   4.767  17.481 -0.4837  0.0530 -0.0712
   18DOPE    C1 2209   5.850   4.910  17.320  0.1535  0.0928  0.2433
   18DOPE    HA 2210   5.896   5.011  17.309  1.1370 -0.5486 -2.1354
   18DOPE    HB 2211   5.742   4.922  17.297  0.6578 -1.1216 -3.3995
   18DOPE    C2 2212   5.904   4.828  17.199 -0.1456  0.2332  0.0845
   18DOPE    HS 2213   5.838   4.740  17.181 -1.1093  0.9968 -0.2227
   18DOPE   O21 2214   6.050   4.798  17.201 -0.1435  0.1095 -0.0124
   18DOPE   C21 2215   6.085   4.689  17.138  0.6626  0.2287 -0.1669
   18DOPE   O22 2216   6.003   4.610  17.086 -0.0996 -0.0919 -0.5136
   18DOPE   C22 2217   6.226   4.649  17.173  0.3774 -0.1264 -0.5376
   18DOPE   H2R 2218   6.229   4.538  17.183  0.2209 -0.0356  0.6874
   18DOPE   H2S 2219   6.241   4.684  17.277  2.0618 -0.4800 -0.6324
   18DOPE    C3 2220   5.880   4.920  17.075 -0.4729  0.0210 -0.1917
   18DOPE    HX 2221   5.947   5.007  17.090 -2.1504  1.6391 -1.6846
   18DOPE    HY 2222   5.781   4.968  17.090 -0.6662 -0.4864  0.2070
   18DOPE   O31 2223   5.907   4.863  16.945  0.2692 -0.2839 -0.1432
   18DOPE   C31 2224   5.794   4.815  16.877 -0.4988  0.0365  0.0016
   18DOPE   O32 2225   5.681   4.804  16.924 -0.0719  0.7816 -0.6063
   18DOPE   C32 2226   5.831   4.775  16.734  0.1912 -0.2938  0.6011
   18DOPE   H2X 2227   5.928   4.809  16.692 -0.4942  1.0191 -0.0015
   18DOPE   H2Y 2228   5.828   4.664  16.736  0.4354 -0.3358 -0.8933
   18DOPE   C23 2229   6.326   4.718  17.097 -0.1433  0.1938 -0.2226
   18DOPE   H3R 2230   6.349   4.817  17.143  0.3901 -0.0309  0.0045
   18DOPE   H3S 2231   6.299   4.734  16.990 -0.7420  0.4009 -0.0396
   18DOPE   C24 2232   6.466   4.650  17.086  0.0600 -0.1304  0.2329
   18DOPE   H4R 2233   6.462   4.549  17.042  0.7941  0.7276 -1.9208
   18DOPE   H4S 2234   6.510   4.642  17.188  0.0857 -0.5304  0.1896
   18DOPE   C25 2235   6.571   4.728  17.006  0.4412 -0.3328  0.0187
   18DOPE   H5R 2236   6.667   4.677  17.028 -1.6423 -4.3869  0.7216
   18DOPE   H5S 2237   6.576   4.833  17.040  0.1191 -0.2285 -0.2499
   18DOPE   C26 2238   6.552   4.720  16.850  0.2492 -0.0508 -0.0922
   18DOPE   H6R 2239   6.444   4.743  16.836  0.0335  0.4970  2.1016
   18DOPE   H6S 2240   6.554   4.616  16.811  0.7888  0.2503 -0.8771
   18DOPE   C27 2241   6.641   4.814  16.776 -0.1642 -0.5772 -0.0025
   18DOPE   H7R 2242   6.749   4.797  16.798  0.4969  3.1870  0.3310
   18DOPE   H7S 2243   6.613   4.915  16.814  1.3852 -0.8127  1.9820
   18DOPE   C28 2244   6.640   4.803  16.615 -0.5481  0.5043  0.2829
   18DOPE   H8R 2245   6.534   4.817  16.584  0.1982  2.0982 -1.7823
   18DOPE   H8S 2246   6.672   4.698  16.599  0.2606  0.6069  1.1977
   18DOPE   C29 2247   6.733   4.896  16.543 -0.2394 -0.7613 -0.0127
   18DOPE   H9R 2248   6.834   4.890  16.585  0.4663 -2.7061 -1.8523
   18DOPE  C210 2249   6.716   4.967  16.430  0.1738 -0.2676 -0.5738
   18DOPE  H10R 2250   6.794   5.038  16.398  0.3319  0.4739  1.3181
   18DOPE  C211 2251   6.588   4.958  16.347  0.2751 -0.5671 -0.8470
   18DOPE  H11R 2252   6.608   5.028  16.263 -3.1866  2.6919  0.7473
   18DOPE  H11S 2253   6.505   4.996  16.410  1.4326  0.5501  0.0438
   18DOPE  C212 2254   6.549   4.825  16.279 -0.4562  0.5317 -0.7772
   18DOPE  H12R 2255   6.456   4.849  16.223  0.3009  1.6491 -1.6030
   18DOPE  H12S 2256   6.522   4.758  16.363  2.4790  0.7309  0.4494
   18DOPE  C213 2257   6.661   4.762  16.195 -0.2701  0.4242  0.1601
   18DOPE  H13R 2258   6.631   4.661  16.161  2.1654 -0.4832  0.4852
   18DOPE  H13S 2259   6.757   4.752  16.251 -0.3142 -0.5284  0.0738
   18DOPE  C214 2260   6.674   4.840  16.058 -0.2953 -0.0220 -0.0231
   18DOPE  H14R 2261   6.743   4.926  16.071 -1.3434  1.0020 -0.9723
   18DOPE  H14S 2262   6.572   4.874  16.031 -0.3877 -1.6054 -1.8702
   18DOPE  C215 2263   6.729   4.757  15.939 -0.1422 -0.2217 -0.3047
   18DOPE  H15R 2264   6.656   4.674  15.922 -1.0428  0.2133  1.2776
   18DOPE  H15S 2265   6.828   4.717  15.971  0.0634  2.1205  2.2721
   18DOPE  C216 2266   6.742   4.840  15.807 -0.2314  0.1427  0.3747
   18DOPE  H16R 2267   6.828   4.798  15.749 -0.0385  0.3088  0.5396
   18DOPE  H16S 2268   6.767   4.942  15.840  0.1361  0.2611 -0.2424
   18DOPE  C217 2269   6.615   4.851  15.712 -0.1031 -0.1098 -0.7791
   18DOPE  H17R 2270   6.541   4.883  15.789  1.3590  1.2199  0.1236
   18DOPE  H17S 2271   6.590   4.749  15.673  0.2283 -0.4725 -0.0628
   18DOPE  C218 2272   6.636   4.951  15.600 -0.5082  0.2527  0.8315
   18DOPE  H18R 2273   6.537   4.953  15.551  0.1852  0.3092 -0.6269
   18DOPE  H18S 2274   6.709   4.909  15.527 -1.0368  0.1635  0.3463
   18DOPE  H18T 2275   6.675   5.047  15.639  1.0639 -0.7772  1.9333
   18DOPE   C33 2276   5.722   4.816  16.628  0.3492  0.4558  0.0727
   18DOPE   H3X 2277   5.727   4.927  16.614 -0.9253  0.7310  1.5147
   18DOPE   H3Y 2278   5.621   4.804  16.673  0.7245  1.4951  1.2663
   18DOPE   C34 2279   5.750   4.747  16.490  0.4829  0.3963 -0.2403
   18DOPE   H4X 2280   5.851   4.699  16.488 -0.5555 -1.9253 -0.1305
   18DOPE   H4Y 2281   5.681   4.661  16.481 -0.9526  1.3690  1.0161
   18DOPE   C35 2282   5.735   4.841  16.357 -0.3731 -0.2048  0.0955
   18DOPE   H5X 2283   5.798   4.932  16.359 -0.9714  0.2113  1.2924
   18DOPE   H5Y 2284   5.629   4.871  16.343 -0.4207 -0.1001  0.6496
   18DOPE   C36 2285   5.780   4.763  16.232 -0.8635  0.4417  0.8212
   18DOPE   H6X 2286   5.729   4.664  16.221  1.6635 -0.9234  0.7180
   18DOPE   H6Y 2287   5.889   4.750  16.244 -0.3313  2.3718 -1.2071
   18DOPE   C37 2288   5.756   4.839  16.100 -0.7228  0.0522 -0.0091
   18DOPE   H7X 2289   5.651   4.873  16.086 -0.3297  0.0225 -4.8716
   18DOPE   H7Y 2290   5.813   4.934  16.099 -1.7248  0.6678 -0.2500
   18DOPE   C38 2291   5.798   4.761  15.972 -0.3362 -0.0816  0.1607
   18DOPE   H8X 2292   5.732   4.673  15.955  2.0272 -1.6203 -1.7972
   18DOPE   H8Y 2293   5.898   4.723  16.003 -0.4010 -0.1611  0.2737
   18DOPE   C39 2294   5.790   4.857  15.851 -0.5192  0.4502 -0.1327
   18DOPE   H9X 2295   5.834   4.958  15.859 -1.3228  0.9001 -1.2037
   18DOPE  C310 2296   5.781   4.817  15.720 -0.3054  0.1144  0.0597
   18DOPE  H10X 2297   5.791   4.898  15.646 -0.9321 -1.3011 -1.6268
   18DOPE  C311 2298   5.748   4.688  15.656  0.0918  0.2917 -1.0921
   18DOPE  H11X 2299   5.754   4.617  15.742 -0.6363 -0.6468 -1.8067
   18DOPE  H11Y 2300   5.644   4.702  15.620 -0.4039  0.3400  0.2955
   18DOPE  C312 2301   5.835   4.633  15.541  0.0932 -0.2752 -0.4691
   18DOPE  H12X 2302   5.826   4.522  15.548  1.3928 -0.2845  1.9737
   18DOPE  H12Y 2303   5.942   4.647  15.567 -0.3604  0.8818  0.8509
   18DOPE  C313 2304   5.798   4.692  15.406 -0.6174 -0.0097 -0.4691
   18DOPE  H13X 2305   5.701   4.649  15.372 -1.2366  1.3507 -0.4804
   18DOPE  H13Y 2306   5.789   4.802  15.417  0.7096  0.3793 -2.5869
   18DOPE  C314 2307   5.892   4.648  15.295 -0.2007 -0.0539 -0.1822
   18DOPE  H14X 2308   5.911   4.539  15.300  0.6234  0.0745 -0.4912
   18DOPE  H14Y 2309   5.995   4.684  15.313 -0.1515 -0.7857  1.1621
   18DOPE  C315 2310   5.845   4.694  15.159 -0.8747 -0.0618 -0.5633
   18DOPE  H15X 2311   5.934   4.702  15.094 -0.0290 -0.7340  0.4868
   18DOPE  H15Y 2312   5.799   4.794  15.176 -1.0212 -0.3964  1.1807
   18DOPE  C316 2313   5.737   4.597  15.107  0.2755  0.8465  0.0492
   18DOPE  H16X 2314   5.641   4.622  15.157  1.2615  0.0735  2.4738
   18DOPE  H16Y 2315   5.772   4.497  15.141  0.4681  0.8350 -0.1790
   18DOPE  C317 2316   5.714   4.600  14.954 -0.3440  0.7915  0.3118
   18DOPE  H17X 2317   5.660   4.690  14.917 -0.2299  0.9713  0.5825
   18DOPE  H17Y 2318   5.817   4.599  14.911 -0.7629 -3.7211 -1.0552
   18DOPE  C318 2319   5.635   4.475  14.905 -0.2071  0.4061 -0.0444
   18DOPE  H18X 2320   5.600   4.500  14.803 -2.9339  0.1425  0.7338
   18DOPE  H18Y 2321   5.679   4.373  14.915  0.1663  0.5170 -0.5555
   18DOPE  H18Z 2322   5.538   4.465  14.959  0.7473  1.9684  2.0981
   19DOPE     N 2323   6.540   6.077  17.509 -0.2265 -0.5470  0.8262
   19DOPE   HN1 2324   6.501   6.049  17.417  0.2046 -0.8282  0.7292
   19DOPE   HN2 2325   6.508   6.176  17.519 -1.8272 -0.7465 -1.4286
   19DOPE   HN3 2326   6.643   6.066  17.511  0.0292  0.9081 -1.0348
   19DOPE   C12 2327   6.486   5.995  17.625  0.2828 -1.2489  0.4242
   19DOPE  H12A 2328   6.548   6.034  17.709  2.3103 -0.3583 -1.3850
   19DOPE  H12B 2329   6.528   5.896  17.599  1.6817 -0.1304 -1.9335
   19DOPE   C11 2330   6.332   5.993  17.638  0.4734 -0.4971  0.0524
   19DOPE  H11A 2331   6.286   6.094  17.625 -0.2197 -0.5030  2.1160
   19DOPE  H11B 2332   6.319   5.956  17.742 -1.1999  2.6974  1.1249
   19DOPE     P 2333   6.121   5.899  17.536  0.3557 -0.1942 -0.0469
   19DOPE   O13 2334   6.087   6.001  17.439  0.1341 -0.0686  0.2693
   19DOPE   O14 2335   6.058   5.913  17.671  0.1854 -0.2518 -0.3568
   19DOPE   O11 2336   6.078   5.755  17.484  0.2986 -0.5230  0.2046
   19DOPE   O12 2337   6.278   5.897  17.551 -0.2977  0.4390 -0.2544
   19DOPE    C1 2338   6.175   5.662  17.436 -0.0592 -0.1835  0.1991
   19DOPE    HA 2339   6.135   5.559  17.438  0.6918 -0.4974 -0.3277
   19DOPE    HB 2340   6.249   5.647  17.518  0.4103 -1.9368 -0.5136
   19DOPE    C2 2341   6.244   5.701  17.298 -0.0731 -0.7395  0.3695
   19DOPE    HS 2342   6.288   5.801  17.317  0.1694 -0.6348 -0.6771
   19DOPE   O21 2343   6.136   5.704  17.200  0.0128 -0.0367  0.1461
   19DOPE   C21 2344   6.177   5.754  17.089 -0.0155 -0.3313 -0.3032
   19DOPE   O22 2345   6.287   5.798  17.063  0.6492 -0.3977  0.1572
   19DOPE   C22 2346   6.059   5.738  16.989  0.3235  0.5582  0.2226
   19DOPE   H2R 2347   6.016   5.840  16.979 -0.6086  0.4478  2.4445
   19DOPE   H2S 2348   5.991   5.662  17.033  1.1985 -1.2312 -1.3970
   19DOPE    C3 2349   6.362   5.598  17.280 -0.1033 -0.1058  0.3277
   19DOPE    HX 2350   6.439   5.622  17.356 -0.6172  2.5029  0.1286
   19DOPE    HY 2351   6.404   5.611  17.178  1.9349 -2.5459  0.7649
   19DOPE   O31 2352   6.322   5.463  17.314 -0.1223 -0.2276 -0.7883
   19DOPE   C31 2353   6.267   5.405  17.213 -0.5320  0.0638  0.6478
   19DOPE   O32 2354   6.246   5.455  17.100 -0.5434 -0.6305 -0.9208
   19DOPE   C32 2355   6.231   5.261  17.249 -0.4423 -0.2907 -0.0623
   19DOPE   H2X 2356   6.323   5.203  17.271  0.5888  1.4545  0.4270
   19DOPE   H2Y 2357   6.169   5.259  17.340  2.1348 -2.4066  1.7985
   19DOPE   C23 2358   6.114   5.670  16.860 -0.7338 -0.6940 -0.2426
   19DOPE   H3R 2359   6.037   5.625  16.793 -0.6551  1.5205 -1.9509
   19DOPE   H3S 2360   6.174   5.584  16.896  1.9942  0.8244 -0.9175
   19DOPE   C24 2361   6.198   5.768  16.772 -0.4464 -0.0350 -0.0671
   19DOPE   H4R 2362   6.279   5.818  16.829  0.2925 -0.3023 -0.8539
   19DOPE   H4S 2363   6.136   5.843  16.719  0.4717  0.6086 -0.2524
   19DOPE   C25 2364   6.273   5.682  16.661  0.2324 -0.1401 -0.3527
   19DOPE   H5R 2365   6.193   5.632  16.603 -0.5159 -1.0548  1.3796
   19DOPE   H5S 2366   6.336   5.605  16.710 -1.1849  0.2024  2.1841
   19DOPE   C26 2367   6.361   5.766  16.566 -0.5219 -0.0647 -0.2897
   19DOPE   H6R 2368   6.435   5.698  16.520 -0.4760  1.0441 -1.9317
   19DOPE   H6S 2369   6.421   5.842  16.622  0.0259 -0.7657  0.0962
   19DOPE   C27 2370   6.287   5.845  16.459 -0.8890  0.3117 -0.3535
   19DOPE   H7R 2371   6.358   5.914  16.409  1.2164 -1.7413 -0.3704
   19DOPE   H7S 2372   6.214   5.913  16.507  0.3241  1.1506  0.3601
   19DOPE   C28 2373   6.214   5.760  16.354 -0.1539  0.1737  0.4068
   19DOPE   H8R 2374   6.118   5.722  16.394 -0.1823 -1.1111 -0.8106
   19DOPE   H8S 2375   6.280   5.671  16.344 -0.5901 -0.0384 -0.7910
   19DOPE   C29 2376   6.203   5.832  16.223  0.4083 -0.0708  0.0805
   19DOPE   H9R 2377   6.175   5.937  16.240 -0.9024 -0.5412  1.0936
   19DOPE  C210 2378   6.218   5.789  16.101 -0.8284 -0.4518  1.0296
   19DOPE  H10R 2379   6.199   5.860  16.018  0.9712  1.1025  1.8834
   19DOPE  C211 2380   6.265   5.648  16.050  0.3659  0.1884  0.0118
   19DOPE  H11R 2381   6.177   5.580  16.044  0.2861  0.3643 -0.9576
   19DOPE  H11S 2382   6.343   5.609  16.119 -1.5562 -0.6213  1.8195
   19DOPE  C212 2383   6.333   5.643  15.907  0.1890  0.0238 -0.7113
   19DOPE  H12R 2384   6.374   5.540  15.897 -0.9964 -0.3109 -2.6849
   19DOPE  H12S 2385   6.419   5.714  15.903  0.2397  0.1165  1.0495
   19DOPE  C213 2386   6.232   5.680  15.803  0.3004 -0.0891 -0.0798
   19DOPE  H13R 2387   6.194   5.784  15.806 -2.3112 -1.0041  1.7372
   19DOPE  H13S 2388   6.142   5.619  15.825 -1.6767  3.2092  1.6658
   19DOPE  C214 2389   6.282   5.667  15.654  0.2910 -0.5974 -0.1648
   19DOPE  H14R 2390   6.320   5.564  15.635 -0.5196 -0.9140 -0.1557
   19DOPE  H14S 2391   6.364   5.737  15.629 -0.8919  0.6503 -0.6486
   19DOPE  C215 2392   6.162   5.686  15.555 -0.3788  0.9180  0.6040
   19DOPE  H15R 2393   6.142   5.795  15.548  0.6465  1.1275  0.7851
   19DOPE  H15S 2394   6.075   5.626  15.589 -1.2783  0.4178 -2.3306
   19DOPE  C216 2395   6.206   5.635  15.418  0.1250 -0.0251  0.1355
   19DOPE  H16R 2396   6.226   5.527  15.433  1.7003  0.3427  0.8608
   19DOPE  H16S 2397   6.299   5.693  15.404  0.7464 -0.6108  1.6714
   19DOPE  C217 2398   6.109   5.673  15.304  0.5197  0.0404 -0.3813
   19DOPE  H17R 2399   6.075   5.778  15.312  2.4099  0.9088 -2.5739
   19DOPE  H17S 2400   6.016   5.614  15.321  0.5219 -0.0390 -0.6304
   19DOPE  C218 2401   6.165   5.656  15.168 -0.3830  0.3692  0.4150
   19DOPE  H18R 2402   6.205   5.553  15.156  3.0323  1.3921  1.9874
   19DOPE  H18S 2403   6.236   5.737  15.142  0.4497  0.0658  1.6713
   19DOPE  H18T 2404   6.083   5.672  15.094  1.4457 -2.0589 -2.3913
   19DOPE   C33 2405   6.156   5.190  17.134  0.3680  0.8602  0.6699
   19DOPE   H3X 2406   6.081   5.262  17.097  0.2788  0.5534  0.2476
   19DOPE   H3Y 2407   6.107   5.100  17.177 -0.5449  0.8840 -0.2904
   19DOPE   C34 2408   6.256   5.144  17.021 -0.1647 -1.1587  0.3094
   19DOPE   H4X 2409   6.319   5.227  16.983  0.6801 -1.0626  1.8435
   19DOPE   H4Y 2410   6.332   5.075  17.064  0.0652 -1.1446 -0.0688
   19DOPE   C35 2411   6.194   5.085  16.893 -0.2834  0.7487  0.7881
   19DOPE   H5X 2412   6.116   5.148  16.846 -0.5206  0.1730  0.3900
   19DOPE   H5Y 2413   6.141   4.995  16.933 -0.0681  0.6821  0.9250
   19DOPE   C36 2414   6.299   5.036  16.788  0.4781  0.6742  0.5979
   19DOPE   H6X 2415   6.375   4.972  16.839 -0.4106 -0.5792  0.4027
   19DOPE   H6Y 2416   6.345   5.123  16.737  0.8894  0.3019  0.3196
   19DOPE   C37 2417   6.223   4.960  16.672  0.1717 -0.1658 -0.4043
   19DOPE   H7X 2418   6.301   4.907  16.613 -0.1370  0.0744 -1.0351
   19DOPE   H7Y 2419   6.164   4.875  16.711  0.3669 -0.0916  0.0619
   19DOPE   C38 2420   6.160   5.049  16.572  0.5897 -0.5859  0.7655
   19DOPE   H8X 2421   6.231   5.118  16.521  0.6416 -0.2980  1.2273
   19DOPE   H8Y 2422   6.075   5.103  16.620  1.6776  1.1103  0.8910
   19DOPE   C39 2423   6.099   4.965  16.460 -0.2107  0.0928 -0.4448
   19DOPE   H9X 2424   6.036   4.883  16.497 -0.0847  0.8956  1.7573
   19DOPE  C310 2425   6.112   4.979  16.332 -0.0266 -0.0632 -0.2948
   19DOPE  H10X 2426   6.053   4.915  16.264  0.4181  0.3331 -1.0637
   19DOPE  C311 2427   6.181   5.086  16.256  0.1892  0.0999  0.4420
   19DOPE  H11X 2428   6.142   5.181  16.297  2.5727 -0.4541  4.5616
   19DOPE  H11Y 2429   6.290   5.082  16.277  0.0534 -0.4650  1.0588
   19DOPE  C312 2430   6.158   5.085  16.107  0.3128 -0.4038  0.3372
   19DOPE  H12X 2431   6.056   5.109  16.070  0.5074  0.7903  0.5419
   19DOPE  H12Y 2432   6.197   4.991  16.062 -0.5757 -0.0945 -1.1469
   19DOPE  C313 2433   6.252   5.183  16.030 -0.2197  0.3005 -0.0139
   19DOPE  H13X 2434   6.233   5.286  16.068 -0.7829  0.0649  0.3461
   19DOPE  H13Y 2435   6.357   5.150  16.049  0.4522  2.8220  1.1205
   19DOPE  C314 2436   6.232   5.191  15.879  0.0563  0.7615  0.0911
   19DOPE  H14X 2437   6.306   5.266  15.846  0.1353 -0.0276 -1.6635
   19DOPE  H14Y 2438   6.132   5.237  15.864  0.6132  1.5009 -1.5275
   19DOPE  C315 2439   6.244   5.061  15.800 -0.0955  0.2291  0.1972
   19DOPE  H15X 2440   6.166   4.986  15.825  0.8760 -0.9352 -0.1953
   19DOPE  H15Y 2441   6.339   5.015  15.833 -0.6182 -0.5172  0.7134
   19DOPE  C316 2442   6.240   5.096  15.652 -0.1560  0.3880 -0.1472
   19DOPE  H16X 2443   6.324   5.167  15.633 -2.0204  2.6378 -0.4485
   19DOPE  H16Y 2444   6.147   5.148  15.620 -2.5314 -1.4173  3.2315
   19DOPE  C317 2445   6.256   4.967  15.564  0.7319 -0.0073  0.5807
   19DOPE  H17X 2446   6.287   4.996  15.462 -0.0027 -2.9566 -0.5842
   19DOPE  H17Y 2447   6.327   4.898  15.616 -0.2945 -1.8269 -0.3161
   19DOPE  C318 2448   6.119   4.895  15.557 -0.2978  0.4944  0.1155
   19DOPE  H18X 2449   6.077   4.885  15.660  0.8085 -2.5049  0.3608
   19DOPE  H18Y 2450   6.061   4.964  15.492 -1.1479 -0.6152 -0.3301
   19DOPE  H18Z 2451   6.124   4.803  15.496  1.4432 -0.6554  1.8841
   20DOPE     N 2452   4.317   1.805  17.338  0.6476 -0.5467  0.0320
   20DOPE   HN1 2453   4.369   1.813  17.248 -0.7775 -0.1154 -0.7970
   20DOPE   HN2 2454   4.295   1.903  17.368 -1.7338 -0.9931 -0.0577
   20DOPE   HN3 2455   4.391   1.776  17.405  2.6975  0.6723 -1.5718
   20DOPE   C12 2456   4.199   1.708  17.318 -0.0916  0.5699 -0.2302
   20DOPE  H12A 2457   4.154   1.722  17.217 -1.8670 -3.1618 -0.1263
   20DOPE  H12B 2458   4.123   1.742  17.392  1.5724  3.3020  0.3751
   20DOPE   C11 2459   4.242   1.563  17.318  0.4754 -0.1818  0.6549
   20DOPE  H11A 2460   4.255   1.528  17.422  1.2409 -2.2523 -0.0824
   20DOPE  H11B 2461   4.343   1.560  17.270  1.8792  0.9591  3.2977
   20DOPE     P 2462   4.021   1.419  17.323  0.0551  0.0796 -0.3267
   20DOPE   O13 2463   3.953   1.530  17.389 -0.1428 -0.5003  0.6150
   20DOPE   O14 2464   4.076   1.316  17.411 -0.5974  1.0289 -0.6321
   20DOPE   O11 2465   3.916   1.353  17.224  0.6726  0.1542  0.5937
   20DOPE   O12 2466   4.143   1.484  17.240 -0.4176  0.5223 -0.2182
   20DOPE    C1 2467   3.881   1.413  17.100  0.0181 -0.1827  0.0447
   20DOPE    HA 2468   3.853   1.520  17.103  2.2850  0.4537  2.6185
   20DOPE    HB 2469   3.794   1.353  17.066  0.8584 -1.2579 -0.2776
   20DOPE    C2 2470   3.994   1.400  16.998 -0.4455 -0.4512 -0.8085
   20DOPE    HS 2471   4.068   1.480  17.016 -1.1691  0.0185  0.1440
   20DOPE   O21 2472   3.941   1.436  16.874 -0.0637 -0.0125  0.3183
   20DOPE   C21 2473   3.861   1.358  16.795 -0.6084 -0.5735 -0.2246
   20DOPE   O22 2474   3.795   1.262  16.821  0.0447  0.0997 -0.2753
   20DOPE   C22 2475   3.860   1.428  16.655  0.3292 -0.3127 -0.3974
   20DOPE   H2R 2476   3.964   1.456  16.630  0.9165 -2.4947 -0.6236
   20DOPE   H2S 2477   3.800   1.522  16.657  1.5292  0.5088 -1.3471
   20DOPE    C3 2478   4.051   1.258  16.998 -0.5843  0.5302  0.6484
   20DOPE    HX 2479   3.971   1.181  17.007  0.0825 -0.1902  0.5657
   20DOPE    HY 2480   4.118   1.239  17.084  0.8037 -1.4409 -0.7693
   20DOPE   O31 2481   4.135   1.230  16.878 -0.1258  0.2147 -0.2286
   20DOPE   C31 2482   4.253   1.264  16.870 -0.2395 -0.1756  0.2714
   20DOPE   O32 2483   4.322   1.331  16.948  0.5849  0.2626  0.8568
   20DOPE   C32 2484   4.297   1.209  16.728 -0.2672 -0.2718  0.2073
   20DOPE   H2X 2485   4.405   1.236  16.722  0.2798 -2.3016  0.4225
   20DOPE   H2Y 2486   4.277   1.101  16.715  0.2845 -0.1850 -1.6899
   20DOPE   C23 2487   3.810   1.338  16.543  0.0961 -0.8846 -0.1145
   20DOPE   H3R 2488   3.711   1.293  16.564 -0.2506  0.0457  0.2908
   20DOPE   H3S 2489   3.883   1.258  16.519 -0.0275 -1.6188  1.7420
   20DOPE   C24 2490   3.784   1.414  16.408 -0.3956 -0.6679  0.4626
   20DOPE   H4R 2491   3.878   1.462  16.373 -0.8118  0.6378  1.0796
   20DOPE   H4S 2492   3.706   1.493  16.407  1.7153  1.5659  0.9687
   20DOPE   C25 2493   3.751   1.313  16.298  0.0180  0.3653  0.1044
   20DOPE   H5R 2494   3.660   1.265  16.338  1.1930 -0.3616  2.0732
   20DOPE   H5S 2495   3.821   1.229  16.282  0.4053  0.7285 -0.1354
   20DOPE   C26 2496   3.730   1.394  16.167 -0.1639  0.6954  0.5261
   20DOPE   H6R 2497   3.825   1.449  16.153 -0.0370  0.4893  0.5780
   20DOPE   H6S 2498   3.649   1.470  16.177 -1.2749 -0.0413 -1.9966
   20DOPE   C27 2499   3.707   1.319  16.038 -0.7889 -0.1423  0.7864
   20DOPE   H7R 2500   3.613   1.262  16.053 -1.0871  0.4764  1.3119
   20DOPE   H7S 2501   3.787   1.245  16.017 -0.1125  0.7520  0.1046
   20DOPE   C28 2502   3.700   1.411  15.910 -0.2464  0.5048 -0.5904
   20DOPE   H8R 2503   3.805   1.445  15.894  0.3635 -0.5095  0.9534
   20DOPE   H8S 2504   3.650   1.506  15.938  0.0215  1.4026 -2.9870
   20DOPE   C29 2505   3.629   1.349  15.799 -0.4247  0.3360  0.3724
   20DOPE   H9R 2506   3.525   1.322  15.822 -0.2292 -0.3739  0.4539
   20DOPE  C210 2507   3.678   1.320  15.674 -0.1514  0.3849  0.0863
   20DOPE  H10R 2508   3.610   1.273  15.601  1.2276  0.4434 -1.2808
   20DOPE  C211 2509   3.820   1.347  15.629  0.1731 -0.5439 -0.2852
   20DOPE  H11R 2510   3.872   1.252  15.652 -0.8610 -0.9278  0.5811
   20DOPE  H11S 2511   3.861   1.431  15.688  1.7383 -2.1671  1.0182
   20DOPE  C212 2512   3.825   1.374  15.478  0.0366  0.2745  0.1486
   20DOPE  H12R 2513   3.790   1.290  15.415 -3.3186  1.6231 -0.0134
   20DOPE  H12S 2514   3.931   1.396  15.452 -0.5110 -0.6197 -3.3041
   20DOPE  C213 2515   3.742   1.501  15.431  0.2542 -0.2631  0.6760
   20DOPE  H13R 2516   3.781   1.579  15.500  0.7063  1.0321 -0.9775
   20DOPE  H13S 2517   3.634   1.491  15.453  0.0966 -1.4950 -0.4884
   20DOPE  C214 2518   3.761   1.537  15.280  0.4893 -1.1132  0.9018
   20DOPE  H14R 2519   3.706   1.631  15.258  0.3750 -1.1604  0.9854
   20DOPE  H14S 2520   3.714   1.462  15.212  1.0754 -1.1310  0.5144
   20DOPE  C215 2521   3.908   1.538  15.245 -0.0765 -0.2464  0.4116
   20DOPE  H15R 2522   3.965   1.450  15.282  2.6760  1.5890  0.7973
   20DOPE  H15S 2523   3.955   1.623  15.297  0.7524 -2.1548  2.9989
   20DOPE  C216 2524   3.926   1.547  15.093  0.9308  0.2676 -0.1763
   20DOPE  H16R 2525   3.845   1.484  15.049  0.3169  0.2486  0.9403
   20DOPE  H16S 2526   4.027   1.507  15.069  0.4370 -0.0843 -1.7667
   20DOPE  C217 2527   3.920   1.690  15.041 -0.3088  0.0171 -0.3592
   20DOPE  H17R 2528   3.989   1.750  15.103 -1.2976  0.7651  0.0352
   20DOPE  H17S 2529   3.819   1.729  15.065  0.0604  0.4714  0.4787
   20DOPE  C218 2530   3.951   1.698  14.890  0.1235 -0.2582 -0.0379
   20DOPE  H18R 2531   3.871   1.645  14.834 -2.6881  1.3347  2.1815
   20DOPE  H18S 2532   4.054   1.660  14.870  1.0257  1.1249  1.6647
   20DOPE  H18T 2533   3.952   1.804  14.857 -0.0031 -0.0438  0.6299
   20DOPE   C33 2534   4.217   1.278  16.614  0.0497  0.7656  0.5204
   20DOPE   H3X 2535   4.202   1.388  16.618 -0.4113  0.9326 -2.8351
   20DOPE   H3Y 2536   4.114   1.237  16.624  0.7217 -1.2500 -0.3367
   20DOPE   C34 2537   4.258   1.241  16.472 -0.5151 -0.1429 -0.0935
   20DOPE   H4X 2538   4.361   1.281  16.455 -0.3860 -0.4771 -0.1107
   20DOPE   H4Y 2539   4.265   1.131  16.468 -0.1026 -0.2622  2.4381
   20DOPE   C35 2540   4.173   1.293  16.364  0.0519 -0.1186 -0.1776
   20DOPE   H5X 2541   4.179   1.404  16.362 -0.0717  0.0695  3.4068
   20DOPE   H5Y 2542   4.065   1.270  16.375 -0.6105  1.1212 -3.1771
   20DOPE   C36 2543   4.230   1.240  16.226 -0.2668 -0.4023  0.4896
   20DOPE   H6X 2544   4.232   1.129  16.223 -1.6515 -0.4400 -1.7490
   20DOPE   H6Y 2545   4.337   1.266  16.214 -0.4808  1.3412  1.9567
   20DOPE   C37 2546   4.141   1.280  16.114 -0.1404  0.7686  0.0613
   20DOPE   H7X 2547   4.039   1.235  16.117  0.3651 -0.4228 -0.0411
   20DOPE   H7Y 2548   4.126   1.389  16.125 -1.7147  0.6854 -0.9722
   20DOPE   C38 2549   4.212   1.257  15.975  0.4740  0.4360 -0.5762
   20DOPE   H8X 2550   4.233   1.149  15.965  0.2753  0.0806  2.0429
   20DOPE   H8Y 2551   4.317   1.288  15.998  1.3232 -2.4718 -0.1718
   20DOPE   C39 2552   4.148   1.334  15.864  0.6238  0.4673 -0.1634
   20DOPE   H9X 2553   4.107   1.434  15.888 -0.6297  0.0282 -0.4084
   20DOPE  C310 2554   4.144   1.292  15.735 -0.3879  0.6279 -0.5229
   20DOPE  H10X 2555   4.095   1.360  15.664 -2.2871 -2.1873 -2.0649
   20DOPE  C311 2556   4.211   1.165  15.678 -0.0083 -0.0701  0.0779
   20DOPE  H11X 2557   4.260   1.096  15.751 -2.8910 -0.8428  1.4588
   20DOPE  H11Y 2558   4.131   1.092  15.651 -0.2796  0.2080  0.1225
   20DOPE  C312 2559   4.295   1.186  15.548  0.4419 -0.1606 -0.7015
   20DOPE  H12X 2560   4.225   1.243  15.484 -1.0778 -1.9278 -0.7148
   20DOPE  H12Y 2561   4.309   1.081  15.513 -0.5914 -1.1369  1.6283
   20DOPE  C313 2562   4.430   1.255  15.562  0.2238  0.8020  0.5144
   20DOPE  H13X 2563   4.408   1.327  15.644 -2.6798 -1.9744  2.3952
   20DOPE  H13Y 2564   4.515   1.191  15.595  0.1936  0.5079  0.0295
   20DOPE  C314 2565   4.461   1.334  15.433 -0.0695  0.1164 -0.0029
   20DOPE  H14X 2566   4.540   1.409  15.455  0.4348 -0.4523  0.1369
   20DOPE  H14Y 2567   4.375   1.395  15.399  0.1753 -1.0681 -2.9644
   20DOPE  C315 2568   4.509   1.238  15.318 -0.2521 -0.2026 -0.1709
   20DOPE  H15X 2569   4.570   1.153  15.356  1.9984  1.1536 -0.6085
   20DOPE  H15Y 2570   4.572   1.283  15.239 -1.1544 -0.2558 -0.9317
   20DOPE  C316 2571   4.398   1.169  15.234 -0.0353  0.1889  0.2700
   20DOPE  H16X 2572   4.356   1.250  15.171 -1.4031  0.0027  0.9161
   20DOPE  H16Y 2573   4.328   1.135  15.314 -0.8315  0.6288 -0.2303
   20DOPE  C317 2574   4.453   1.050  15.148  0.3230  0.5421  0.0574
   20DOPE  H17X 2575   4.537   1.087  15.085  0.5726 -0.8860 -0.5109
   20DOPE  H17Y 2576   4.489   0.970  15.216 -0.6441 -1.3852 -1.5874
   20DOPE  C318 2577   4.346   0.984  15.055 -0.4540  0.0975 -0.6564
   20DOPE  H18X 2578   4.389   0.896  15.002 -0.7018 -0.9577  0.8482
   20DOPE  H18Y 2579   4.258   0.951  15.114  0.1260  2.0743  1.4795
   20DOPE  H18Z 2580   4.306   1.059  14.982  0.4368  1.7968  0.5344
   21DOPE     N 2581   2.233   2.279  17.673 -0.4550  0.4825 -0.3405
   21DOPE   HN1 2582   2.165   2.205  17.704  1.4281 -1.3171 -0.2745
   21DOPE   HN2 2583   2.326   2.240  17.698 -0.7088  0.0525 -0.0528
   21DOPE   HN3 2584   2.208   2.372  17.711  0.8017  1.5796 -2.0754
   21DOPE   C12 2585   2.217   2.275  17.525 -0.2693  0.0841 -0.6761
   21DOPE  H12A 2586   2.293   2.339  17.476 -0.5988  1.0739  0.0742
   21DOPE  H12B 2587   2.116   2.315  17.504 -0.1969  1.5845  1.4642
   21DOPE   C11 2588   2.225   2.129  17.466  0.7021 -0.6917  0.2963
   21DOPE  H11A 2589   2.331   2.103  17.489  1.4450  0.7927 -1.2610
   21DOPE  H11B 2590   2.209   2.149  17.358  1.9336 -1.0300  0.0288
   21DOPE     P 2591   2.151   1.894  17.553  0.2223  0.0777  0.0835
   21DOPE   O13 2592   2.027   1.831  17.611 -0.0128 -0.9932  0.2519
   21DOPE   O14 2593   2.277   1.884  17.633  0.0447  0.1507  0.5894
   21DOPE   O11 2594   2.187   1.829  17.414 -0.2926  0.6425  0.0055
   21DOPE   O12 2595   2.123   2.047  17.522  0.5379 -0.2779 -0.2522
   21DOPE    C1 2596   2.108   1.856  17.299 -0.1484 -0.0575 -0.4763
   21DOPE    HA 2597   2.088   1.964  17.282  1.5364 -0.0032 -2.4490
   21DOPE    HB 2598   2.006   1.821  17.325  0.0163  0.5288  1.1290
   21DOPE    C2 2599   2.168   1.782  17.180 -0.6173 -0.3768 -0.0426
   21DOPE    HS 2600   2.148   1.673  17.193 -1.4688 -0.2214 -0.0097
   21DOPE   O21 2601   2.307   1.803  17.164  0.0506  0.6865  0.4435
   21DOPE   C21 2602   2.385   1.713  17.195 -0.0055 -0.3660  1.1919
   21DOPE   O22 2603   2.360   1.610  17.254  0.3164  0.6887 -0.8447
   21DOPE   C22 2604   2.524   1.733  17.125  0.5632  0.3758  0.2208
   21DOPE   H2R 2605   2.542   1.650  17.053  2.3611  0.6687  0.2815
   21DOPE   H2S 2606   2.601   1.736  17.205 -0.0072  0.2374  0.7838
   21DOPE    C3 2607   2.094   1.817  17.047 -0.2537 -0.6938 -0.5644
   21DOPE    HX 2608   2.092   1.928  17.041 -0.2858 -0.7529 -2.2092
   21DOPE    HY 2609   1.990   1.780  17.045  0.0479 -1.5941 -0.1477
   21DOPE   O31 2610   2.159   1.771  16.926  0.6745  0.4042  0.0518
   21DOPE   C31 2611   2.166   1.644  16.914  0.2163 -0.2987  0.2737
   21DOPE   O32 2612   2.105   1.563  16.984  0.5598  0.1354  0.3333
   21DOPE   C32 2613   2.284   1.599  16.823  0.1674  0.8258  0.3482
   21DOPE   H2X 2614   2.371   1.557  16.879 -0.8329 -0.8890  0.6768
   21DOPE   H2Y 2615   2.249   1.517  16.757  0.9720  0.3643  0.4716
   21DOPE   C23 2616   2.525   1.861  17.033 -0.1572 -0.1975  0.6060
   21DOPE   H3R 2617   2.529   1.943  17.107  2.1144  0.7974 -0.5016
   21DOPE   H3S 2618   2.436   1.870  16.967  1.2297 -2.7067 -1.8232
   21DOPE   C24 2619   2.652   1.879  16.947 -0.4976  0.1741  0.2367
   21DOPE   H4R 2620   2.659   1.781  16.896  2.0341  1.0574 -1.2932
   21DOPE   H4S 2621   2.741   1.892  17.012  0.0589 -1.3710 -0.1792
   21DOPE   C25 2622   2.653   1.983  16.836  0.1856 -0.0702  0.2188
   21DOPE   H5R 2623   2.675   2.081  16.883  1.0098  0.4270 -1.1339
   21DOPE   H5S 2624   2.551   1.971  16.793  0.4567  0.7165 -0.6916
   21DOPE   C26 2625   2.773   1.976  16.738  0.1529 -0.5675 -0.2194
   21DOPE   H6R 2626   2.771   1.879  16.685  0.7373 -0.1286 -1.0663
   21DOPE   H6S 2627   2.868   1.990  16.794 -0.1495  1.8988 -0.2201
   21DOPE   C27 2628   2.778   2.090  16.637  0.5101 -0.0465  0.0969
   21DOPE   H7R 2629   2.868   2.072  16.575 -1.0033 -2.3472 -1.6082
   21DOPE   H7S 2630   2.773   2.191  16.683 -2.0659  0.5694 -1.3143
   21DOPE   C28 2631   2.660   2.096  16.534  0.0487 -0.0361  0.0766
   21DOPE   H8R 2632   2.667   2.193  16.481  2.0977 -0.3308 -0.3051
   21DOPE   H8S 2633   2.573   2.113  16.601  0.0555  0.9103 -0.1513
   21DOPE   C29 2634   2.645   1.975  16.447 -0.6924  0.0430  0.2593
   21DOPE   H9R 2635   2.640   1.881  16.504  1.7686 -0.9239 -0.9687
   21DOPE  C210 2636   2.635   1.966  16.314  0.3108 -0.1131  0.3064
   21DOPE  H10R 2637   2.627   1.862  16.278  1.2234 -0.1593  0.2093
   21DOPE  C211 2638   2.625   2.071  16.206  0.2133  0.0933 -0.8044
   21DOPE  H11R 2639   2.653   2.173  16.241  0.7210  0.1803 -1.4468
   21DOPE  H11S 2640   2.519   2.076  16.174  0.3745  0.0429 -1.3673
   21DOPE  C212 2641   2.703   2.031  16.076 -0.4822 -0.0832 -0.4952
   21DOPE  H12R 2642   2.689   1.922  16.059 -2.0583  0.1001 -0.5151
   21DOPE  H12S 2643   2.812   2.045  16.092 -0.5572 -0.7317  0.6905
   21DOPE  C213 2644   2.654   2.105  15.949 -0.8097  0.4892  0.5365
   21DOPE  H13R 2645   2.675   2.213  15.967  0.0142  0.3941  0.1806
   21DOPE  H13S 2646   2.551   2.073  15.922 -1.4807  1.7065  1.5288
   21DOPE  C214 2647   2.749   2.078  15.830  0.5149 -0.1166 -0.8042
   21DOPE  H14R 2648   2.739   1.970  15.807  2.5298 -0.1383 -1.8645
   21DOPE  H14S 2649   2.857   2.097  15.851  0.1698 -0.2176  1.2810
   21DOPE  C215 2650   2.715   2.144  15.697  0.4671 -0.1655 -0.3183
   21DOPE  H15R 2651   2.805   2.144  15.632  0.2392 -1.0480 -0.6516
   21DOPE  H15S 2652   2.689   2.250  15.718  1.4233 -0.3814  2.3358
   21DOPE  C216 2653   2.610   2.068  15.609 -0.1383 -0.7858  0.5430
   21DOPE  H16R 2654   2.517   2.035  15.659 -0.1335 -2.0718 -0.2598
   21DOPE  H16S 2655   2.659   1.976  15.570 -0.1630 -0.4079 -0.4075
   21DOPE  C217 2656   2.564   2.154  15.491 -0.0259 -0.2117 -0.6809
   21DOPE  H17R 2657   2.648   2.180  15.422  0.5486  1.0225  0.4317
   21DOPE  H17S 2658   2.522   2.247  15.534 -0.6690  0.3180 -2.3645
   21DOPE  C218 2659   2.463   2.084  15.401 -0.0343  0.9528  0.0374
   21DOPE  H18R 2660   2.440   2.141  15.309 -0.8982 -0.6067 -0.7537
   21DOPE  H18S 2661   2.376   2.051  15.462  0.5216  0.0191  0.3606
   21DOPE  H18T 2662   2.516   1.991  15.370 -0.0184  1.7108 -2.3644
   21DOPE   C33 2663   2.332   1.705  16.725  0.4277 -0.2889 -0.3609
   21DOPE   H3X 2664   2.399   1.769  16.787 -1.4047  1.6062 -0.2309
   21DOPE   H3Y 2665   2.251   1.764  16.677 -0.4001  0.1487  1.4955
   21DOPE   C34 2666   2.390   1.650  16.597 -0.2008 -0.0640  0.1324
   21DOPE   H4X 2667   2.447   1.726  16.540 -0.3478  1.3307  1.7810
   21DOPE   H4Y 2668   2.465   1.571  16.621  0.1619  0.2146 -0.0703
   21DOPE   C35 2669   2.285   1.593  16.495 -0.0349 -0.3766 -0.0254
   21DOPE   H5X 2670   2.215   1.678  16.480  1.2661  0.4082 -1.9069
   21DOPE   H5Y 2671   2.240   1.503  16.543  0.4796 -1.4938 -1.5745
   21DOPE   C36 2672   2.350   1.559  16.361  0.0003  0.0778  0.5887
   21DOPE   H6X 2673   2.279   1.500  16.299  1.0393 -1.3434  0.6835
   21DOPE   H6Y 2674   2.432   1.492  16.395 -0.0314  0.0607  0.6302
   21DOPE   C37 2675   2.400   1.684  16.287  0.1481 -0.0801  0.9303
   21DOPE   H7X 2676   2.335   1.774  16.291  0.4905  0.2459 -0.3448
   21DOPE   H7Y 2677   2.491   1.718  16.340  0.2471  1.8305 -0.3704
   21DOPE   C38 2678   2.428   1.659  16.135 -0.0584 -0.0559  0.3882
   21DOPE   H8X 2679   2.508   1.581  16.135  0.0428 -0.0300 -1.8005
   21DOPE   H8Y 2680   2.473   1.749  16.087 -0.2955  0.5378  1.2559
   21DOPE   C39 2681   2.305   1.618  16.053  0.1221 -0.4508 -0.4542
   21DOPE   H9X 2682   2.243   1.545  16.107  0.7836 -0.5219  0.2264
   21DOPE  C310 2683   2.266   1.668  15.937 -0.2045  0.3006  0.2827
   21DOPE  H10X 2684   2.183   1.622  15.882  1.6405 -1.1230 -1.4953
   21DOPE  C311 2685   2.357   1.771  15.861 -0.2334  0.1155  0.0070
   21DOPE  H11X 2686   2.350   1.872  15.907 -1.4620 -0.7359  1.8270
   21DOPE  H11Y 2687   2.465   1.746  15.863 -0.3081 -0.1819  1.3170
   21DOPE  C312 2688   2.338   1.776  15.703 -0.0279 -0.8377  0.1695
   21DOPE  H12X 2689   2.422   1.829  15.653 -1.3944  0.3519 -0.9671
   21DOPE  H12Y 2690   2.236   1.814  15.684  0.0042 -0.4185  0.8198
   21DOPE  C313 2691   2.352   1.642  15.632 -0.3213  0.8946 -0.1922
   21DOPE  H13X 2692   2.449   1.590  15.644 -1.2944 -0.9299  0.0451
   21DOPE  H13Y 2693   2.273   1.574  15.671 -0.7573  0.7208 -1.3396
   21DOPE  C314 2694   2.320   1.650  15.482  0.0511  0.9069 -0.2465
   21DOPE  H14X 2695   2.382   1.721  15.424  1.4552 -0.1996 -0.1441
   21DOPE  H14Y 2696   2.210   1.666  15.473  0.1900  1.9212 -0.2039
   21DOPE  C315 2697   2.343   1.521  15.411  0.4446  0.2128 -0.0623
   21DOPE  H15X 2698   2.294   1.431  15.454 -0.3941  0.0960 -1.2099
   21DOPE  H15Y 2699   2.453   1.511  15.409  0.4432  0.0970  0.4078
   21DOPE  C316 2700   2.304   1.530  15.263 -0.3590  0.4810  0.0544
   21DOPE  H16X 2701   2.348   1.442  15.211 -1.0089 -0.1457  0.5446
   21DOPE  H16Y 2702   2.343   1.620  15.211 -1.1119  0.6393 -0.2412
   21DOPE  C317 2703   2.153   1.520  15.242 -0.1424  0.0267  0.4501
   21DOPE  H17X 2704   2.104   1.436  15.297  0.6661 -0.6798  0.0976
   21DOPE  H17Y 2705   2.112   1.614  15.286  0.7777  0.8274 -0.3743
   21DOPE  C318 2706   2.109   1.506  15.095  0.4075 -0.5411  0.0134
   21DOPE  H18X 2707   2.136   1.403  15.065  1.5212 -0.9108  2.1347
   21DOPE  H18Y 2708   1.999   1.521  15.088  0.6415  0.8028 -1.6276
   21DOPE  H18Z 2709   2.158   1.583  15.031  1.1645 -1.0832 -0.0677
   22DOPE     N 2710   0.021   5.668  17.497 -0.8493 -0.2096 -0.7427
   22DOPE   HN1 2711  -0.035   5.720  17.426  0.4906 -0.2227 -1.8536
   22DOPE   HN2 2712  -0.037   5.582  17.499 -1.2558  0.0755  0.5948
   22DOPE   HN3 2713   0.020   5.711  17.592 -1.5677 -1.0132 -0.3704
   22DOPE   C12 2714   0.161   5.649  17.450 -0.0822  0.4791  0.0713
   22DOPE  H12A 2715   0.151   5.590  17.357  0.7553 -0.2233  0.4196
   22DOPE  H12B 2716   0.215   5.587  17.525 -0.6805 -1.3034 -0.9257
   22DOPE   C11 2717   0.239   5.776  17.419  0.4119 -0.7000 -0.2417
   22DOPE  H11A 2718   0.180   5.833  17.344 -0.6053  0.1022  1.1331
   22DOPE  H11B 2719   0.335   5.739  17.376  1.7100  0.8731  1.2090
   22DOPE     P 2720   0.191   5.984  17.562 -0.0817  0.2623  0.0471
   22DOPE   O13 2721   0.226   6.040  17.697 -0.8321  0.0445 -0.1631
   22DOPE   O14 2722   0.049   5.980  17.524 -0.0908 -0.5785 -0.4365
   22DOPE   O11 2723   0.277   6.063  17.452  0.3346 -0.0919  0.0901
   22DOPE   O12 2724   0.258   5.845  17.542 -0.4565 -0.1746  0.5059
   22DOPE    C1 2725   0.222   6.189  17.404 -0.2000 -1.0690 -0.2066
   22DOPE    HA 2726   0.303   6.253  17.363  1.9196 -3.2755  0.3451
   22DOPE    HB 2727   0.186   6.253  17.487 -1.2420  0.3452 -1.6644
   22DOPE    C2 2728   0.134   6.183  17.271 -0.2008  0.0297 -0.6441
   22DOPE    HS 2729   0.044   6.121  17.291  0.6303 -1.2569 -0.7904
   22DOPE   O21 2730   0.221   6.128  17.166  0.3940 -0.1819 -0.0537
   22DOPE   C21 2731   0.169   6.030  17.099  0.4468  0.2894  0.1330
   22DOPE   O22 2732   0.072   5.964  17.127  0.2429 -0.2239  0.0659
   22DOPE   C22 2733   0.262   5.997  16.974 -0.8385 -0.5763 -0.4369
   22DOPE   H2R 2734   0.339   5.922  17.005 -0.7835 -0.4327 -0.2207
   22DOPE   H2S 2735   0.320   6.090  16.952 -0.7368 -0.6489 -0.4775
   22DOPE    C3 2736   0.080   6.327  17.241  0.0549  0.5948  0.3699
   22DOPE    HX 2737   0.163   6.402  17.236  2.6441 -2.0103  1.5098
   22DOPE    HY 2738   0.010   6.344  17.325  1.6448  0.8269  1.6932
   22DOPE   O31 2739   0.009   6.318  17.112 -0.0254  0.0317 -0.6297
   22DOPE   C31 2740  -0.116   6.260  17.117 -0.1315  0.3437 -0.0079
   22DOPE   O32 2741  -0.168   6.223  17.224  0.1205 -0.1892 -0.6124
   22DOPE   C32 2742  -0.171   6.264  16.976  0.3846  0.3357  0.0148
   22DOPE   H2X 2743  -0.184   6.371  16.950 -0.2552  0.2382 -0.0901
   22DOPE   H2Y 2744  -0.101   6.239  16.893 -1.1761  1.6575 -1.7963
   22DOPE   C23 2745   0.182   5.953  16.855  0.3858  0.5882  0.5596
   22DOPE   H3R 2746   0.095   5.891  16.887 -0.7402  0.6636 -2.0849
   22DOPE   H3S 2747   0.233   5.894  16.776 -3.3102 -0.1074 -1.5699
   22DOPE   C24 2748   0.120   6.071  16.778  0.5867 -0.2925 -0.0875
   22DOPE   H4R 2749   0.194   6.143  16.736  1.3544 -1.4725 -0.7944
   22DOPE   H4S 2750   0.064   6.130  16.854  2.2724  1.0859  0.1569
   22DOPE   C25 2751   0.024   6.024  16.670  0.3022  0.1488  0.4337
   22DOPE   H5R 2752  -0.012   6.113  16.615  3.1628  0.5286 -1.0144
   22DOPE   H5S 2753  -0.068   5.990  16.721  0.9905  3.1602  4.0666
   22DOPE   C26 2754   0.074   5.916  16.568 -0.0591 -0.1549 -0.8331
   22DOPE   H6R 2755   0.075   5.825  16.631 -0.0036  1.9471  2.4252
   22DOPE   H6S 2756   0.177   5.940  16.536  0.7740 -0.7769  1.2344
   22DOPE   C27 2757  -0.020   5.899  16.446 -0.8443  0.1682 -0.0354
   22DOPE   H7R 2758  -0.040   5.997  16.399  0.7244  1.1313  1.2348
   22DOPE   H7S 2759  -0.116   5.859  16.486  0.4860 -1.3430  1.8304
   22DOPE   C28 2760   0.033   5.804  16.339 -0.4050 -0.1501  0.1691
   22DOPE   H8R 2761   0.063   5.704  16.378 -1.0957 -0.3759  0.1490
   22DOPE   H8S 2762   0.126   5.849  16.300 -0.9903  0.2221 -0.8339
   22DOPE   C29 2763  -0.068   5.777  16.229  1.5205 -0.2667  0.0137
   22DOPE   H9R 2764  -0.170   5.751  16.262  1.2746  0.4766 -0.1213
   22DOPE  C210 2765  -0.053   5.798  16.098  0.4070 -0.8890  0.0250
   22DOPE  H10R 2766  -0.139   5.768  16.036  0.0411 -1.1427  0.6420
   22DOPE  C211 2767   0.074   5.844  16.031 -0.3514 -0.2568 -0.2004
   22DOPE  H11R 2768   0.158   5.831  16.103 -0.0114 -0.3348 -0.6029
   22DOPE  H11S 2769   0.061   5.953  16.019  1.0743  0.2906  2.4447
   22DOPE  C212 2770   0.119   5.779  15.893 -0.8702 -0.1198 -0.3399
   22DOPE  H12R 2771   0.111   5.668  15.893 -0.3522 -0.2666  3.2004
   22DOPE  H12S 2772   0.224   5.806  15.867 -0.3087 -1.0185  0.8962
   22DOPE  C213 2773   0.034   5.826  15.778  0.2655 -0.3283  0.2262
   22DOPE  H13R 2774   0.034   5.937  15.777 -0.6969 -0.3102  0.7786
   22DOPE  H13S 2775  -0.067   5.791  15.810  0.2970 -0.4254  0.2176
   22DOPE  C214 2776   0.078   5.774  15.642  0.1876  0.2789 -0.4358
   22DOPE  H14R 2777   0.096   5.666  15.662  1.7968  0.6740  0.4108
   22DOPE  H14S 2778   0.174   5.821  15.612  0.8213 -0.1318  0.8598
   22DOPE  C215 2779  -0.034   5.795  15.540  0.1714 -0.2258 -0.1982
   22DOPE  H15R 2780  -0.068   5.900  15.542 -0.9954 -0.5494 -1.5071
   22DOPE  H15S 2781  -0.113   5.725  15.574  1.2021 -1.0830  0.5026
   22DOPE  C216 2782   0.009   5.748  15.398 -0.5875 -0.1032  0.3817
   22DOPE  H16R 2783   0.045   5.643  15.406 -2.0058 -0.5864  0.7044
   22DOPE  H16S 2784   0.086   5.820  15.362 -0.1113 -1.0776 -0.6129
   22DOPE  C217 2785  -0.113   5.736  15.310  0.5373 -0.0153  0.8138
   22DOPE  H17R 2786  -0.185   5.818  15.327 -0.2536 -0.3150 -0.9231
   22DOPE  H17S 2787  -0.167   5.647  15.349 -1.9410  0.6682 -0.8459
   22DOPE  C218 2788  -0.078   5.710  15.159  0.3522 -0.1338 -0.8820
   22DOPE  H18R 2789  -0.009   5.624  15.146 -0.6254 -1.2566  0.8721
   22DOPE  H18S 2790  -0.030   5.805  15.126  0.3820  0.4796  0.8265
   22DOPE  H18T 2791  -0.173   5.697  15.103 -0.8294 -1.5787  1.2964
   22DOPE   C33 2792  -0.306   6.185  16.955  0.0989  0.0326 -0.4093
   22DOPE   H3X 2793  -0.380   6.235  17.021  0.0010  0.9053 -1.1696
   22DOPE   H3Y 2794  -0.296   6.083  16.998  0.9453 -0.6321 -2.1184
   22DOPE   C34 2795  -0.352   6.171  16.814  0.1717 -0.6053  0.1489
   22DOPE   H4X 2796  -0.278   6.110  16.758  1.1460 -1.9332  2.7047
   22DOPE   H4Y 2797  -0.444   6.110  16.808 -0.2742  0.0432  0.2910
   22DOPE   C35 2798  -0.373   6.308  16.754 -0.5597  0.4249  0.2058
   22DOPE   H5X 2799  -0.290   6.379  16.768 -0.2229  0.4999 -1.7788
   22DOPE   H5Y 2800  -0.458   6.360  16.804 -0.0960  1.7506 -0.3424
   22DOPE   C36 2801  -0.398   6.303  16.606  0.6717 -0.0399 -0.3206
   22DOPE   H6X 2802  -0.422   6.409  16.581  1.4678 -0.1830 -1.7484
   22DOPE   H6Y 2803  -0.479   6.235  16.572 -0.4227  2.1520 -2.3955
   22DOPE   C37 2804  -0.276   6.258  16.520  0.4701 -0.0955 -0.5113
   22DOPE   H7X 2805  -0.188   6.316  16.554  0.4984 -0.8289  0.7266
   22DOPE   H7Y 2806  -0.259   6.151  16.546  1.3042  0.4444  1.3132
   22DOPE   C38 2807  -0.302   6.283  16.369 -0.2961  0.0197 -0.3250
   22DOPE   H8X 2808  -0.343   6.385  16.350 -0.1124  0.1434 -0.0592
   22DOPE   H8Y 2809  -0.388   6.216  16.348  0.5490 -0.7679 -1.3762
   22DOPE   C39 2810  -0.168   6.246  16.299 -0.8442  0.3274 -0.1048
   22DOPE   H9X 2811  -0.078   6.294  16.339 -1.0721 -1.3414  2.7640
   22DOPE  C310 2812  -0.161   6.159  16.197  0.1284 -0.0789 -0.4034
   22DOPE  H10X 2813  -0.065   6.129  16.154  0.5143  0.7235 -0.1203
   22DOPE  C311 2814  -0.282   6.110  16.119  0.3052  0.1346  0.0158
   22DOPE  H11X 2815  -0.311   6.009  16.156  0.9187  0.1113  0.4452
   22DOPE  H11Y 2816  -0.373   6.172  16.136 -0.7666 -0.9717 -1.4239
   22DOPE  C312 2817  -0.244   6.111  15.973  0.0542 -0.0079  0.1206
   22DOPE  H12X 2818  -0.168   6.034  15.945  0.2690  0.3557 -0.2999
   22DOPE  H12Y 2819  -0.200   6.209  15.946  0.8357 -0.7554 -1.4807
   22DOPE  C313 2820  -0.367   6.080  15.883  0.4480 -0.2985 -0.0932
   22DOPE  H13X 2821  -0.409   5.978  15.898  0.7565 -0.3516  0.4093
   22DOPE  H13Y 2822  -0.452   6.146  15.912  0.3059 -0.8939  0.8654
   22DOPE  C314 2823  -0.337   6.099  15.733  0.2139  0.1312 -0.6797
   22DOPE  H14X 2824  -0.239   6.063  15.697  0.5885  2.0211 -1.7191
   22DOPE  H14Y 2825  -0.335   6.209  15.716 -1.5785  0.1343 -1.0274
   22DOPE  C315 2826  -0.447   6.034  15.648  0.4437 -0.4871 -0.1197
   22DOPE  H15X 2827  -0.545   6.085  15.661 -0.3674 -1.4567 -2.0332
   22DOPE  H15Y 2828  -0.463   5.929  15.684  1.1797 -0.9179 -1.0188
   22DOPE  C316 2829  -0.404   6.011  15.495 -0.2597  0.4100 -0.0832
   22DOPE  H16X 2830  -0.477   5.944  15.445 -1.2462  0.9214  0.6297
   22DOPE  H16Y 2831  -0.300   5.970  15.502 -0.0838  0.4833 -1.8849
   22DOPE  C317 2832  -0.377   6.136  15.409  0.4397  0.2019 -0.1428
   22DOPE  H17X 2833  -0.294   6.193  15.457 -0.0658  1.2962 -0.5507
   22DOPE  H17Y 2834  -0.347   6.098  15.309 -2.7688  0.4813 -1.3150
   22DOPE  C318 2835  -0.498   6.231  15.379  0.1786 -0.0108  0.3867
   22DOPE  H18X 2836  -0.456   6.305  15.307  1.0677  0.1639  1.0659
   22DOPE  H18Y 2837  -0.583   6.174  15.335  0.7535 -0.3240 -0.3535
   22DOPE  H18Z 2838  -0.541   6.286  15.465 -1.2255 -1.1664  0.4570
   23DOPE     N 2839   2.740   1.239  17.480  0.0777  0.1806  0.3989
   23DOPE   HN1 2840   2.683   1.251  17.566  0.3271 -0.7154  0.6919
   23DOPE   HN2 2841   2.744   1.139  17.453  1.6467 -0.0529  1.3729
   23DOPE   HN3 2842   2.835   1.268  17.512 -0.1346 -0.2231  1.4190
   23DOPE   C12 2843   2.686   1.316  17.360  0.2170  0.0357  0.1054
   23DOPE  H12A 2844   2.585   1.275  17.339  0.1999 -0.2301  0.6885
   23DOPE  H12B 2845   2.757   1.307  17.275 -0.5681  1.0243 -0.6753
   23DOPE   C11 2846   2.671   1.468  17.388  0.0106  0.2156  0.2670
   23DOPE  H11A 2847   2.591   1.474  17.465  0.3693 -0.5787  0.7109
   23DOPE  H11B 2848   2.653   1.523  17.293  1.5893  0.4603  0.0929
   23DOPE     P 2849   2.808   1.676  17.482 -0.3680  0.1716  0.1456
   23DOPE   O13 2850   2.942   1.690  17.544  0.0184  0.1624  0.7695
   23DOPE   O14 2851   2.702   1.718  17.572  0.0012 -0.0216 -0.1293
   23DOPE   O11 2852   2.796   1.746  17.345 -0.5955  0.3433 -0.0276
   23DOPE   O12 2853   2.786   1.523  17.451  0.0029 -0.5727 -0.4322
   23DOPE    C1 2854   2.885   1.713  17.235 -0.1672 -0.1169  0.4437
   23DOPE    HA 2855   2.823   1.717  17.143  1.2841  0.0799 -0.5424
   23DOPE    HB 2856   2.942   1.619  17.249 -0.7116 -0.9572 -2.3657
   23DOPE    C2 2857   2.993   1.825  17.228 -0.5165  0.7781 -0.3830
   23DOPE    HS 2858   3.023   1.848  17.332 -0.5284 -0.8739  0.0064
   23DOPE   O21 2859   2.925   1.935  17.161  0.0146 -0.1748 -0.1052
   23DOPE   C21 2860   2.985   2.050  17.175 -0.6254  0.1503 -0.1313
   23DOPE   O22 2861   3.093   2.063  17.231  0.2182 -0.3492 -0.2073
   23DOPE   C22 2862   2.912   2.150  17.091 -0.1542  0.1147  0.3314
   23DOPE   H2R 2863   2.851   2.212  17.159 -0.6285 -0.0633  0.0690
   23DOPE   H2S 2864   2.849   2.104  17.012  1.3640 -4.1811  1.3465
   23DOPE    C3 2865   3.128   1.773  17.164  0.3155 -0.4961  0.6527
   23DOPE    HX 2866   3.162   1.674  17.203  1.2362 -0.3323  0.2786
   23DOPE    HY 2867   3.208   1.847  17.184 -0.3018  0.8498 -1.5779
   23DOPE   O31 2868   3.104   1.746  17.022 -0.6698 -0.0608 -0.6985
   23DOPE   C31 2869   3.153   1.838  16.937  0.1709 -0.5781  0.2519
   23DOPE   O32 2870   3.225   1.936  16.961  0.3625 -0.0718 -0.0002
   23DOPE   C32 2871   3.116   1.803  16.792 -0.1792 -0.6535  0.2317
   23DOPE   H2X 2872   3.160   1.704  16.767  0.2502 -0.6018  0.7536
   23DOPE   H2Y 2873   3.007   1.786  16.777 -0.6733  2.8842 -0.9491
   23DOPE   C23 2874   3.008   2.227  17.002 -0.1259  0.2947  0.2638
   23DOPE   H3R 2875   3.039   2.161  16.919  1.5409  3.0781 -1.5047
   23DOPE   H3S 2876   3.095   2.257  17.063 -0.0823 -0.4994  0.6016
   23DOPE   C24 2877   2.932   2.346  16.947  0.0576 -0.4742  0.3325
   23DOPE   H4R 2878   2.888   2.400  17.034 -0.0081 -0.8152  0.5119
   23DOPE   H4S 2879   2.846   2.316  16.883 -1.1555 -0.9711  2.1217
   23DOPE   C25 2880   3.017   2.433  16.855  0.0062  1.1072 -0.1839
   23DOPE   H5R 2881   3.120   2.420  16.895  0.7376 -1.2981 -2.5210
   23DOPE   H5S 2882   2.993   2.541  16.859  0.6133  1.2300  0.2122
   23DOPE   C26 2883   3.030   2.376  16.707  0.9202  0.2983  0.1547
   23DOPE   H6R 2884   2.987   2.273  16.707  1.9292 -0.1359  0.1173
   23DOPE   H6S 2885   3.137   2.366  16.680  0.7234  1.3530 -1.0908
   23DOPE   C27 2886   2.967   2.458  16.593  0.4232  0.7312 -0.3797
   23DOPE   H7R 2887   3.019   2.555  16.582 -1.1423  1.4834 -1.5006
   23DOPE   H7S 2888   2.864   2.480  16.628  0.2467 -2.7427  1.7996
   23DOPE   C28 2889   2.961   2.385  16.454 -0.4516  0.0695  0.5982
   23DOPE   H8R 2890   2.895   2.297  16.460  0.0529 -0.2836  1.0360
   23DOPE   H8S 2891   3.062   2.347  16.428 -0.9149 -0.8192  0.0420
   23DOPE   C29 2892   2.911   2.479  16.345  0.1903 -0.1318 -0.2116
   23DOPE   H9R 2893   2.844   2.558  16.380 -1.0591 -0.0965 -2.5021
   23DOPE  C210 2894   2.934   2.469  16.212 -0.1444  0.3153 -0.1916
   23DOPE  H10R 2895   2.900   2.555  16.154 -3.2130 -1.9991 -2.1539
   23DOPE  C211 2896   3.022   2.368  16.136  0.4928  0.0706  0.0151
   23DOPE  H11R 2897   2.971   2.273  16.110 -0.7120  0.4995  0.7052
   23DOPE  H11S 2898   3.102   2.341  16.208  0.1773  1.0182  0.7527
   23DOPE  C212 2899   3.100   2.412  16.006 -0.3808 -0.3296 -0.4218
   23DOPE  H12R 2900   3.169   2.329  15.981 -0.5869 -0.1539 -1.6504
   23DOPE  H12S 2901   3.165   2.498  16.028  1.1260 -1.0156 -1.9842
   23DOPE  C213 2902   3.011   2.447  15.891 -0.5311  0.0901  0.2432
   23DOPE  H13R 2903   2.952   2.539  15.913 -0.7953 -0.0585  0.1643
   23DOPE  H13S 2904   2.935   2.367  15.902 -1.1898  0.9346  2.4037
   23DOPE  C214 2905   3.074   2.451  15.748 -0.3332  0.2901 -0.3805
   23DOPE  H14R 2906   3.136   2.360  15.741 -0.1799  0.2811  0.9573
   23DOPE  H14S 2907   3.141   2.539  15.736 -1.3814  1.3415  1.1035
   23DOPE  C215 2908   2.963   2.456  15.635  0.3542  0.2216  0.4801
   23DOPE  H15R 2909   2.889   2.536  15.656 -1.3527 -1.2511  0.3281
   23DOPE  H15S 2910   2.910   2.358  15.640  0.4402  0.1535  0.0505
   23DOPE  C216 2911   3.022   2.487  15.496  0.2791 -0.3862  0.2255
   23DOPE  H16R 2912   3.083   2.397  15.471  0.6229 -0.6914  2.0461
   23DOPE  H16S 2913   3.084   2.579  15.500 -1.3420  0.7112  1.2046
   23DOPE  C217 2914   2.910   2.515  15.392 -1.1817  1.0897 -0.0034
   23DOPE  H17R 2915   2.835   2.590  15.428 -1.1639  0.7887  0.6783
   23DOPE  H17S 2916   2.853   2.422  15.374 -0.1686  0.6833 -1.1782
   23DOPE  C218 2917   2.975   2.554  15.263  1.0358 -0.4504  0.7019
   23DOPE  H18R 2918   3.067   2.494  15.248  1.2331 -0.2941  1.2844
   23DOPE  H18S 2919   3.014   2.658  15.264  0.6560 -0.3083  1.3884
   23DOPE  H18T 2920   2.903   2.550  15.178  1.0533  0.1328  0.6563
   23DOPE   C33 2921   3.181   1.906  16.694  1.0461  0.4040 -0.2546
   23DOPE   H3X 2922   3.292   1.909  16.687  0.9979  0.4425 -1.2702
   23DOPE   H3Y 2923   3.154   2.012  16.715 -0.4572 -0.2816  1.4847
   23DOPE   C34 2924   3.137   1.869  16.552  0.3588 -0.6563 -0.3923
   23DOPE   H4X 2925   3.204   1.789  16.515  1.5234  1.5267 -3.3982
   23DOPE   H4Y 2926   3.033   1.830  16.554 -0.6018  1.7563 -0.1567
   23DOPE   C35 2927   3.169   1.986  16.456 -0.4734  0.1306 -0.3162
   23DOPE   H5X 2928   3.279   1.992  16.453 -0.3703  0.5393  2.2294
   23DOPE   H5Y 2929   3.135   2.083  16.500 -0.0371 -1.1405  3.1170
   23DOPE   C36 2930   3.115   1.950  16.316 -0.2851  0.0755  0.0533
   23DOPE   H6X 2931   3.004   1.942  16.319 -0.1541 -1.8279  1.7011
   23DOPE   H6Y 2932   3.156   1.850  16.292  1.0444  0.7309 -0.5386
   23DOPE   C37 2933   3.162   2.044  16.207  0.2663  0.7310  0.4636
   23DOPE   H7X 2934   3.122   2.147  16.217 -2.5479  0.1427 -2.7954
   23DOPE   H7Y 2935   3.271   2.054  16.225  0.3641 -1.1525  1.0983
   23DOPE   C38 2936   3.114   2.013  16.073 -0.0307 -0.1603  0.5101
   23DOPE   H8X 2937   3.091   2.101  16.008  0.2048 -0.9745 -0.7085
   23DOPE   H8Y 2938   3.012   1.969  16.083 -0.3058 -0.3126 -2.1856
   23DOPE   C39 2939   3.208   1.917  15.997 -0.3053 -0.6835 -0.3543
   23DOPE   H9X 2940   3.282   1.868  16.061  1.6186 -0.1931 -2.0842
   23DOPE  C310 2941   3.204   1.895  15.868 -0.2910  0.5100  0.1116
   23DOPE  H10X 2942   3.288   1.834  15.830 -0.3207  0.9267 -0.6370
   23DOPE  C311 2943   3.112   1.965  15.776 -0.7190 -0.2860  0.4729
   23DOPE  H11X 2944   3.017   1.911  15.797 -0.7749 -0.4419 -0.1775
   23DOPE  H11Y 2945   3.100   2.069  15.815 -1.3936  0.4519 -1.5529
   23DOPE  C312 2946   3.146   1.965  15.625 -0.2562  0.0093 -0.3394
   23DOPE  H12X 2947   3.153   1.861  15.587 -1.1151 -0.7515  1.4271
   23DOPE  H12Y 2948   3.242   2.019  15.610  0.1835 -0.5854  0.2873
   23DOPE  C313 2949   3.038   2.039  15.547  0.1626 -0.2816  0.5415
   23DOPE  H13X 2950   2.934   1.998  15.554  0.1358 -0.5517 -1.0579
   23DOPE  H13Y 2951   3.027   2.140  15.592  1.2262  0.4458 -0.7671
   23DOPE  C314 2952   3.072   2.042  15.398 -0.1020  0.3991  0.4814
   23DOPE  H14X 2953   3.064   1.937  15.361 -2.5057  0.7584 -0.1940
   23DOPE  H14Y 2954   3.172   2.088  15.383 -0.2168  0.5330  0.1181
   23DOPE  C315 2955   2.962   2.112  15.320 -0.3370 -0.2713  0.2139
   23DOPE  H15X 2956   2.986   2.220  15.306  0.5517 -0.3623  0.9346
   23DOPE  H15Y 2957   2.866   2.099  15.375  0.7926 -3.0187  1.6795
   23DOPE  C316 2958   2.940   2.050  15.182 -0.4132 -0.4767  0.3167
   23DOPE  H16X 2959   2.847   2.089  15.135  0.1014 -1.0871 -1.2632
   23DOPE  H16Y 2960   2.917   1.943  15.202 -1.0160 -0.2243  1.0346
   23DOPE  C317 2961   3.062   2.068  15.090 -0.1343 -0.6092 -0.0101
   23DOPE  H17X 2962   3.075   2.178  15.078  1.2195 -0.6798  0.5268
   23DOPE  H17Y 2963   3.159   2.038  15.135  1.3107 -1.1281 -3.1966
   23DOPE  C318 2964   3.059   2.009  14.952 -0.6356  0.4194  0.3577
   23DOPE  H18X 2965   3.153   2.036  14.899  0.3797  0.1698  1.9653
   23DOPE  H18Y 2966   3.057   1.898  14.960  1.0511  0.4013  0.9453
   23DOPE  H18Z 2967   2.969   2.029  14.890 -1.3549 -1.8433  0.5655
   24DOPE     N 2968   5.831   6.074  17.357 -0.2906 -0.0471  0.2163
   24DOPE   HN1 2969   5.825   5.981  17.404  2.9528 -0.4628  0.0756
   24DOPE   HN2 2970   5.835   6.058  17.255 -2.6479  2.0449 -0.2827
   24DOPE   HN3 2971   5.928   6.103  17.383 -0.3767 -0.8721  1.5396
   24DOPE   C12 2972   5.749   6.183  17.403 -0.7192  0.0978  0.2458
   24DOPE  H12A 2973   5.808   6.277  17.396 -0.6634 -0.0427 -1.6687
   24DOPE  H12B 2974   5.727   6.164  17.510  1.2418 -2.4138  0.2951
   24DOPE   C11 2975   5.621   6.195  17.316 -1.0406 -0.3050 -0.7677
   24DOPE  H11A 2976   5.587   6.091  17.297  0.8809 -0.9151 -1.0597
   24DOPE  H11B 2977   5.651   6.251  17.225  1.1186  0.8335  0.5654
   24DOPE     P 2978   5.507   6.419  17.411 -0.4092  0.2565  0.4805
   24DOPE   O13 2979   5.635   6.489  17.403 -0.0591 -0.2323 -0.4637
   24DOPE   O14 2980   5.417   6.442  17.528  0.1668 -0.4899  0.5089
   24DOPE   O11 2981   5.438   6.463  17.281 -0.4716 -0.4257 -0.1802
   24DOPE   O12 2982   5.519   6.260  17.389 -0.4751  0.0596 -0.4809
   24DOPE    C1 2983   5.329   6.375  17.237 -0.4690  0.2424  0.3568
   24DOPE    HA 2984   5.227   6.401  17.271 -2.0073 -3.7409 -0.6611
   24DOPE    HB 2985   5.344   6.267  17.261  0.5724 -0.1072 -1.6704
   24DOPE    C2 2986   5.313   6.384  17.083  0.3034  0.1957  0.2066
   24DOPE    HS 2987   5.228   6.318  17.053  1.2922 -2.2976  2.4208
   24DOPE   O21 2988   5.427   6.336  17.006  0.3189  0.4533  0.1085
   24DOPE   C21 2989   5.470   6.211  17.022 -0.2892 -0.2487 -0.2497
   24DOPE   O22 2990   5.407   6.121  17.077  0.9191 -0.3712 -0.3411
   24DOPE   C22 2991   5.604   6.191  16.949  0.7886  0.2444  0.1890
   24DOPE   H2R 2992   5.665   6.101  16.971 -0.2678 -0.6434 -0.4310
   24DOPE   H2S 2993   5.673   6.272  16.981  0.3315  0.1837  1.3555
   24DOPE    C3 2994   5.277   6.527  17.044 -0.0516 -0.3010  0.5797
   24DOPE    HX 2995   5.343   6.607  17.085 -0.1413  0.6578 -1.0756
   24DOPE    HY 2996   5.177   6.554  17.083  1.2491  1.0805  3.2921
   24DOPE   O31 2997   5.261   6.546  16.899 -0.7197 -0.6012 -0.0275
   24DOPE   C31 2998   5.363   6.598  16.830  0.6816 -0.1058  0.4748
   24DOPE   O32 2999   5.459   6.655  16.871 -0.3013 -0.1531 -0.2446
   24DOPE   C32 3000   5.338   6.588  16.681 -0.3259 -0.2208 -0.7063
   24DOPE   H2X 3001   5.242   6.532  16.670  0.1483 -1.0827 -0.5243
   24DOPE   H2Y 3002   5.316   6.690  16.643 -1.2439 -0.3270 -0.4811
   24DOPE   C23 3003   5.591   6.183  16.789  0.1584  0.1702  0.6089
   24DOPE   H3R 3004   5.497   6.240  16.777  0.3623  0.8816  2.2613
   24DOPE   H3S 3005   5.578   6.074  16.768 -1.2822  0.0198  2.1022
   24DOPE   C24 3006   5.717   6.233  16.725  0.2975 -0.3822 -0.0725
   24DOPE   H4R 3007   5.800   6.174  16.767  0.1213 -0.7087 -0.1809
   24DOPE   H4S 3008   5.727   6.344  16.731 -1.1753 -0.0525 -2.1731
   24DOPE   C25 3009   5.704   6.207  16.570 -1.4361  0.5712 -0.4091
   24DOPE   H5R 3010   5.624   6.269  16.524  0.2742  2.7098 -0.6625
   24DOPE   H5S 3011   5.672   6.102  16.553  1.6725 -0.1981 -2.5836
   24DOPE   C26 3012   5.831   6.211  16.493  0.8619  0.5362  1.3786
   24DOPE   H6R 3013   5.906   6.145  16.541  0.2211 -2.8652 -1.8399
   24DOPE   H6S 3014   5.880   6.311  16.483  0.4986  0.5054 -2.2286
   24DOPE   C27 3015   5.807   6.153  16.346  0.3426 -0.6984 -0.6728
   24DOPE   H7R 3016   5.765   6.235  16.284 -0.6274  2.0127  3.1819
   24DOPE   H7S 3017   5.736   6.069  16.349  0.3742 -0.6940  0.6504
   24DOPE   C28 3018   5.944   6.109  16.288 -0.3139  0.2943  0.0700
   24DOPE   H8R 3019   5.929   6.040  16.202  1.8620  0.7721 -0.7621
   24DOPE   H8S 3020   5.979   6.037  16.365 -2.0624 -1.5168 -0.7411
   24DOPE   C29 3021   6.040   6.220  16.248  0.0943  0.2502  0.0508
   24DOPE   H9R 3022   6.120   6.222  16.323  0.3679  0.8761 -0.2499
   24DOPE  C210 3023   6.039   6.291  16.133 -0.0524  0.5783  0.7983
   24DOPE  H10R 3024   6.120   6.363  16.114  1.3684 -1.0704  0.3417
   24DOPE  C211 3025   5.935   6.278  16.024  1.1933 -0.9279 -0.1790
   24DOPE  H11R 3026   5.877   6.372  16.019  2.4591 -0.1565 -1.1250
   24DOPE  H11S 3027   5.878   6.184  16.033  0.9345 -0.8064 -0.5329
   24DOPE  C212 3028   6.000   6.273  15.889 -0.2549  0.0828  0.3076
   24DOPE  H12R 3029   6.062   6.182  15.872  0.6879  0.7397  0.1560
   24DOPE  H12S 3030   6.062   6.363  15.869 -2.3823  1.4920 -0.1746
   24DOPE  C213 3031   5.895   6.294  15.779  0.1398  0.7327 -0.1943
   24DOPE  H13R 3032   5.829   6.380  15.801  0.1036  0.3783  1.1241
   24DOPE  H13S 3033   5.839   6.198  15.779  0.1234  0.7427  0.0389
   24DOPE  C214 3034   5.957   6.311  15.629 -0.0734  0.6222 -0.0162
   24DOPE  H14R 3035   6.025   6.224  15.619 -0.4708  0.4873 -1.7788
   24DOPE  H14S 3036   6.012   6.407  15.618  1.3533  0.0590  1.6509
   24DOPE  C215 3037   5.852   6.303  15.522  0.1527  0.1134 -0.5478
   24DOPE  H15R 3038   5.895   6.338  15.426  0.5442 -2.5584 -1.4331
   24DOPE  H15S 3039   5.761   6.364  15.542 -0.2062 -1.1418  2.0647
   24DOPE  C216 3040   5.792   6.162  15.497  0.2942  0.8001  0.2316
   24DOPE  H16R 3041   5.748   6.126  15.593 -0.3130  2.7670  0.7253
   24DOPE  H16S 3042   5.879   6.099  15.470 -1.9112 -3.6322  2.3576
   24DOPE  C217 3043   5.687   6.157  15.384 -0.0367  0.5073 -0.2309
   24DOPE  H17R 3044   5.605   6.226  15.413  0.6389  0.3353  2.4252
   24DOPE  H17S 3045   5.639   6.059  15.365  0.5080  0.4375 -1.2960
   24DOPE  C218 3046   5.739   6.191  15.245 -0.1243 -0.1940 -0.0323
   24DOPE  H18R 3047   5.838   6.148  15.218 -0.9121 -1.4048 -1.0698
   24DOPE  H18S 3048   5.757   6.300  15.236  2.7430 -0.5116  0.8127
   24DOPE  H18T 3049   5.661   6.172  15.168 -0.1093 -1.0262  0.1451
   24DOPE   C33 3050   5.450   6.512  16.608  0.6876  0.3906 -0.7573
   24DOPE   H3X 3051   5.409   6.475  16.512 -0.2695 -0.6840  0.0321
   24DOPE   H3Y 3052   5.471   6.418  16.665  0.1542 -0.8117 -2.4595
   24DOPE   C34 3053   5.590   6.585  16.585  0.2020  0.1986 -0.2419
   24DOPE   H4X 3054   5.627   6.624  16.682 -0.6387  2.3242 -0.7177
   24DOPE   H4Y 3055   5.667   6.513  16.550  0.1733  0.7683 -1.5572
   24DOPE   C35 3056   5.583   6.697  16.475 -0.3661 -0.1694 -0.2866
   24DOPE   H5X 3057   5.690   6.726  16.464 -0.1308 -0.3399  1.3195
   24DOPE   H5Y 3058   5.534   6.779  16.531  1.0479 -0.2827  1.2021
   24DOPE   C36 3059   5.527   6.657  16.340 -0.4028  0.1465 -0.1889
   24DOPE   H6X 3060   5.543   6.749  16.278 -1.2647 -0.5286 -1.4538
   24DOPE   H6Y 3061   5.419   6.631  16.340 -0.2577 -0.4706  0.0153
   24DOPE   C37 3062   5.611   6.544  16.269  0.5271 -0.8279 -0.3452
   24DOPE   H7X 3063   5.714   6.570  16.301 -0.0047  0.1026  0.6935
   24DOPE   H7Y 3064   5.588   6.441  16.304  1.1810 -0.5291  1.0300
   24DOPE   C38 3065   5.612   6.539  16.116  0.5286 -0.1093  0.3041
   24DOPE   H8X 3066   5.655   6.442  16.085  1.6972  1.3462 -3.1724
   24DOPE   H8Y 3067   5.679   6.618  16.076  0.1833  0.6647  1.2305
   24DOPE   C39 3068   5.473   6.542  16.049  0.5337  0.2738 -0.2411
   24DOPE   H9X 3069   5.385   6.528  16.113  0.6548  0.0129 -0.1312
   24DOPE  C310 3070   5.449   6.548  15.919 -0.2778  0.0005 -0.0525
   24DOPE  H10X 3071   5.347   6.534  15.879 -0.8469 -1.2680  1.7160
   24DOPE  C311 3072   5.560   6.549  15.819 -0.4723 -0.8295  0.5829
   24DOPE  H11X 3073   5.655   6.524  15.870  0.8069  0.7714 -0.9204
   24DOPE  H11Y 3074   5.541   6.467  15.747 -1.4608 -1.3780  1.4312
   24DOPE  C312 3075   5.568   6.684  15.743 -1.0394  0.2043  0.3012
   24DOPE  H12X 3076   5.669   6.697  15.700 -0.6945 -2.0831  0.3172
   24DOPE  H12Y 3077   5.551   6.768  15.813 -0.8251  0.5207 -0.0237
   24DOPE  C313 3078   5.470   6.686  15.621 -0.0002 -0.9845 -0.4015
   24DOPE  H13X 3079   5.365   6.699  15.654  0.6760  1.2973  1.0568
   24DOPE  H13Y 3080   5.496   6.775  15.560  0.1337 -0.5851  0.2324
   24DOPE  C314 3081   5.490   6.565  15.533 -0.2036 -0.8930  0.0379
   24DOPE  H14X 3082   5.428   6.487  15.580 -0.8833  1.0140  2.5522
   24DOPE  H14Y 3083   5.598   6.539  15.535  0.3202  1.0493 -0.3899
   24DOPE  C315 3084   5.461   6.596  15.380 -0.2660 -0.0426 -0.0283
   24DOPE  H15X 3085   5.518   6.687  15.350  0.2043 -0.6915 -1.1457
   24DOPE  H15Y 3086   5.352   6.609  15.361 -0.2980 -0.2263  0.0303
   24DOPE  C316 3087   5.519   6.486  15.287 -0.3868 -0.0027 -0.3013
   24DOPE  H16X 3088   5.474   6.388  15.311  0.4520  0.0075  1.4592
   24DOPE  H16Y 3089   5.629   6.498  15.294 -0.4683 -0.0911  1.7947
   24DOPE  C317 3090   5.486   6.509  15.132  0.5395 -0.0461 -0.0191
   24DOPE  H17X 3091   5.376   6.510  15.117  0.3112  0.0407  1.5166
   24DOPE  H17Y 3092   5.521   6.614  15.120 -2.8694  1.1195 -0.9429
   24DOPE  C318 3093   5.569   6.434  15.027 -0.0041  0.1362 -0.6258
   24DOPE  H18X 3094   5.676   6.438  15.056  0.3188 -1.3820 -1.4899
   24DOPE  H18Y 3095   5.545   6.326  15.011 -0.3014  0.4343 -2.3642
   24DOPE  H18Z 3096   5.547   6.478  14.928 -1.3017 -0.9256 -0.8399
   25DOPE     N 3097   6.302   0.051  17.594  0.4224 -0.0315  0.0408
   25DOPE   HN1 3098   6.406   0.045  17.583  0.2136 -0.0186 -3.0064
   25DOPE   HN2 3099   6.260   0.007  17.509  1.5413 -0.6869 -0.2044
   25DOPE   HN3 3100   6.266   0.149  17.591 -1.0662 -0.5637 -0.5345
   25DOPE   C12 3101   6.258  -0.028  17.711 -0.1898  0.0888 -0.0018
   25DOPE  H12A 3102   6.150  -0.051  17.704 -0.4909  1.0804  0.9562
   25DOPE  H12B 3103   6.284   0.034  17.800  2.2524  1.2135 -1.3678
   25DOPE   C11 3104   6.333  -0.164  17.705 -0.4125  0.8253  0.2588
   25DOPE  H11A 3105   6.315  -0.218  17.800 -0.5486 -2.3563 -1.4433
   25DOPE  H11B 3106   6.443  -0.150  17.703 -0.3243  0.1212 -0.5093
   25DOPE     P 3107   6.378  -0.301  17.478 -0.1003  0.1477 -0.1067
   25DOPE   O13 3108   6.288  -0.375  17.387  0.4272  0.5471 -0.7742
   25DOPE   O14 3109   6.492  -0.378  17.532 -0.5428  0.0094  0.4273
   25DOPE   O11 3110   6.428  -0.172  17.407 -0.1047  0.5413  0.0864
   25DOPE   O12 3111   6.291  -0.255  17.599 -0.0789  0.3730 -0.9149
   25DOPE    C1 3112   6.560  -0.162  17.355  0.0190 -0.3106  0.2367
   25DOPE    HA 3113   6.576  -0.233  17.271 -0.0092  0.9835 -0.8888
   25DOPE    HB 3114   6.640  -0.167  17.432 -0.7865  0.8443  1.1897
   25DOPE    C2 3115   6.584  -0.018  17.293  0.3931  0.3072 -0.3885
   25DOPE    HS 3116   6.543   0.058  17.363 -2.3188 -0.4944 -0.9736
   25DOPE   O21 3117   6.502  -0.013  17.174 -0.2012  0.4661  0.0952
   25DOPE   C21 3118   6.498   0.105  17.121  0.5857 -0.9617 -0.0796
   25DOPE   O22 3119   6.533   0.210  17.176  0.3840 -0.1866  0.0629
   25DOPE   C22 3120   6.421   0.099  16.994  0.1712  0.2687  0.0436
   25DOPE   H2R 3121   6.329   0.159  17.008  1.0155  1.3110  1.4399
   25DOPE   H2S 3122   6.395  -0.007  16.973  1.3967 -0.2582  1.0498
   25DOPE    C3 3123   6.729   0.010  17.259  0.0787  0.6091 -1.2273
   25DOPE    HX 3124   6.793  -0.015  17.346 -0.4111  1.5873 -0.5682
   25DOPE    HY 3125   6.748   0.118  17.242 -1.3020  1.1080  0.1466
   25DOPE   O31 3126   6.771  -0.076  17.151  0.3660  0.2022  0.0142
   25DOPE   C31 3127   6.851  -0.026  17.060  0.1015 -0.6790 -0.1016
   25DOPE   O32 3128   6.917   0.079  17.076 -0.0301  0.1725 -0.0581
   25DOPE   C32 3129   6.857  -0.124  16.945  0.1077  0.0844 -0.0048
   25DOPE   H2X 3130   6.935  -0.200  16.966 -0.9954 -0.9265  0.5707
   25DOPE   H2Y 3131   6.761  -0.173  16.917 -1.4079  2.2485  1.0626
   25DOPE   C23 3132   6.503   0.178  16.884  0.2093  0.2806 -0.2861
   25DOPE   H3R 3133   6.611   0.151  16.889  0.9456  2.4660 -2.2776
   25DOPE   H3S 3134   6.502   0.286  16.912 -0.1463  0.0371  0.7024
   25DOPE   C24 3135   6.464   0.158  16.739 -0.1535  0.3196  0.3213
   25DOPE   H4R 3136   6.425   0.057  16.714 -0.2573  0.2355  0.8204
   25DOPE   H4S 3137   6.558   0.177  16.682 -1.4754  1.5336 -1.5978
   25DOPE   C25 3138   6.371   0.266  16.681 -0.5169  0.1061  0.6124
   25DOPE   H5R 3139   6.378   0.358  16.742 -0.6831  0.7544 -0.3322
   25DOPE   H5S 3140   6.267   0.226  16.680 -0.4204 -0.1430  0.4739
   25DOPE   C26 3141   6.378   0.284  16.526  0.1069 -0.1627  0.5488
   25DOPE   H6R 3142   6.353   0.189  16.474 -0.6801  0.4219 -0.1777
   25DOPE   H6S 3143   6.484   0.311  16.503  0.3814 -2.4295 -1.2554
   25DOPE   C27 3144   6.269   0.378  16.474  0.2326  0.4108  0.3926
   25DOPE   H7R 3145   6.268   0.466  16.542  0.3909  1.6153 -1.1123
   25DOPE   H7S 3146   6.167   0.336  16.481  1.0362 -2.0284 -1.2970
   25DOPE   C28 3147   6.293   0.417  16.329  0.0095  0.1694  0.3946
   25DOPE   H8R 3148   6.286   0.321  16.273  1.5874 -0.3218  0.9861
   25DOPE   H8S 3149   6.396   0.458  16.327 -0.8895  2.5962 -0.2111
   25DOPE   C29 3150   6.187   0.521  16.289 -0.0762  0.1953 -0.1368
   25DOPE   H9R 3151   6.172   0.595  16.369  0.9854  2.0012 -1.5185
   25DOPE  C210 3152   6.102   0.509  16.187  0.6790 -0.5122 -0.1394
   25DOPE  H10R 3153   6.027   0.587  16.166  0.9185 -0.9045 -2.7039
   25DOPE  C211 3154   6.116   0.410  16.075  0.4871  0.2584  0.2070
   25DOPE  H11R 3155   6.066   0.312  16.092  3.7928 -1.4118  1.2041
   25DOPE  H11S 3156   6.221   0.391  16.045  0.8182 -0.1090  1.5188
   25DOPE  C212 3157   6.061   0.463  15.945  0.0856 -0.6134 -0.3336
   25DOPE  H12R 3158   6.116   0.553  15.911  0.3958 -0.2958  0.9305
   25DOPE  H12S 3159   5.957   0.501  15.953  1.5142  3.7863 -0.4426
   25DOPE  C213 3160   6.063   0.351  15.829  0.1061  0.4187  0.5837
   25DOPE  H13R 3161   5.991   0.270  15.852  0.0470 -0.0338 -1.0763
   25DOPE  H13S 3162   6.168   0.318  15.843 -0.3971 -0.8311  1.5837
   25DOPE  C214 3163   6.042   0.411  15.694  0.7520 -0.3922 -0.7459
   25DOPE  H14R 3164   6.119   0.491  15.694  0.1425  0.2097 -1.2239
   25DOPE  H14S 3165   5.941   0.456  15.703  0.7942 -0.6945  1.9037
   25DOPE  C215 3166   6.050   0.313  15.578  0.1317  0.4382  0.2270
   25DOPE  H15R 3167   5.966   0.245  15.600  0.6675 -0.3003  0.0052
   25DOPE  H15S 3168   6.142   0.251  15.583 -0.8962 -1.5561 -2.7515
   25DOPE  C216 3169   6.034   0.374  15.439  0.1250  0.5564 -0.1045
   25DOPE  H16R 3170   6.115   0.443  15.407 -0.7916  0.1428 -3.6253
   25DOPE  H16S 3171   5.944   0.440  15.436 -1.1047 -1.0780 -1.0130
   25DOPE  C217 3172   6.042   0.270  15.325  0.3527 -0.0555  0.0253
   25DOPE  H17R 3173   5.958   0.200  15.348  0.7932 -0.2048  1.2113
   25DOPE  H17S 3174   6.131   0.204  15.328 -0.7252 -1.6460 -0.9697
   25DOPE  C218 3175   6.032   0.322  15.178 -0.0347  0.4460  0.3967
   25DOPE  H18R 3176   6.084   0.246  15.116  1.2654  0.1004  1.8434
   25DOPE  H18S 3177   6.091   0.412  15.151  1.5754 -1.3372 -2.6500
   25DOPE  H18T 3178   5.926   0.327  15.145 -0.4727 -0.8131  1.5209
   25DOPE   C33 3179   6.899  -0.052  16.813  0.8243  0.0080  0.3557
   25DOPE   H3X 3180   7.003  -0.015  16.831  0.6789 -0.2626  1.8858
   25DOPE   H3Y 3181   6.833   0.035  16.792  1.0375  0.2445  0.6451
   25DOPE   C34 3182   6.893  -0.136  16.681  0.1361  0.1363  0.1384
   25DOPE   H4X 3183   6.788  -0.169  16.673  0.1860 -0.0997  0.4238
   25DOPE   H4Y 3184   6.914  -0.060  16.603 -1.8772  0.9546  0.3401
   25DOPE   C35 3185   6.975  -0.259  16.675  0.1408 -0.2712 -0.4007
   25DOPE   H5X 3186   6.924  -0.344  16.724 -0.3403  0.5105  0.4898
   25DOPE   H5Y 3187   7.067  -0.230  16.730 -0.6657  1.5047  0.1080
   25DOPE   C36 3188   7.016  -0.298  16.538  0.2040 -0.0663 -0.1041
   25DOPE   H6X 3189   7.108  -0.359  16.550 -0.3430 -1.0377 -0.6964
   25DOPE   H6Y 3190   7.031  -0.211  16.470  1.5941 -0.4341 -0.3191
   25DOPE   C37 3191   6.911  -0.388  16.470 -1.3989  0.1464  0.5011
   25DOPE   H7X 3192   6.910  -0.480  16.532 -1.6456 -0.7388 -0.7920
   25DOPE   H7Y 3193   6.812  -0.338  16.474 -0.5465  1.9162  0.4758
   25DOPE   C38 3194   6.943  -0.445  16.334 -0.3617 -0.0230 -0.0529
   25DOPE   H8X 3195   6.880  -0.528  16.297 -2.2190  0.7302  1.2016
   25DOPE   H8Y 3196   7.044  -0.490  16.336  0.7955  2.3657 -0.2336
   25DOPE   C39 3197   6.940  -0.338  16.224 -0.8242  0.0573 -0.3964
   25DOPE   H9X 3198   6.969  -0.235  16.250  0.8536 -0.5300  0.2100
   25DOPE  C310 3199   6.927  -0.364  16.091  0.6832  0.5223  0.2368
   25DOPE  H10X 3200   6.915  -0.282  16.018 -0.2619 -0.8894 -1.2698
   25DOPE  C311 3201   6.900  -0.497  16.026 -0.4793  0.2087  0.3095
   25DOPE  H11X 3202   6.932  -0.577  16.097 -0.6523  2.9274  3.7622
   25DOPE  H11Y 3203   6.789  -0.503  16.020 -0.7853  0.7561  3.4768
   25DOPE  C312 3204   6.960  -0.512  15.888 -0.2493  0.5565  0.8254
   25DOPE  H12X 3205   6.953  -0.615  15.849  0.3308  1.0301 -0.5808
   25DOPE  H12Y 3206   7.069  -0.500  15.904  0.1060  1.1114 -1.6155
   25DOPE  C313 3207   6.888  -0.428  15.777 -0.5406  0.1359  0.1801
   25DOPE  H13X 3208   6.781  -0.457  15.769 -0.2803 -1.1402  1.0393
   25DOPE  H13Y 3209   6.897  -0.325  15.816 -2.4478  0.8672 -1.1770
   25DOPE  C314 3210   6.942  -0.442  15.627  0.2337  0.8263 -0.2765
   25DOPE  H14X 3211   7.045  -0.401  15.636  0.1768  0.5969  2.0511
   25DOPE  H14Y 3212   6.874  -0.387  15.560  0.0561  1.7353  0.6364
   25DOPE  C315 3213   6.947  -0.598  15.587  0.0618  0.2599  0.0459
   25DOPE  H15X 3214   6.871  -0.667  15.630  1.5975 -2.4449 -1.2959
   25DOPE  H15Y 3215   7.045  -0.643  15.614 -0.2507 -1.6740 -1.7775
   25DOPE  C316 3216   6.934  -0.624  15.433  0.6744  0.3658  0.3761
   25DOPE  H16X 3217   6.832  -0.592  15.404  0.4619 -1.0268 -0.5061
   25DOPE  H16Y 3218   6.953  -0.732  15.412 -1.1715  0.0255  0.3133
   25DOPE  C317 3219   7.030  -0.546  15.341 -0.5489  0.6325  0.9541
   25DOPE  H17X 3220   7.007  -0.441  15.367  1.3008  0.7490  2.3329
   25DOPE  H17Y 3221   7.137  -0.561  15.368  0.9021 -2.2409 -4.8035
   25DOPE  C318 3222   7.008  -0.587  15.192 -0.0848 -0.9667 -0.9580
   25DOPE  H18X 3223   7.087  -0.535  15.134 -1.1208  1.6411 -0.2088
   25DOPE  H18Y 3224   7.025  -0.696  15.189 -0.2360 -0.9980 -0.6640
   25DOPE  H18Z 3225   6.906  -0.560  15.159 -1.6355 -3.0221  1.7058
   26DOPE     N 3226   0.335   0.701  17.442 -0.1825 -0.4521 -0.3431
   26DOPE   HN1 3227   0.245   0.696  17.493 -0.5588  3.0257 -0.4554
   26DOPE   HN2 3228   0.313   0.772  17.369 -2.4430 -0.8660 -0.1415
   26DOPE   HN3 3229   0.327   0.613  17.387 -1.1750  0.2578 -1.3886
   26DOPE   C12 3230   0.463   0.720  17.524  0.3642  0.3754 -0.1300
   26DOPE  H12A 3231   0.462   0.624  17.580  1.0011  0.7789  0.5966
   26DOPE  H12B 3232   0.459   0.816  17.580 -0.0621  0.9539 -1.1254
   26DOPE   C11 3233   0.577   0.721  17.428 -0.4315 -0.4007 -0.3908
   26DOPE  H11A 3234   0.573   0.621  17.380  0.7214 -0.8606  0.4290
   26DOPE  H11B 3235   0.669   0.717  17.490  0.4443 -0.3086 -1.6329
   26DOPE     P 3236   0.677   0.941  17.332 -0.3283  0.0828  0.6254
   26DOPE   O13 3237   0.805   0.900  17.391  0.8573 -0.2927 -0.4495
   26DOPE   O14 3238   0.629   1.069  17.391 -0.3335  0.0736 -0.5883
   26DOPE   O11 3239   0.710   0.963  17.181 -0.2892 -0.1795  0.5060
   26DOPE   O12 3240   0.569   0.827  17.336  0.1637  0.0334 -0.2564
   26DOPE    C1 3241   0.613   0.922  17.088  0.6095  0.5384  0.5996
   26DOPE    HA 3242   0.632   0.963  16.986 -2.8329 -0.1432 -0.4258
   26DOPE    HB 3243   0.513   0.958  17.120  0.2103 -1.4777  1.7716
   26DOPE    C2 3244   0.611   0.756  17.062  0.9747 -0.4029 -0.0796
   26DOPE    HS 3245   0.597   0.698  17.156 -4.0941 -1.1495 -0.9724
   26DOPE   O21 3246   0.723   0.717  16.986  0.4227  0.2955 -0.7146
   26DOPE   C21 3247   0.763   0.596  17.022 -1.6843  0.4417 -0.0273
   26DOPE   O22 3248   0.716   0.518  17.104 -0.1814 -0.2157 -0.1272
   26DOPE   C22 3249   0.904   0.580  16.965  0.8039 -0.2290  0.5261
   26DOPE   H2R 3250   0.964   0.567  17.057 -0.9501  1.0988  1.9107
   26DOPE   H2S 3251   0.926   0.678  16.918 -1.2091 -0.3718 -0.8524
   26DOPE    C3 3252   0.472   0.712  16.994  0.5674  0.4527 -0.1930
   26DOPE    HX 3253   0.390   0.743  17.064  0.4368 -0.2405 -0.0362
   26DOPE    HY 3254   0.465   0.602  16.994 -1.5157  0.4659 -2.9914
   26DOPE   O31 3255   0.460   0.759  16.860  0.0216 -0.0630  0.1224
   26DOPE   C31 3256   0.496   0.674  16.758  0.1020 -0.0763  0.2431
   26DOPE   O32 3257   0.535   0.556  16.780 -0.5295 -0.6340 -0.1614
   26DOPE   C32 3258   0.484   0.738  16.618 -0.2624 -0.2083  0.1222
   26DOPE   H2X 3259   0.423   0.831  16.628  0.9688  0.6531 -0.0738
   26DOPE   H2Y 3260   0.585   0.777  16.592 -0.0004 -0.6708  0.4352
   26DOPE   C23 3261   0.918   0.466  16.867  0.1191  0.2039 -0.7314
   26DOPE   H3R 3262   0.859   0.376  16.894  0.4035  0.4070  0.6140
   26DOPE   H3S 3263   1.021   0.429  16.850  0.1117 -0.3091  0.2897
   26DOPE   C24 3264   0.870   0.510  16.719 -0.0888 -0.0559 -0.0126
   26DOPE   H4R 3265   0.943   0.580  16.673 -1.7181  1.4909 -0.3596
   26DOPE   H4S 3266   0.775   0.568  16.724 -1.9462 -2.7746 -1.5622
   26DOPE   C25 3267   0.864   0.391  16.624 -0.5603  0.3219  0.1646
   26DOPE   H5R 3268   0.788   0.324  16.670 -0.4297  0.0472 -0.0151
   26DOPE   H5S 3269   0.966   0.347  16.624 -0.3399  0.8090 -1.0978
   26DOPE   C26 3270   0.808   0.428  16.484  0.0773  0.0386  0.1130
   26DOPE   H6R 3271   0.707   0.473  16.486  0.6781  1.3966  0.7128
   26DOPE   H6S 3272   0.792   0.331  16.431 -1.2376 -0.4946  1.4085
   26DOPE   C27 3273   0.910   0.509  16.403 -0.0922  0.6874  0.2754
   26DOPE   H7R 3274   1.003   0.449  16.394 -1.6792 -1.6938 -1.6068
   26DOPE   H7S 3275   0.942   0.605  16.449 -4.0704  1.9068  0.8762
   26DOPE   C28 3276   0.852   0.541  16.265  0.3978 -0.0209 -0.7930
   26DOPE   H8R 3277   0.780   0.624  16.252  1.4553  1.5358  2.2508
   26DOPE   H8S 3278   0.784   0.457  16.240 -0.5469  1.1593 -2.3475
   26DOPE   C29 3279   0.950   0.539  16.149 -0.2112  0.0402  0.4522
   26DOPE   H9R 3280   1.004   0.447  16.125  0.2294  0.9492 -2.4757
   26DOPE  C210 3281   1.010   0.650  16.096 -0.2040  0.1997 -0.4781
   26DOPE  H10R 3282   1.072   0.630  16.008 -0.3828 -0.6266 -0.4268
   26DOPE  C211 3283   0.968   0.789  16.126 -0.3985 -0.5207 -0.3450
   26DOPE  H11R 3284   1.055   0.854  16.149 -0.5382  0.6675 -2.8662
   26DOPE  H11S 3285   0.905   0.800  16.216  1.6455  0.0475  1.0831
   26DOPE  C212 3286   0.893   0.858  16.012  0.2162  0.5436  0.2820
   26DOPE  H12R 3287   0.879   0.964  16.044  0.7775  1.1639 -1.4042
   26DOPE  H12S 3288   0.790   0.821  15.996  0.2401  0.6645 -0.1791
   26DOPE  C213 3289   0.964   0.849  15.875  0.0853  0.1174 -0.4585
   26DOPE  H13R 3290   0.937   0.753  15.827 -1.2397 -0.2630  0.9697
   26DOPE  H13S 3291   1.074   0.856  15.893 -0.1179  0.9471  0.5270
   26DOPE  C214 3292   0.922   0.958  15.780 -0.4484  0.0094  0.4542
   26DOPE  H14R 3293   0.988   0.951  15.691 -1.5711  0.6477 -0.4435
   26DOPE  H14S 3294   0.938   1.057  15.829 -2.1809  0.0151  1.0681
   26DOPE  C215 3295   0.776   0.966  15.723 -0.4508  0.0208  0.2980
   26DOPE  H15R 3296   0.727   0.866  15.731  1.0399 -0.7634 -0.1818
   26DOPE  H15S 3297   0.781   0.996  15.617 -1.4774 -0.5081  0.0779
   26DOPE  C216 3298   0.684   1.061  15.796 -0.1966  0.7094 -0.0964
   26DOPE  H16R 3299   0.715   1.167  15.781  0.0094  0.8417  1.1791
   26DOPE  H16S 3300   0.691   1.034  15.903  1.6348  0.7955 -0.1697
   26DOPE  C217 3301   0.525   1.057  15.764 -0.2077 -0.0346  0.1362
   26DOPE  H17R 3302   0.475   1.098  15.854 -0.4736 -1.3940  0.6361
   26DOPE  H17S 3303   0.493   0.951  15.758  0.5624 -0.3206  0.8807
   26DOPE  C218 3304   0.502   1.132  15.635  0.3254 -0.7153 -0.1817
   26DOPE  H18R 3305   0.580   1.102  15.562 -0.9352 -0.5098 -1.6491
   26DOPE  H18S 3306   0.519   1.241  15.649 -1.0939 -0.5359  0.2440
   26DOPE  H18T 3307   0.408   1.112  15.580 -0.4825  2.6484 -0.2303
   26DOPE   C33 3308   0.447   0.643  16.496  0.9759  0.2074  0.1650
   26DOPE   H3X 3309   0.336   0.634  16.497  0.6468  3.0582  2.7442
   26DOPE   H3Y 3310   0.499   0.548  16.520  0.3144 -0.3719 -0.6269
   26DOPE   C34 3311   0.496   0.698  16.362 -0.5154 -0.1384  0.6174
   26DOPE   H4X 3312   0.443   0.796  16.354 -0.1580 -0.0097 -0.3837
   26DOPE   H4Y 3313   0.604   0.720  16.376 -0.6675  0.1482  1.3514
   26DOPE   C35 3314   0.453   0.613  16.249 -0.1618 -0.0640  0.4905
   26DOPE   H5X 3315   0.342   0.606  16.248 -0.0897 -1.5073  0.5777
   26DOPE   H5Y 3316   0.488   0.508  16.260 -1.7222 -0.4693  2.0423
   26DOPE   C36 3317   0.481   0.672  16.113 -0.4391  0.3241  0.1483
   26DOPE   H6X 3318   0.584   0.712  16.104 -1.7052  3.4397 -3.0864
   26DOPE   H6Y 3319   0.413   0.759  16.096  0.6593  1.2760  0.4862
   26DOPE   C37 3320   0.438   0.577  15.991 -0.1011  0.1048 -0.4510
   26DOPE   H7X 3321   0.343   0.528  16.020 -0.1038 -0.6116 -1.6273
   26DOPE   H7Y 3322   0.424   0.628  15.893  2.7953 -1.6206 -1.8971
   26DOPE   C38 3323   0.541   0.469  15.953 -0.4150 -0.0150  0.0335
   26DOPE   H8X 3324   0.480   0.392  15.901 -0.7139  0.1612  0.1151
   26DOPE   H8Y 3325   0.565   0.423  16.051 -0.9021 -0.6870 -0.1591
   26DOPE   C39 3326   0.657   0.530  15.876  1.0397  0.1701 -1.0477
   26DOPE   H9X 3327   0.728   0.592  15.933 -0.0666  0.3218  0.2144
   26DOPE  C310 3328   0.660   0.540  15.741 -0.0894  0.7176 -0.5513
   26DOPE  H10X 3329   0.756   0.577  15.700  1.0251  0.8026  1.9346
   26DOPE  C311 3330   0.562   0.484  15.646 -1.0477 -0.0978 -0.1984
   26DOPE  H11X 3331   0.601   0.395  15.593 -1.0963 -0.5184  0.4613
   26DOPE  H11Y 3332   0.466   0.448  15.689 -0.5734  0.7792  1.7003
   26DOPE  C312 3333   0.531   0.586  15.528  0.0082  1.1899  0.2526
   26DOPE  H12X 3334   0.482   0.536  15.441  0.5883 -1.1609  1.1881
   26DOPE  H12Y 3335   0.626   0.609  15.475 -0.6224  0.9448 -1.0171
   26DOPE  C313 3336   0.458   0.716  15.576  0.1142  0.6346  0.0383
   26DOPE  H13X 3337   0.369   0.695  15.639  1.4077 -3.1628  0.8038
   26DOPE  H13Y 3338   0.532   0.769  15.640  0.8346  0.7599 -0.8718
   26DOPE  C314 3339   0.424   0.795  15.457  0.6246  0.0210  0.3603
   26DOPE  H14X 3340   0.364   0.881  15.495 -0.7106 -0.3098 -0.8879
   26DOPE  H14Y 3341   0.363   0.735  15.386 -1.5910  2.5462 -0.0575
   26DOPE  C315 3342   0.543   0.855  15.370 -0.6397  0.2592  0.5853
   26DOPE  H15X 3343   0.608   0.780  15.322 -0.0126  1.9510 -1.3556
   26DOPE  H15Y 3344   0.610   0.922  15.428 -0.3906 -0.1631  0.7875
   26DOPE  C316 3345   0.496   0.947  15.255 -0.0958 -0.3052 -0.2796
   26DOPE  H16X 3346   0.427   1.020  15.302 -0.2736 -1.3975  1.2434
   26DOPE  H16Y 3347   0.427   0.880  15.198  0.0192  0.6773 -1.6163
   26DOPE  C317 3348   0.608   0.999  15.169 -0.3235 -0.6923 -0.6350
   26DOPE  H17X 3349   0.691   1.052  15.220  1.4364 -3.1194 -0.7969
   26DOPE  H17Y 3350   0.655   0.911  15.119  1.3426  0.7935 -1.8011
   26DOPE  C318 3351   0.560   1.075  15.044 -0.1536 -0.3366 -0.8106
   26DOPE  H18X 3352   0.477   1.027  14.987 -0.8537  1.7227 -1.5991
   26DOPE  H18Y 3353   0.521   1.173  15.078  1.4706  0.1019 -0.0821
   26DOPE  H18Z 3354   0.651   1.097  14.984  0.1328  2.2080  0.4113
   27DOPE     N 3355   4.399   6.414  17.109 -0.4176 -0.2024 -0.0831
   27DOPE   HN1 3356   4.335   6.482  17.154 -0.4073 -1.0781  1.3059
   27DOPE   HN2 3357   4.349   6.323  17.112 -1.4066  0.3491  2.5949
   27DOPE   HN3 3358   4.485   6.406  17.167 -0.1194 -0.4032 -0.5406
   27DOPE   C12 3359   4.425   6.454  16.965 -0.2487  0.2958 -0.6127
   27DOPE  H12A 3360   4.323   6.451  16.922 -1.0807  4.3522  0.6726
   27DOPE  H12B 3361   4.486   6.386  16.902 -0.9241  0.0611 -1.0157
   27DOPE   C11 3362   4.468   6.595  16.955  0.5443 -0.3643  0.0943
   27DOPE  H11A 3363   4.383   6.664  16.973  0.3411 -0.7461  0.6064
   27DOPE  H11B 3364   4.518   6.608  16.857  4.0131 -2.2541  1.4480
   27DOPE     P 3365   4.612   6.777  17.063 -0.2424  0.4745  0.4564
   27DOPE   O13 3366   4.722   6.786  17.156 -1.1825  0.2233 -0.1621
   27DOPE   O14 3367   4.503   6.874  17.082  0.7304  0.2560  0.5449
   27DOPE   O11 3368   4.676   6.795  16.923  0.4685 -0.8059  0.2089
   27DOPE   O12 3369   4.564   6.623  17.055 -0.0783 -0.2979 -0.5677
   27DOPE    C1 3370   4.627   6.885  16.825  0.3399 -0.3603 -0.1206
   27DOPE    HA 3371   4.637   6.989  16.861  2.1606 -0.5671  0.0712
   27DOPE    HB 3372   4.518   6.877  16.807  0.4139  1.5602 -1.7994
   27DOPE    C2 3373   4.711   6.909  16.690 -0.1640  0.4634  0.0244
   27DOPE    HS 3374   4.702   6.815  16.632  0.1672 -0.0775  0.8409
   27DOPE   O21 3375   4.849   6.953  16.705  0.7467  0.6164  0.0542
   27DOPE   C21 3376   4.935   6.885  16.627  0.0929  0.2277 -0.0756
   27DOPE   O22 3377   4.910   6.801  16.542 -0.0026 -0.1150  0.3654
   27DOPE   C22 3378   5.072   6.928  16.645 -0.0259  0.1849  0.0716
   27DOPE   H2R 3379   5.123   6.859  16.715  1.8440  1.7378  0.3020
   27DOPE   H2S 3380   5.068   7.027  16.695  0.5551  0.0669  0.3505
   27DOPE    C3 3381   4.633   7.009  16.596 -0.9656 -0.0993  0.7070
   27DOPE    HX 3382   4.656   7.109  16.639 -0.7494  1.1486 -2.1454
   27DOPE    HY 3383   4.524   6.993  16.608 -0.9326 -2.9890 -1.6744
   27DOPE   O31 3384   4.671   7.013  16.454  0.9184 -0.3450 -0.1804
   27DOPE   C31 3385   4.647   6.907  16.385  1.0428 -0.0008 -0.4863
   27DOPE   O32 3386   4.591   6.804  16.409 -0.2198  0.0734  0.1983
   27DOPE   C32 3387   4.716   6.935  16.250  0.3690 -1.0254 -0.4586
   27DOPE   H2X 3388   4.648   7.013  16.209 -2.2375 -3.0835 -0.3688
   27DOPE   H2Y 3389   4.820   6.969  16.263 -0.1514  0.4708 -0.0818
   27DOPE   C23 3390   5.162   6.924  16.516 -0.4293 -0.3106  0.1478
   27DOPE   H3R 3391   5.160   6.821  16.475 -1.1189 -0.9154  1.6203
   27DOPE   H3S 3392   5.266   6.941  16.552 -1.2618 -0.5650  2.8879
   27DOPE   C24 3393   5.128   7.044  16.431 -0.2557  0.6927 -0.0400
   27DOPE   H4R 3394   5.144   7.141  16.483 -0.2558  0.9024 -0.4303
   27DOPE   H4S 3395   5.018   7.046  16.413 -0.3196 -1.8948 -0.2555
   27DOPE   C25 3396   5.207   7.056  16.299  0.2583  0.0701  0.2073
   27DOPE   H5R 3397   5.314   7.041  16.326  0.5561  0.5827 -0.6392
   27DOPE   H5S 3398   5.186   7.153  16.248  0.7233  0.1074  0.0856
   27DOPE   C26 3399   5.167   6.947  16.196  0.1956  0.3932 -0.4722
   27DOPE   H6R 3400   5.061   6.951  16.165  0.0367  1.9347  0.1754
   27DOPE   H6S 3401   5.184   6.847  16.241 -0.2967 -0.1826 -1.5454
   27DOPE   C27 3402   5.250   6.954  16.068 -0.3576  0.5214 -0.2312
   27DOPE   H7R 3403   5.354   6.954  16.105 -0.4599 -0.4297  0.0917
   27DOPE   H7S 3404   5.241   7.052  16.017  0.0672  0.1846 -0.9559
   27DOPE   C28 3405   5.229   6.837  15.970 -0.0514 -0.8155  0.0885
   27DOPE   H8R 3406   5.255   6.735  16.005 -3.1219 -2.1760 -1.1998
   27DOPE   H8S 3407   5.286   6.865  15.879 -0.6611 -0.2896 -0.1428
   27DOPE   C29 3408   5.088   6.830  15.929  0.7092 -1.0580  0.2701
   27DOPE   H9R 3409   5.017   6.772  15.991 -0.8681  0.0925 -0.3788
   27DOPE  C210 3410   5.044   6.904  15.823 -0.0074  0.1175  0.4078
   27DOPE  H10R 3411   4.935   6.903  15.811  0.1960  0.1644 -1.8036
   27DOPE  C211 3412   5.120   7.001  15.731  0.8425 -1.0379 -0.0752
   27DOPE  H11R 3413   5.186   7.068  15.790 -1.5400  1.8969 -0.5260
   27DOPE  H11S 3414   5.052   7.072  15.679  0.8712 -2.1440 -1.6983
   27DOPE  C212 3415   5.200   6.935  15.613  0.0292 -0.6124 -0.4806
   27DOPE  H12R 3416   5.176   6.838  15.565 -1.3811 -0.1185 -0.8353
   27DOPE  H12S 3417   5.298   6.910  15.659 -1.4976 -1.4774  2.5579
   27DOPE  C213 3418   5.211   7.025  15.492 -0.2215 -0.3391 -0.1819
   27DOPE  H13R 3419   5.244   7.125  15.526  2.9418 -1.2007 -0.3308
   27DOPE  H13S 3420   5.113   7.019  15.441  0.1962  0.8535 -1.1648
   27DOPE  C214 3421   5.315   6.974  15.389  0.7147 -0.1607 -0.7622
   27DOPE  H14R 3422   5.286   6.871  15.361 -2.2676  0.6844 -1.2082
   27DOPE  H14S 3423   5.415   6.979  15.436  0.1789 -1.9644  0.6634
   27DOPE  C215 3424   5.325   7.061  15.264 -0.2468 -0.0255  0.9190
   27DOPE  H15R 3425   5.385   7.155  15.273 -1.2529  0.4783  3.1466
   27DOPE  H15S 3426   5.219   7.081  15.240 -0.4922 -0.5022  1.5831
   27DOPE  C216 3427   5.389   6.986  15.149 -0.1116  0.2806  0.0301
   27DOPE  H16R 3428   5.493   6.960  15.177  0.4555  0.4917 -1.7464
   27DOPE  H16S 3429   5.396   7.054  15.061 -1.2127  1.3999  0.7626
   27DOPE  C217 3430   5.331   6.853  15.105 -0.2461  0.5161 -0.1838
   27DOPE  H17R 3431   5.360   6.775  15.179  0.7518  1.0431 -0.0157
   27DOPE  H17S 3432   5.381   6.834  15.007  0.7488 -2.1031  0.7403
   27DOPE  C218 3433   5.180   6.857  15.077 -0.5150  0.2008 -0.7041
   27DOPE  H18R 3434   5.135   6.857  15.179 -0.2842 -0.0806 -0.5995
   27DOPE  H18S 3435   5.141   6.771  15.018  2.5557 -1.5602 -0.3950
   27DOPE  H18T 3436   5.137   6.947  15.029 -2.9422 -0.6953 -0.3501
   27DOPE   C33 3437   4.693   6.815  16.153  0.8938  0.0164 -0.4021
   27DOPE   H3X 3438   4.585   6.787  16.158  0.8629  0.3257  1.2143
   27DOPE   H3Y 3439   4.761   6.732  16.181 -0.2474 -1.0838 -0.8123
   27DOPE   C34 3440   4.723   6.847  16.009  0.2856 -0.2057 -0.2692
   27DOPE   H4X 3441   4.688   6.952  15.997 -0.7945 -0.3327  1.3884
   27DOPE   H4Y 3442   4.834   6.852  16.011  0.2413  0.8520 -0.0084
   27DOPE   C35 3443   4.663   6.746  15.907 -0.1189 -0.3207 -0.5145
   27DOPE   H5X 3444   4.553   6.748  15.922  0.0065 -2.1163  0.9985
   27DOPE   H5Y 3445   4.694   6.643  15.937  0.3046 -0.5132 -1.5589
   27DOPE   C36 3446   4.702   6.771  15.762 -0.0184 -0.0578 -0.1920
   27DOPE   H6X 3447   4.810   6.751  15.750  0.1426  0.5171  0.2706
   27DOPE   H6Y 3448   4.682   6.872  15.721 -1.8790  0.3387  1.5055
   27DOPE   C37 3449   4.632   6.669  15.668 -0.3930  0.2527 -0.3916
   27DOPE   H7X 3450   4.682   6.573  15.693  0.0182 -0.0092 -2.0840
   27DOPE   H7Y 3451   4.523   6.675  15.689 -0.3080  0.7553 -0.0747
   27DOPE   C38 3452   4.654   6.699  15.522 -0.3836  0.5022  0.5394
   27DOPE   H8X 3453   4.602   6.794  15.496  0.4945  0.7357 -0.3834
   27DOPE   H8Y 3454   4.590   6.619  15.479  1.5330 -0.7471 -0.0882
   27DOPE   C39 3455   4.791   6.685  15.468 -0.5960 -0.4937 -0.0028
   27DOPE   H9X 3456   4.840   6.586  15.473  1.3163  0.2837 -1.7931
   27DOPE  C310 3457   4.875   6.788  15.440  0.1710 -0.2581 -0.7597
   27DOPE  H10X 3458   4.964   6.762  15.381  1.2588  1.3835  0.0683
   27DOPE  C311 3459   4.836   6.936  15.451 -0.4911  0.2799 -0.2842
   27DOPE  H11X 3460   4.735   6.943  15.497 -0.2753  0.7254  0.1296
   27DOPE  H11Y 3461   4.899   6.999  15.518 -0.1239  0.9307 -1.2175
   27DOPE  C312 3462   4.836   7.005  15.318  0.1141  1.0677 -0.0165
   27DOPE  H12X 3463   4.763   6.950  15.254 -1.9779  1.7955  1.6505
   27DOPE  H12Y 3464   4.938   7.010  15.274 -1.4926  1.0221 -4.1855
   27DOPE  C313 3465   4.786   7.151  15.317  0.2884 -0.1298 -0.7151
   27DOPE  H13X 3466   4.676   7.154  15.333  0.3603 -0.6427 -0.0254
   27DOPE  H13Y 3467   4.828   7.209  15.402 -0.3353 -0.7197  0.0189
   27DOPE  C314 3468   4.821   7.220  15.188  0.4018  0.0281 -0.3929
   27DOPE  H14X 3469   4.765   7.171  15.106  0.5658 -0.3274 -0.2935
   27DOPE  H14Y 3470   4.930   7.208  15.172  0.3062 -3.0006  0.5741
   27DOPE  C315 3471   4.778   7.372  15.204  0.0062  0.3927  0.6437
   27DOPE  H15X 3472   4.851   7.393  15.285  0.1554 -2.0745  1.2603
   27DOPE  H15Y 3473   4.678   7.386  15.250  0.5218  3.7088  0.9659
   27DOPE  C316 3474   4.775   7.444  15.065 -0.0440  0.4140  0.0054
   27DOPE  H16X 3475   4.686   7.416  15.005 -1.0483 -1.4497  2.1905
   27DOPE  H16Y 3476   4.863   7.412  15.006 -1.0378  1.0568 -1.8963
   27DOPE  C317 3477   4.773   7.595  15.083  0.1993 -0.6594 -0.3499
   27DOPE  H17X 3478   4.693   7.630  15.152  0.9488 -1.0758  0.7608
   27DOPE  H17Y 3479   4.867   7.626  15.134  0.1274 -2.7851  1.2236
   27DOPE  C318 3480   4.763   7.659  14.950 -0.1960  0.2441  0.1292
   27DOPE  H18X 3481   4.848   7.634  14.883 -0.3541  0.6965 -0.2400
   27DOPE  H18Y 3482   4.670   7.638  14.894  0.3400 -0.4179 -0.5421
   27DOPE  H18Z 3483   4.777   7.769  14.949  2.5543 -0.0366 -0.9087
   28DOPE     N 3484   5.762   6.606  17.191  0.8370  0.2605  0.2251
   28DOPE   HN1 3485   5.722   6.561  17.277  1.2374 -1.9489 -0.6757
   28DOPE   HN2 3486   5.823   6.536  17.144  1.2770  0.4284  0.5391
   28DOPE   HN3 3487   5.829   6.678  17.225 -0.2251  0.2553  2.5213
   28DOPE   C12 3488   5.654   6.658  17.100  0.4485  0.1073 -0.0458
   28DOPE  H12A 3489   5.598   6.567  17.069 -0.6849  0.9986 -0.7096
   28DOPE  H12B 3490   5.704   6.704  17.012 -0.4042  2.0888  0.4631
   28DOPE   C11 3491   5.564   6.768  17.177  0.0267  0.1781 -0.2699
   28DOPE  H11A 3492   5.520   6.700  17.253 -1.1151 -0.4988 -1.4886
   28DOPE  H11B 3493   5.485   6.801  17.106  2.3606 -0.2072 -3.2464
   28DOPE     P 3494   5.560   7.004  17.281  0.2719  0.7716  0.0521
   28DOPE   O13 3495   5.639   7.073  17.382 -0.1791 -0.0900  0.2568
   28DOPE   O14 3496   5.421   6.965  17.319 -0.3662  0.2873 -0.2081
   28DOPE   O11 3497   5.553   7.089  17.148 -0.0537 -0.0913  0.1633
   28DOPE   O12 3498   5.644   6.871  17.240  0.2453  0.0556  0.2637
   28DOPE    C1 3499   5.653   7.126  17.060 -0.0004 -0.5237  0.5620
   28DOPE    HA 3500   5.731   7.046  17.064  0.3397 -0.2524 -0.3645
   28DOPE    HB 3501   5.715   7.209  17.100  0.3537  0.5430 -2.0287
   28DOPE    C2 3502   5.612   7.152  16.913  0.3766  1.0020  0.2420
   28DOPE    HS 3503   5.699   7.196  16.859 -0.1515 -0.0456 -1.5630
   28DOPE   O21 3504   5.498   7.243  16.903 -0.3995  0.2750 -0.0088
   28DOPE   C21 3505   5.540   7.369  16.917 -0.1795  0.0571  0.3519
   28DOPE   O22 3506   5.655   7.405  16.929 -0.0705 -0.5871  0.3029
   28DOPE   C22 3507   5.426   7.470  16.903  0.0487 -0.0483 -0.1247
   28DOPE   H2R 3508   5.431   7.547  16.983 -1.0755  0.9759 -1.0043
   28DOPE   H2S 3509   5.328   7.420  16.919 -0.6931  1.7276  1.2416
   28DOPE    C3 3510   5.573   7.017  16.838  0.0026 -0.7467 -0.6411
   28DOPE    HX 3511   5.467   6.999  16.864 -0.0069 -0.4568 -0.4652
   28DOPE    HY 3512   5.644   6.935  16.863  1.6151  0.5470 -0.7847
   28DOPE   O31 3513   5.559   7.049  16.695 -0.2831  0.2930  0.6682
   28DOPE   C31 3514   5.671   7.029  16.622  0.2612 -0.1425  0.1756
   28DOPE   O32 3515   5.776   6.995  16.672 -0.5043  0.1029  0.5588
   28DOPE   C32 3516   5.648   7.058  16.474  0.4405  0.3443  0.1286
   28DOPE   H2X 3517   5.569   6.989  16.439 -0.8499  0.9745  1.6434
   28DOPE   H2Y 3518   5.607   7.161  16.460 -2.1503 -0.5424  0.7278
   28DOPE   C23 3519   5.426   7.554  16.770  0.4937  0.4056 -0.4876
   28DOPE   H3R 3520   5.526   7.593  16.742  0.8444 -0.1162  0.0176
   28DOPE   H3S 3521   5.357   7.641  16.775  0.1340  0.1656 -1.1688
   28DOPE   C24 3522   5.390   7.461  16.657  0.1958  0.5602  0.6225
   28DOPE   H4R 3523   5.286   7.421  16.661 -0.0537  0.8173 -1.9145
   28DOPE   H4S 3524   5.456   7.373  16.673  1.0696  0.9519 -0.6835
   28DOPE   C25 3525   5.424   7.517  16.519 -0.1900 -0.2170  0.0277
   28DOPE   H5R 3526   5.533   7.537  16.520 -0.2282  0.2112  2.5572
   28DOPE   H5S 3527   5.370   7.613  16.505 -0.2404 -0.0411  1.3106
   28DOPE   C26 3528   5.382   7.420  16.406 -0.0562  0.7737 -0.0333
   28DOPE   H6R 3529   5.271   7.420  16.413 -0.1421  0.1077 -1.1436
   28DOPE   H6S 3530   5.411   7.316  16.435 -1.7464  0.2854  0.0336
   28DOPE   C27 3531   5.432   7.463  16.264  0.0578  0.0861  1.2508
   28DOPE   H7R 3532   5.542   7.475  16.275  0.4135 -0.0432 -1.4171
   28DOPE   H7S 3533   5.393   7.566  16.252  1.4682  0.5036 -0.0265
   28DOPE   C28 3534   5.403   7.369  16.143 -0.2547  0.4835 -0.0809
   28DOPE   H8R 3535   5.292   7.363  16.137 -0.3554 -2.0410  2.2531
   28DOPE   H8S 3536   5.441   7.269  16.174  0.5173  0.6025 -0.6423
   28DOPE   C29 3537   5.480   7.403  16.017 -0.1374 -0.4217 -0.2167
   28DOPE   H9R 3538   5.589   7.404  16.031 -0.1962  0.9438  0.2902
   28DOPE  C210 3539   5.440   7.426  15.891 -0.4952  0.2451  0.3445
   28DOPE  H10R 3540   5.506   7.440  15.805 -1.7713  2.8368 -0.3032
   28DOPE  C211 3541   5.294   7.431  15.856 -0.4915  0.1633 -0.2784
   28DOPE  H11R 3542   5.260   7.536  15.841  2.0049  0.8431 -1.7202
   28DOPE  H11S 3543   5.230   7.404  15.943  0.3865  1.7298  0.9196
   28DOPE  C212 3544   5.243   7.361  15.730 -0.5357  0.1188 -0.2439
   28DOPE  H12R 3545   5.133   7.345  15.738 -0.3023 -1.3195  0.3874
   28DOPE  H12S 3546   5.310   7.274  15.715  0.7362  1.2442 -1.4263
   28DOPE  C213 3547   5.260   7.453  15.609 -0.0035 -0.2775 -0.8398
   28DOPE  H13R 3548   5.369   7.471  15.603  0.4237 -2.8290 -3.1085
   28DOPE  H13S 3549   5.222   7.554  15.636  0.9000  0.7488 -3.1282
   28DOPE  C214 3550   5.215   7.407  15.473 -0.0561  0.1498  0.1999
   28DOPE  H14R 3551   5.112   7.366  15.481  0.2178 -0.5790  0.0537
   28DOPE  H14S 3552   5.282   7.321  15.449 -0.2718  0.6460 -2.5883
   28DOPE  C215 3553   5.237   7.488  15.343 -0.0649 -0.1257  0.2011
   28DOPE  H15R 3554   5.345   7.507  15.323  0.0173 -1.7944 -1.0982
   28DOPE  H15S 3555   5.178   7.582  15.351 -1.9913 -1.3154  0.4688
   28DOPE  C216 3556   5.187   7.417  15.216 -0.4516 -0.1699 -0.1879
   28DOPE  H16R 3557   5.080   7.390  15.224 -0.1225 -2.1820 -1.7998
   28DOPE  H16S 3558   5.241   7.324  15.188  1.5861  0.7240  0.5810
   28DOPE  C217 3559   5.190   7.503  15.091  0.9716 -0.2175  0.3052
   28DOPE  H17R 3560   5.296   7.532  15.079  1.1030 -0.8283 -0.0664
   28DOPE  H17S 3561   5.117   7.583  15.116  0.4387 -1.0532  1.5775
   28DOPE  C218 3562   5.148   7.428  14.968 -0.0857  0.4506  0.0524
   28DOPE  H18R 3563   5.076   7.346  14.990 -2.0123  1.4310 -2.1324
   28DOPE  H18S 3564   5.229   7.374  14.914 -1.5763 -1.2171 -0.6395
   28DOPE  H18T 3565   5.102   7.497  14.894  0.1739 -0.2208 -0.7517
   28DOPE   C33 3566   5.779   7.037  16.393 -0.0621  1.0483 -0.3630
   28DOPE   H3X 3567   5.810   6.931  16.388  0.2673  1.1450 -0.3883
   28DOPE   H3Y 3568   5.859   7.102  16.434  1.1262 -0.4124 -0.3105
   28DOPE   C34 3569   5.750   7.087  16.248 -0.1934  0.0542 -0.2197
   28DOPE   H4X 3570   5.713   7.191  16.236 -0.6545 -0.0589  0.2253
   28DOPE   H4Y 3571   5.844   7.075  16.190 -1.5868 -0.1432 -2.5426
   28DOPE   C35 3572   5.650   6.995  16.177  0.0966 -0.2615  0.0342
   28DOPE   H5X 3573   5.542   7.010  16.202 -0.7110 -2.2999 -1.8960
   28DOPE   H5Y 3574   5.679   6.899  16.223 -0.6907  0.2082  1.6058
   28DOPE   C36 3575   5.675   6.983  16.031  0.6298 -0.3204  0.2058
   28DOPE   H6X 3576   5.651   6.884  15.986  0.9718 -0.8219  1.1014
   28DOPE   H6Y 3577   5.786   6.979  16.020  0.5158 -0.6446 -1.0416
   28DOPE   C37 3578   5.612   7.079  15.925  0.1661 -0.2645  0.1573
   28DOPE   H7X 3579   5.503   7.057  15.929  0.4147 -1.4340  1.6113
   28DOPE   H7Y 3580   5.626   7.187  15.945  1.4755 -0.7939  2.5329
   28DOPE   C38 3581   5.657   7.052  15.777  0.1465  0.3596  0.0983
   28DOPE   H8X 3582   5.682   6.945  15.762  2.7298  1.2310 -2.9307
   28DOPE   H8Y 3583   5.756   7.096  15.751  1.2297 -1.8476  0.2760
   28DOPE   C39 3584   5.549   7.104  15.688  0.2903  0.1437  0.4960
   28DOPE   H9X 3585   5.453   7.050  15.687 -0.1452  0.8758 -1.0259
   28DOPE  C310 3586   5.558   7.205  15.597 -0.8897 -0.3566 -0.2470
   28DOPE  H10X 3587   5.467   7.218  15.535 -1.1959 -0.2382  0.2236
   28DOPE  C311 3588   5.677   7.288  15.567 -0.2460  0.2320 -0.0905
   28DOPE  H11X 3589   5.693   7.357  15.653  1.1834  1.9708 -1.6391
   28DOPE  H11Y 3590   5.763   7.218  15.558  0.5553  1.1188  0.4791
   28DOPE  C312 3591   5.661   7.365  15.434  0.0659 -0.4499  0.4812
   28DOPE  H12X 3592   5.732   7.450  15.433 -2.1038  1.4778 -1.2509
   28DOPE  H12Y 3593   5.565   7.418  15.452  0.9349  0.7266  1.8760
   28DOPE  C313 3594   5.685   7.277  15.311  0.2673  0.2271 -0.5648
   28DOPE  H13X 3595   5.790   7.242  15.321 -0.2287 -0.6343  2.7460
   28DOPE  H13Y 3596   5.625   7.184  15.314  2.3214 -1.2136 -1.4875
   28DOPE  C314 3597   5.661   7.344  15.173 -0.3912  0.3173 -0.7854
   28DOPE  H14X 3598   5.720   7.438  15.160  1.5563 -0.9687 -1.7731
   28DOPE  H14Y 3599   5.554   7.372  15.172 -1.1240 -2.1786 -0.0172
   28DOPE  C315 3600   5.690   7.253  15.060  0.0528 -0.2115  0.5874
   28DOPE  H15X 3601   5.615   7.179  15.026 -0.0081  1.0684 -2.3087
   28DOPE  H15Y 3602   5.784   7.195  15.075 -0.6048 -0.9960  1.8365
   28DOPE  C316 3603   5.706   7.344  14.932 -0.2735  0.5752 -0.5726
   28DOPE  H16X 3604   5.795   7.409  14.948  0.3210 -0.7875  2.3353
   28DOPE  H16Y 3605   5.617   7.410  14.923  0.8520  2.2730  0.3355
   28DOPE  C317 3606   5.723   7.249  14.806 -0.1780  0.2849  0.2200
   28DOPE  H17X 3607   5.821   7.199  14.792  0.6858  1.6324  1.2070
   28DOPE  H17Y 3608   5.648   7.168  14.822 -0.7056  0.4929 -1.1004
   28DOPE  C318 3609   5.678   7.317  14.680  0.2757 -0.1034  0.3426
   28DOPE  H18X 3610   5.738   7.406  14.650  1.5684 -1.3800 -0.9957
   28DOPE  H18Y 3611   5.675   7.256  14.587 -0.1612  1.9204 -1.0414
   28DOPE  H18Z 3612   5.576   7.352  14.705 -0.5880 -0.9261 -1.7819
   29DOPE     N 3613   6.660   1.822  18.002 -0.2343  0.3802 -0.1134
   29DOPE   HN1 3614   6.695   1.725  18.009  1.7679  1.1243  0.9182
   29DOPE   HN2 3615   6.676   1.855  18.100 -1.3662  0.5209  0.0366
   29DOPE   HN3 3616   6.560   1.819  17.974  0.2524  3.8075 -2.8762
   29DOPE   C12 3617   6.746   1.878  17.891 -0.1211 -0.5057  0.3885
   29DOPE  H12A 3618   6.852   1.847  17.898  1.1751  1.5553 -4.8909
   29DOPE  H12B 3619   6.728   1.987  17.882 -3.2173 -1.0584 -2.0669
   29DOPE   C11 3620   6.691   1.840  17.755  0.3122  0.3360 -0.2965
   29DOPE  H11A 3621   6.711   1.732  17.744 -0.2529  0.0967  0.9078
   29DOPE  H11B 3622   6.755   1.890  17.678  1.5994 -0.4411  0.2316
   29DOPE     P 3623   6.492   2.012  17.721  0.9075 -0.1470  0.4965
   29DOPE   O13 3624   6.526   2.096  17.838 -0.0375  0.2141 -0.0747
   29DOPE   O14 3625   6.345   1.998  17.682  0.1543  0.4837 -0.5392
   29DOPE   O11 3626   6.581   2.063  17.599  0.6054 -0.5778 -0.2850
   29DOPE   O12 3627   6.553   1.866  17.737 -0.1673  0.2417 -0.6163
   29DOPE    C1 3628   6.590   1.994  17.475  0.7829 -1.0354  0.1495
   29DOPE    HA 3629   6.490   1.984  17.426  0.5571 -0.3523  0.4676
   29DOPE    HB 3630   6.639   1.897  17.499  2.0720 -0.1755  1.0359
   29DOPE    C2 3631   6.694   2.053  17.372 -0.2755 -0.0342 -0.0469
   29DOPE    HS 3632   6.726   1.968  17.308 -0.6179 -0.9924  1.0365
   29DOPE   O21 3633   6.808   2.110  17.445 -1.2884 -0.1191 -0.6111
   29DOPE   C21 3634   6.899   2.025  17.490 -0.8131  0.1026 -0.2981
   29DOPE   O22 3635   6.899   1.905  17.477 -0.1334  0.0684  0.2635
   29DOPE   C22 3636   7.007   2.100  17.566  0.8691 -0.6465  0.3068
   29DOPE   H2R 3637   7.040   2.052  17.660 -0.1941  0.8940  1.5285
   29DOPE   H2S 3638   6.956   2.194  17.599  0.3256 -1.0844  0.7279
   29DOPE    C3 3639   6.630   2.162  17.269 -0.3714  0.3148  0.4793
   29DOPE    HX 3640   6.616   2.253  17.332  1.1533  0.1674  1.0763
   29DOPE    HY 3641   6.532   2.128  17.229  0.2985 -0.0355 -0.8986
   29DOPE   O31 3642   6.725   2.217  17.167  0.3465 -0.2904 -0.2726
   29DOPE   C31 3643   6.719   2.141  17.054 -0.4996  0.0141  0.0769
   29DOPE   O32 3644   6.644   2.048  17.037 -0.6745 -0.1988  0.0792
   29DOPE   C32 3645   6.826   2.193  16.950 -0.0748 -0.1519 -1.0266
   29DOPE   H2X 3646   6.814   2.303  16.940  2.5622  0.3812  0.6259
   29DOPE   H2Y 3647   6.923   2.174  17.002 -0.8988 -1.6162  0.0452
   29DOPE   C23 3648   7.135   2.138  17.483 -0.0351  0.1466  0.3932
   29DOPE   H3R 3649   7.207   2.054  17.476  0.3476  0.3941  1.2240
   29DOPE   H3S 3650   7.185   2.220  17.540  1.0583  0.2196 -0.6330
   29DOPE   C24 3651   7.106   2.189  17.339  0.0421 -0.6004  0.0218
   29DOPE   H4R 3652   7.057   2.283  17.369 -1.3939 -0.9130 -1.2270
   29DOPE   H4S 3653   7.033   2.129  17.280 -0.3339 -1.2039  1.0805
   29DOPE   C25 3654   7.236   2.217  17.275 -0.1219  0.3402 -0.0761
   29DOPE   H5R 3655   7.279   2.117  17.257 -1.9269 -0.6372  0.8048
   29DOPE   H5S 3656   7.304   2.280  17.337 -0.8939 -0.0242  1.1666
   29DOPE   C26 3657   7.216   2.272  17.135  0.2218 -0.4162 -0.4153
   29DOPE   H6R 3658   7.180   2.377  17.149  2.2289  0.3870 -0.9617
   29DOPE   H6S 3659   7.130   2.216  17.091 -0.1975 -1.2789  1.4144
   29DOPE   C27 3660   7.343   2.257  17.055 -0.7674 -0.1902  0.6143
   29DOPE   H7R 3661   7.381   2.153  17.065  0.2031  0.0848 -0.0206
   29DOPE   H7S 3662   7.426   2.316  17.100 -0.4591  1.3054 -1.7622
   29DOPE   C28 3663   7.313   2.282  16.911 -0.3978 -0.8253 -0.3045
   29DOPE   H8R 3664   7.279   2.387  16.902 -0.8945 -1.0486 -1.2359
   29DOPE   H8S 3665   7.219   2.227  16.888 -0.3044 -0.6081 -1.2536
   29DOPE   C29 3666   7.425   2.245  16.817 -0.3504  0.1764 -0.5711
   29DOPE   H9R 3667   7.468   2.149  16.847  3.5844  1.9848  0.2721
   29DOPE  C210 3668   7.479   2.335  16.731 -0.5952 -0.2749 -0.0571
   29DOPE  H10R 3669   7.557   2.305  16.661 -1.5094 -0.5093 -0.9910
   29DOPE  C211 3670   7.441   2.476  16.702 -0.0653  0.2934  0.5407
   29DOPE  H11R 3671   7.527   2.544  16.716  0.9901 -0.3234 -2.2822
   29DOPE  H11S 3672   7.350   2.512  16.755 -0.1326  3.6755 -1.5159
   29DOPE  C212 3673   7.402   2.502  16.551  0.4135  0.2522 -0.3269
   29DOPE  H12R 3674   7.497   2.509  16.493  0.6838 -0.9664 -0.0568
   29DOPE  H12S 3675   7.353   2.602  16.547  2.1113  1.1624  0.4212
   29DOPE  C213 3676   7.307   2.403  16.485 -0.1443  0.0759  0.4366
   29DOPE  H13R 3677   7.203   2.396  16.522 -0.7643  0.5922 -1.1351
   29DOPE  H13S 3678   7.345   2.299  16.496 -0.4103 -0.0049  0.5998
   29DOPE  C214 3679   7.303   2.427  16.333  0.1689  0.1583  0.0666
   29DOPE  H14R 3680   7.234   2.346  16.302  0.7663 -0.1454 -0.4873
   29DOPE  H14S 3681   7.394   2.409  16.271 -2.0561  1.1316 -3.8159
   29DOPE  C215 3682   7.247   2.561  16.294  0.7818  0.1599 -0.1160
   29DOPE  H15R 3683   7.314   2.636  16.341 -0.5571  0.8172  0.8300
   29DOPE  H15S 3684   7.144   2.569  16.335  0.8706 -0.8785  0.3418
   29DOPE  C216 3685   7.249   2.586  16.137  0.0050 -0.3582  0.9549
   29DOPE  H16R 3686   7.204   2.685  16.112 -4.1468 -2.2726 -0.0955
   29DOPE  H16S 3687   7.203   2.501  16.083  0.3578  1.0692 -1.7936
   29DOPE  C217 3688   7.392   2.590  16.072  0.4158 -0.0218 -0.0640
   29DOPE  H17R 3689   7.443   2.493  16.093  1.1806  0.1219 -1.1486
   29DOPE  H17S 3690   7.449   2.666  16.130  0.2493  0.3771 -0.4256
   29DOPE  C218 3691   7.402   2.624  15.922  0.0589 -0.7732  0.5443
   29DOPE  H18R 3692   7.509   2.642  15.900  0.6624 -0.1872  3.5193
   29DOPE  H18S 3693   7.343   2.717  15.906  1.7041  0.6198  2.1339
   29DOPE  H18T 3694   7.362   2.545  15.855 -0.1773 -0.4100  0.2509
   29DOPE   C33 3695   6.820   2.124  16.816 -0.1066 -0.4125  0.2388
   29DOPE   H3X 3696   6.736   2.182  16.771 -1.3969 -0.9486  1.8701
   29DOPE   H3Y 3697   6.799   2.015  16.816  0.0858 -0.4638 -0.8667
   29DOPE   C34 3698   6.945   2.158  16.733 -0.2289 -0.4932  0.1509
   29DOPE   H4X 3699   6.957   2.268  16.725 -2.2833 -0.2880 -0.6132
   29DOPE   H4Y 3700   7.040   2.127  16.782 -0.4832  2.1175  2.5222
   29DOPE   C35 3701   6.939   2.096  16.591 -0.4192  0.1764  0.4009
   29DOPE   H5X 3702   6.836   2.121  16.557 -0.1912  0.4508 -0.1063
   29DOPE   H5Y 3703   6.940   1.985  16.584 -1.1621  0.2110 -0.4555
   29DOPE   C36 3704   7.045   2.153  16.498 -0.2579  0.2883 -0.2269
   29DOPE   H6X 3705   7.145   2.153  16.546  0.0492  2.4691 -0.7893
   29DOPE   H6Y 3706   7.022   2.260  16.480  1.1742  0.5524 -0.5683
   29DOPE   C37 3707   7.040   2.085  16.361  0.1676  0.7639  0.4990
   29DOPE   H7X 3708   7.121   2.105  16.287  0.7371 -1.4779  0.4291
   29DOPE   H7Y 3709   7.074   1.981  16.383  1.3218  1.4031  1.9195
   29DOPE   C38 3710   6.901   2.086  16.295  0.5965 -0.2788 -0.3415
   29DOPE   H8X 3711   6.827   2.029  16.356  1.0932 -1.6809 -1.0021
   29DOPE   H8Y 3712   6.918   2.032  16.200  0.1352 -0.3994 -0.3560
   29DOPE   C39 3713   6.850   2.227  16.268 -0.2703 -0.0961  0.6745
   29DOPE   H9X 3714   6.840   2.293  16.355  1.5428  3.0590 -1.2977
   29DOPE  C310 3715   6.797   2.264  16.156  0.0543 -0.2940 -0.3999
   29DOPE  H10X 3716   6.752   2.364  16.153  1.7435  0.5186 -0.2938
   29DOPE  C311 3717   6.782   2.184  16.032  0.2239 -0.3568  0.6791
   29DOPE  H11X 3718   6.883   2.144  16.010 -0.5560 -1.9633 -0.1403
   29DOPE  H11Y 3719   6.711   2.106  16.066  0.5194 -0.3727  1.2787
   29DOPE  C312 3720   6.715   2.253  15.916  0.8639 -0.2908 -0.3720
   29DOPE  H12X 3721   6.720   2.179  15.833 -2.0467 -0.7916 -0.2165
   29DOPE  H12Y 3722   6.775   2.342  15.885  0.8685  1.2456  3.4881
   29DOPE  C313 3723   6.574   2.296  15.944 -0.0517  0.1975  0.0501
   29DOPE  H13X 3724   6.512   2.208  15.972  0.4295  0.6040  2.6229
   29DOPE  H13Y 3725   6.582   2.357  16.036  1.1093 -0.6491  0.5435
   29DOPE  C314 3726   6.505   2.375  15.822  0.0323 -0.4570  0.0712
   29DOPE  H14X 3727   6.586   2.415  15.758 -0.7364  0.2061 -0.5007
   29DOPE  H14Y 3728   6.451   2.464  15.861 -0.8964 -0.1117 -1.9030
   29DOPE  C315 3729   6.417   2.279  15.739  0.0266 -0.2820  0.2979
   29DOPE  H15X 3730   6.325   2.257  15.798  0.0115 -1.6224 -0.1998
   29DOPE  H15Y 3731   6.466   2.181  15.719 -1.0046 -0.3151 -2.4961
   29DOPE  C316 3732   6.396   2.335  15.596  1.2399  0.3474 -0.3755
   29DOPE  H16X 3733   6.491   2.340  15.539 -0.1205  1.2267 -2.6839
   29DOPE  H16Y 3734   6.363   2.440  15.609  2.4774  0.8440 -1.1301
   29DOPE  C317 3735   6.282   2.270  15.509  0.2019  0.2957 -0.1930
   29DOPE  H17X 3736   6.184   2.312  15.540  1.5986  1.2934  3.3194
   29DOPE  H17Y 3737   6.306   2.305  15.406  3.8952  3.2704  1.4271
   29DOPE  C318 3738   6.276   2.113  15.508 -0.1268 -0.1724  0.2884
   29DOPE  H18X 3739   6.256   2.077  15.611 -0.9149  0.9344  0.5463
   29DOPE  H18Y 3740   6.206   2.065  15.437 -0.2392  0.7630 -0.2456
   29DOPE  H18Z 3741   6.380   2.078  15.491  1.0864  2.1528  2.1788
   30DOPE     N 3742   5.314   0.795  17.311  0.6518 -0.1545 -0.1281
   30DOPE   HN1 3743   5.315   0.791  17.415  2.5564 -3.9470 -0.0951
   30DOPE   HN2 3744   5.217   0.784  17.275 -0.4526 -0.9047  2.7563
   30DOPE   HN3 3745   5.361   0.710  17.274  2.0698 -0.2483  1.7083
   30DOPE   C12 3746   5.360   0.912  17.233 -0.4078 -0.0264  0.3428
   30DOPE  H12A 3747   5.302   0.998  17.274  1.3392  2.2489 -1.6367
   30DOPE  H12B 3748   5.331   0.906  17.126  0.1920 -3.1800  0.2672
   30DOPE   C11 3749   5.513   0.942  17.241 -0.1163 -0.7057 -0.1380
   30DOPE  H11A 3750   5.549   1.041  17.203  2.2793 -1.8710 -1.1433
   30DOPE  H11B 3751   5.566   0.873  17.172  1.5034 -0.9852  1.3407
   30DOPE     P 3752   5.693   0.851  17.404  0.4452  0.1905 -0.0566
   30DOPE   O13 3753   5.654   0.712  17.374 -0.1698  0.0175 -0.0829
   30DOPE   O14 3754   5.728   0.884  17.543 -0.1577  0.5869  0.1524
   30DOPE   O11 3755   5.804   0.896  17.294  0.4908  0.1669  0.3339
   30DOPE   O12 3756   5.564   0.938  17.375 -0.2191 -0.6434  0.5379
   30DOPE    C1 3757   5.864   1.026  17.306  0.1876  0.1172 -0.0756
   30DOPE    HA 3758   5.942   1.026  17.385  0.0099  0.3921  0.1042
   30DOPE    HB 3759   5.789   1.101  17.338 -1.8583 -1.9371  0.2462
   30DOPE    C2 3760   5.942   1.070  17.180 -0.3043  0.2589 -0.0071
   30DOPE    HS 3761   5.970   1.177  17.197 -0.1585  0.1362  0.5705
   30DOPE   O21 3762   5.862   1.048  17.064  0.4375  0.9519 -0.4568
   30DOPE   C21 3763   5.759   1.126  17.053  0.5686  0.2716  0.5255
   30DOPE   O22 3764   5.728   1.218  17.128  0.3450 -0.3133 -0.3574
   30DOPE   C22 3765   5.682   1.080  16.929  0.1176 -0.7022 -0.4443
   30DOPE   H2R 3766   5.584   1.057  16.978  0.3225  1.6622  1.2846
   30DOPE   H2S 3767   5.732   0.991  16.886 -1.8834 -1.4103 -1.4612
   30DOPE    C3 3768   6.071   0.988  17.169  0.0046 -0.0166 -0.3971
   30DOPE    HX 3769   6.056   0.878  17.175  1.0846 -0.2180 -1.1110
   30DOPE    HY 3770   6.132   1.016  17.257 -0.5582 -2.1057  0.7189
   30DOPE   O31 3771   6.148   1.023  17.048 -0.2865 -0.6011 -0.1596
   30DOPE   C31 3772   6.261   0.953  17.031  0.5273 -0.6625 -0.4414
   30DOPE   O32 3773   6.290   0.850  17.092 -0.0237  0.3339  0.4094
   30DOPE   C32 3774   6.360   1.029  16.948  0.3219  0.1166 -0.6271
   30DOPE   H2X 3775   6.308   1.092  16.873 -1.5600  0.1936  0.6458
   30DOPE   H2Y 3776   6.414   1.095  17.018  1.3691  1.5132 -2.6769
   30DOPE   C23 3777   5.675   1.194  16.819  0.6654  0.5246 -0.9924
   30DOPE   H3R 3778   5.780   1.227  16.802  1.7560 -0.8915  2.2771
   30DOPE   H3S 3779   5.617   1.280  16.857 -0.9345 -1.2269  0.7803
   30DOPE   C24 3780   5.611   1.141  16.693 -0.2966 -0.5357  0.6207
   30DOPE   H4R 3781   5.500   1.143  16.703 -0.2518  0.4108  0.9718
   30DOPE   H4S 3782   5.638   1.036  16.666 -0.1511 -0.1528 -0.8105
   30DOPE   C25 3783   5.642   1.221  16.571 -0.6428 -0.2195  0.4545
   30DOPE   H5R 3784   5.752   1.210  16.554 -0.2167  0.8116  2.2752
   30DOPE   H5S 3785   5.624   1.330  16.573  2.1654  0.4390 -1.9703
   30DOPE   C26 3786   5.575   1.171  16.446 -0.4542  0.3919 -0.4615
   30DOPE   H6R 3787   5.467   1.150  16.464  0.3106 -5.0502 -0.4323
   30DOPE   H6S 3788   5.618   1.072  16.420 -0.6222  0.2870 -0.3461
   30DOPE   C27 3789   5.583   1.262  16.318  0.0254  0.5669 -0.1940
   30DOPE   H7R 3790   5.690   1.283  16.295  0.6007  0.2944  2.0458
   30DOPE   H7S 3791   5.529   1.358  16.327 -0.3173  0.3265  0.3559
   30DOPE   C28 3792   5.519   1.190  16.197 -0.1355  0.7816 -0.7676
   30DOPE   H8R 3793   5.411   1.170  16.216  0.2911 -0.4792  0.5031
   30DOPE   H8S 3794   5.561   1.088  16.186  0.9866  1.3168 -1.7515
   30DOPE   C29 3795   5.536   1.266  16.068 -0.6596 -0.0762  0.3108
   30DOPE   H9R 3796   5.577   1.367  16.076  1.7340 -1.0678  1.4104
   30DOPE  C210 3797   5.514   1.226  15.942  0.0093  0.1438 -0.0215
   30DOPE  H10R 3798   5.536   1.297  15.861 -1.7474 -0.5188 -1.1459
   30DOPE  C211 3799   5.456   1.092  15.904 -0.1854  0.1493  0.3262
   30DOPE  H11R 3800   5.347   1.098  15.883 -0.5118  2.4915  2.3410
   30DOPE  H11S 3801   5.459   1.012  15.980  0.7627 -0.3621 -0.2265
   30DOPE  C212 3802   5.533   1.035  15.787 -0.4361 -0.4400 -0.8976
   30DOPE  H12R 3803   5.520   0.925  15.795 -0.0443 -0.5447 -1.5677
   30DOPE  H12S 3804   5.639   1.064  15.800 -0.9910  1.0119  0.6976
   30DOPE  C213 3805   5.476   1.080  15.648 -0.0308 -0.1362  1.0216
   30DOPE  H13R 3806   5.479   1.191  15.652 -2.3899 -0.0112  1.2308
   30DOPE  H13S 3807   5.368   1.050  15.649 -0.3402  0.8481 -0.1626
   30DOPE  C214 3808   5.544   1.036  15.515  0.0885 -0.4131 -0.4458
   30DOPE  H14R 3809   5.567   0.927  15.513  0.7268 -0.3103  0.5544
   30DOPE  H14S 3810   5.638   1.094  15.509  0.8429 -1.6317 -0.8853
   30DOPE  C215 3811   5.457   1.068  15.389  0.5464  1.0802 -0.5270
   30DOPE  H15R 3812   5.433   1.176  15.381 -0.8685  0.8722  0.3958
   30DOPE  H15S 3813   5.359   1.027  15.423  0.4239  2.2333  0.5739
   30DOPE  C216 3814   5.517   1.027  15.256 -0.1228  0.2621 -0.4261
   30DOPE  H16R 3815   5.459   1.084  15.181 -0.4506 -0.7655 -0.9640
   30DOPE  H16S 3816   5.503   0.920  15.230  0.5268  0.2106 -0.5625
   30DOPE  C217 3817   5.659   1.069  15.226 -0.5772  0.9739  0.0952
   30DOPE  H17R 3818   5.730   1.023  15.298 -1.3733 -1.8887 -0.8384
   30DOPE  H17S 3819   5.667   1.180  15.226  0.5438  0.9213  1.3766
   30DOPE  C218 3820   5.696   1.033  15.086  0.2051  0.1781 -0.6690
   30DOPE  H18R 3821   5.788   1.087  15.056  0.7396  0.0675  0.6861
   30DOPE  H18S 3822   5.622   1.056  15.007  1.4752  3.5642 -1.0008
   30DOPE  H18T 3823   5.711   0.923  15.074  1.8225  0.3561 -0.4658
   30DOPE   C33 3824   6.462   0.942  16.889  0.5006  1.1526 -0.3096
   30DOPE   H3X 3825   6.507   0.863  16.954 -1.5889 -0.3178 -0.5433
   30DOPE   H3Y 3826   6.539   1.006  16.840  1.6659 -0.7356 -1.0481
   30DOPE   C34 3827   6.406   0.866  16.768  0.3058  0.0086 -0.0087
   30DOPE   H4X 3828   6.330   0.795  16.809  0.6596 -0.3701 -0.0002
   30DOPE   H4Y 3829   6.357   0.937  16.699  1.6298  0.2488 -0.7280
   30DOPE   C35 3830   6.510   0.786  16.684 -0.1452 -0.3615  0.1785
   30DOPE   H5X 3831   6.547   0.701  16.746  0.1348 -0.3650  0.0104
   30DOPE   H5Y 3832   6.597   0.854  16.671  0.1277 -0.4749  1.3390
   30DOPE   C36 3833   6.465   0.736  16.552 -0.5008  0.9884 -0.0696
   30DOPE   H6X 3834   6.369   0.682  16.569 -0.0745  0.8522  2.2317
   30DOPE   H6Y 3835   6.536   0.662  16.509  0.2676 -0.7343  3.7505
   30DOPE   C37 3836   6.454   0.851  16.453 -0.6390 -0.8505 -0.6593
   30DOPE   H7X 3837   6.365   0.916  16.473  0.2511  0.6510 -1.3513
   30DOPE   H7Y 3838   6.541   0.920  16.462  0.2954 -2.1018  0.3754
   30DOPE   C38 3839   6.450   0.817  16.303 -0.1320 -0.2058 -0.2085
   30DOPE   H8X 3840   6.371   0.739  16.300 -0.1666 -0.3128  1.9198
   30DOPE   H8Y 3841   6.552   0.784  16.274  0.1705  0.2556  0.2921
   30DOPE   C39 3842   6.421   0.930  16.210 -0.7190 -0.0970 -0.4156
   30DOPE   H9X 3843   6.437   1.032  16.250 -1.3861  0.1749 -0.8348
   30DOPE  C310 3844   6.376   0.920  16.085  0.5796  0.3187  0.0286
   30DOPE  H10X 3845   6.377   1.020  16.039 -0.8516  0.9289  1.2348
   30DOPE  C311 3846   6.350   0.788  16.011 -0.5502  0.4860  0.2271
   30DOPE  H11X 3847   6.401   0.704  16.065  3.7553  1.5890 -1.6628
   30DOPE  H11Y 3848   6.240   0.778  16.000 -0.5175  0.7176 -0.3454
   30DOPE  C312 3849   6.412   0.795  15.868  0.6966  0.3839  0.2152
   30DOPE  H12X 3850   6.516   0.834  15.870  0.5326  0.8759  2.4982
   30DOPE  H12Y 3851   6.351   0.866  15.808  2.1394 -0.2180 -2.0877
   30DOPE  C313 3852   6.403   0.657  15.792  0.4952 -0.3949 -0.0402
   30DOPE  H13X 3853   6.428   0.564  15.847 -0.8918 -1.6088 -1.3616
   30DOPE  H13Y 3854   6.294   0.635  15.787  0.5797 -0.5762 -3.0752
   30DOPE  C314 3855   6.456   0.661  15.650 -0.4432  0.6452 -1.1064
   30DOPE  H14X 3856   6.567   0.666  15.657 -0.4950  0.1250  0.3300
   30DOPE  H14Y 3857   6.423   0.759  15.608 -1.0438  0.7913 -0.2963
   30DOPE  C315 3858   6.427   0.535  15.564 -0.4491 -0.6325  0.8296
   30DOPE  H15X 3859   6.318   0.529  15.544 -0.6109  2.1690  0.5519
   30DOPE  H15Y 3860   6.457   0.445  15.623  0.4481  0.7744  2.6152
   30DOPE  C316 3861   6.495   0.537  15.422  0.3927  0.3423  0.3924
   30DOPE  H16X 3862   6.599   0.499  15.429  0.0082 -0.5629  1.3772
   30DOPE  H16Y 3863   6.484   0.638  15.376 -1.5230  0.7452  1.6053
   30DOPE  C317 3864   6.413   0.446  15.323 -0.5027 -0.4641  0.1213
   30DOPE  H17X 3865   6.386   0.350  15.373 -3.7704 -0.8737 -2.1146
   30DOPE  H17Y 3866   6.310   0.482  15.304 -1.2097 -2.3727  0.1111
   30DOPE  C318 3867   6.474   0.431  15.185 -0.0056  0.2038  0.4592
   30DOPE  H18X 3868   6.473   0.526  15.127 -1.5990  0.1777  0.3966
   30DOPE  H18Y 3869   6.577   0.389  15.192 -0.5618 -0.9970  1.9732
   30DOPE  H18Z 3870   6.430   0.350  15.122  0.6308 -0.5171  0.9191
   31DOPE     N 3871   4.185   4.231  12.212 -0.2394 -0.0335 -0.5135
   31DOPE   HN1 3872   4.184   4.329  12.248  2.0524 -1.1992  3.2828
   31DOPE   HN2 3873   4.276   4.209  12.168  1.3772  3.1216  0.8841
   31DOPE   HN3 3874   4.117   4.203  12.139  0.7995 -2.7972 -0.5399
   31DOPE   C12 3875   4.182   4.142  12.339  0.8552 -0.4097  0.5960
   31DOPE  H12A 3876   4.281   4.151  12.388  0.4702  1.2266  1.1212
   31DOPE  H12B 3877   4.170   4.038  12.302  1.1074 -0.0873 -0.4444
   31DOPE   C11 3878   4.083   4.193  12.441 -0.4351 -0.1565  0.0628
   31DOPE  H11A 3879   4.122   4.283  12.493 -0.5318 -0.7178  1.1394
   31DOPE  H11B 3880   4.096   4.121  12.524 -1.9847 -1.0011 -0.3950
   31DOPE     P 3881   3.854   4.323  12.427  0.0167  0.3433  0.1652
   31DOPE   O13 3882   3.727   4.311  12.352  0.0433  0.3891 -0.0495
   31DOPE   O14 3883   3.931   4.452  12.405  0.0320  0.5317  0.2427
   31DOPE   O11 3884   3.832   4.297  12.580 -0.2680  0.6421 -0.5092
   31DOPE   O12 3885   3.951   4.203  12.381  0.4789  0.4997 -0.5812
   31DOPE    C1 3886   3.766   4.167  12.607  0.1266  0.4416 -0.1047
   31DOPE    HA 3887   3.837   4.084  12.588 -0.0169 -0.4869  2.8104
   31DOPE    HB 3888   3.671   4.163  12.551  0.9805 -1.4472 -1.5198
   31DOPE    C2 3889   3.737   4.153  12.759  0.3169  0.0009  0.1084
   31DOPE    HS 3890   3.657   4.228  12.776  0.5029  0.1060  0.5184
   31DOPE   O21 3891   3.867   4.177  12.819 -0.4011 -0.4408 -0.3144
   31DOPE   C21 3892   3.867   4.225  12.940 -0.2936 -0.5607 -0.2774
   31DOPE   O22 3893   3.780   4.265  13.014 -0.0317 -0.4722 -0.1120
   31DOPE   C22 3894   4.012   4.220  12.989 -0.1365  0.3690 -0.0591
   31DOPE   H2R 3895   4.071   4.279  12.916  0.3347 -1.4079 -1.1744
   31DOPE   H2S 3896   4.056   4.118  12.978  1.8344  1.2510 -0.8922
   31DOPE    C3 3897   3.677   4.022  12.793 -0.0315  0.1560 -0.2968
   31DOPE    HX 3898   3.755   3.943  12.787  0.7810  0.8537  0.6779
   31DOPE    HY 3899   3.608   4.002  12.709  0.0681  0.8578 -0.5498
   31DOPE   O31 3900   3.603   4.033  12.915  0.1805 -0.3237  0.2581
   31DOPE   C31 3901   3.658   3.977  13.028  0.0042  0.4773 -0.3149
   31DOPE   O32 3902   3.771   3.924  13.035  0.5516 -0.2840 -0.1552
   31DOPE   C32 3903   3.555   3.985  13.143 -0.0472  0.7147 -0.6738
   31DOPE   H2X 3904   3.536   4.094  13.151 -1.7317  0.6149 -2.5027
   31DOPE   H2Y 3905   3.457   3.949  13.104 -1.3334  2.2510  0.9320
   31DOPE   C23 3906   4.023   4.274  13.134 -0.5069 -0.4303 -0.2156
   31DOPE   H3R 3907   3.979   4.376  13.138  2.3422  1.1254 -3.3881
   31DOPE   H3S 3908   4.131   4.299  13.147 -0.5227  0.9839 -2.2976
   31DOPE   C24 3909   3.971   4.191  13.249  1.5978 -0.7067 -0.2348
   31DOPE   H4R 3910   4.028   4.096  13.255  2.2558 -0.2315  2.0330
   31DOPE   H4S 3911   3.865   4.165  13.227  0.7183 -1.9838  4.4570
   31DOPE   C25 3912   3.986   4.261  13.387  0.5727  0.0969  0.1550
   31DOPE   H5R 3913   3.950   4.366  13.379  0.1093 -0.0798 -0.1523
   31DOPE   H5S 3914   4.094   4.275  13.408  1.5618 -3.5169 -1.8119
   31DOPE   C26 3915   3.899   4.199  13.506 -0.4485  0.4074  0.1315
   31DOPE   H6R 3916   3.920   4.091  13.521 -1.9209 -0.1299 -1.3402
   31DOPE   H6S 3917   3.796   4.195  13.465  0.3372 -0.7255 -1.8870
   31DOPE   C27 3918   3.911   4.281  13.634 -0.1128  0.1256 -0.1311
   31DOPE   H7R 3919   3.872   4.383  13.613 -1.0407 -0.1742  0.0748
   31DOPE   H7S 3920   4.016   4.295  13.664  0.4012  0.2921 -1.8747
   31DOPE   C28 3921   3.839   4.213  13.755 -0.0101  0.1643  0.0743
   31DOPE   H8R 3922   3.877   4.109  13.763  0.5664  0.3950  0.4042
   31DOPE   H8S 3923   3.736   4.186  13.722 -0.9329  1.9618  1.3003
   31DOPE   C29 3924   3.837   4.293  13.878  0.6048 -0.1670 -0.3706
   31DOPE   H9R 3925   3.738   4.330  13.907 -0.1875 -2.1480 -0.3821
   31DOPE  C210 3926   3.918   4.292  13.986 -0.2818 -0.1079  0.5477
   31DOPE  H10R 3927   3.883   4.361  14.065 -1.6140 -1.1961  0.9642
   31DOPE  C211 3928   4.051   4.219  13.999  0.2161  0.2195  0.3526
   31DOPE  H11R 3929   4.138   4.289  14.002 -0.4867  1.1703 -0.9186
   31DOPE  H11S 3930   4.067   4.146  13.917  1.6470  2.2626 -1.3053
   31DOPE  C212 3931   4.047   4.133  14.124 -0.1544  0.0148  0.1813
   31DOPE  H12R 3932   4.141   4.074  14.117  1.1574  1.8894  1.1321
   31DOPE  H12S 3933   3.965   4.060  14.107  1.4761 -2.0324  0.6408
   31DOPE  C213 3934   4.030   4.213  14.252 -0.6651  0.2399 -0.4794
   31DOPE  H13R 3935   3.947   4.287  14.245 -2.0861 -1.4573 -3.1743
   31DOPE  H13S 3936   4.128   4.265  14.262 -1.3251  1.1583  2.0010
   31DOPE  C214 3937   4.022   4.132  14.383 -0.1351  0.4009 -0.0573
   31DOPE  H14R 3938   4.093   4.046  14.379 -0.4234  0.1976 -1.5775
   31DOPE  H14S 3939   3.922   4.085  14.395  0.0941  0.2402  1.3281
   31DOPE  C215 3940   4.036   4.215  14.505 -0.6631 -0.1615 -0.0491
   31DOPE  H15R 3941   3.948   4.280  14.526  0.7449  1.3391  1.5932
   31DOPE  H15S 3942   4.120   4.287  14.491 -3.2191  2.7573 -1.5320
   31DOPE  C216 3943   4.060   4.137  14.639  0.6001  0.4257  0.2013
   31DOPE  H16R 3944   4.163   4.095  14.625  1.8029  3.0254  0.7291
   31DOPE  H16S 3945   3.983   4.057  14.643  0.5780  0.4660  0.6013
   31DOPE  C217 3946   4.045   4.224  14.761  0.0936  0.4234  0.0289
   31DOPE  H17R 3947   4.089   4.169  14.847  0.7282  1.7710  0.5960
   31DOPE  H17S 3948   3.941   4.259  14.781  0.2670  1.8865 -1.3502
   31DOPE  C218 3949   4.111   4.356  14.741 -0.7440  0.4174 -0.0512
   31DOPE  H18R 3950   4.121   4.413  14.836 -0.7605  0.1941  0.0845
   31DOPE  H18S 3951   4.050   4.425  14.679 -1.5503 -0.6985 -0.5294
   31DOPE  H18T 3952   4.213   4.348  14.699  0.0417  0.4140  1.7885
   31DOPE   C33 3953   3.598   3.913  13.272  0.4047  0.2307 -0.2622
   31DOPE   H3X 3954   3.703   3.939  13.298  0.2677 -0.3084  0.8684
   31DOPE   H3Y 3955   3.592   3.802  13.262  1.7788  0.1652 -0.6248
   31DOPE   C34 3956   3.499   3.959  13.383  0.0587  0.6524  0.5030
   31DOPE   H4X 3957   3.526   4.062  13.415 -1.1702  0.3870  2.5718
   31DOPE   H4Y 3958   3.395   3.963  13.345 -0.2430 -1.8893  0.8846
   31DOPE   C35 3959   3.525   3.867  13.501 -0.3555 -0.3573  0.5664
   31DOPE   H5X 3960   3.545   3.760  13.475  2.0614 -0.6716  3.1883
   31DOPE   H5Y 3961   3.428   3.885  13.552 -0.7916  0.5742 -0.5514
   31DOPE   C36 3962   3.641   3.926  13.590 -0.5956  0.2717  0.1985
   31DOPE   H6X 3963   3.599   4.022  13.625 -2.4694 -0.3426 -0.2873
   31DOPE   H6Y 3964   3.720   3.958  13.518 -1.0330  0.0340 -0.3911
   31DOPE   C37 3965   3.699   3.838  13.698 -0.1847  0.3368  0.2441
   31DOPE   H7X 3966   3.774   3.764  13.663 -0.4666 -0.1359  0.6274
   31DOPE   H7Y 3967   3.773   3.890  13.762 -0.9051 -0.2681  1.5985
   31DOPE   C38 3968   3.588   3.773  13.785  0.3667  0.0520 -0.3622
   31DOPE   H8X 3969   3.645   3.713  13.859  2.4388  2.7778  0.4365
   31DOPE   H8Y 3970   3.524   3.708  13.722 -1.1992  1.5625 -0.4068
   31DOPE   C39 3971   3.504   3.877  13.856  0.3944 -0.2391 -0.3332
   31DOPE   H9X 3972   3.397   3.861  13.836  0.0588  1.5091 -0.1559
   31DOPE  C310 3973   3.545   3.959  13.953  0.3770 -0.0326 -0.1945
   31DOPE  H10X 3974   3.467   4.021  14.002  0.8307  1.0131 -0.7624
   31DOPE  C311 3975   3.677   3.967  14.023  0.0799 -0.2072  0.3158
   31DOPE  H11X 3976   3.742   3.890  13.976 -0.3136  0.1640 -0.8722
   31DOPE  H11Y 3977   3.715   4.069  14.003 -0.9229 -0.2654 -2.2301
   31DOPE  C312 3978   3.666   3.955  14.176  0.6182 -0.1597  0.4038
   31DOPE  H12X 3979   3.770   3.934  14.206  0.5141 -0.8177  0.3106
   31DOPE  H12Y 3980   3.599   3.875  14.215 -0.7177  1.0303  0.6458
   31DOPE  C313 3981   3.619   4.080  14.245  0.0927  0.5013 -0.0568
   31DOPE  H13X 3982   3.695   4.160  14.232  0.7876 -0.3263 -1.2519
   31DOPE  H13Y 3983   3.525   4.111  14.194 -0.5162 -0.9426  0.1361
   31DOPE  C314 3984   3.578   4.053  14.392 -0.0265 -0.3001 -0.1961
   31DOPE  H14X 3985   3.662   4.013  14.453  1.3576 -0.6592 -2.2358
   31DOPE  H14Y 3986   3.508   3.967  14.378  0.3291 -0.7942  0.9274
   31DOPE  C315 3987   3.503   4.164  14.455  0.8841 -0.5742 -0.4655
   31DOPE  H15X 3988   3.413   4.190  14.394 -1.3524 -0.3833  2.6459
   31DOPE  H15Y 3989   3.579   4.244  14.448 -1.8031  2.2625  0.2282
   31DOPE  C316 3990   3.457   4.122  14.600  0.4281  0.3958  0.1646
   31DOPE  H16X 3991   3.536   4.070  14.659 -0.3001 -1.1907 -0.1965
   31DOPE  H16Y 3992   3.373   4.050  14.601 -0.2725  1.1748  2.7161
   31DOPE  C317 3993   3.406   4.239  14.684 -0.4259 -0.3173  0.6581
   31DOPE  H17X 3994   3.489   4.298  14.728 -0.7017 -0.3599  1.2496
   31DOPE  H17Y 3995   3.339   4.299  14.619 -0.0787 -0.2940  0.3235
   31DOPE  C318 3996   3.321   4.187  14.806 -0.2786 -0.0903  0.5989
   31DOPE  H18X 3997   3.248   4.113  14.767  0.0809 -0.8878  1.3928
   31DOPE  H18Y 3998   3.395   4.131  14.867  1.5364  0.7564 -0.7363
   31DOPE  H18Z 3999   3.268   4.269  14.859 -0.3024  0.5014 -0.3240
   32DOPE     N 4000   3.847   4.987  12.418 -0.2905  0.6388  0.4267
   32DOPE   HN1 4001   3.875   4.889  12.436  0.9327  0.7781 -0.5580
   32DOPE   HN2 4002   3.746   4.980  12.394 -0.6339 -1.6025  2.2055
   32DOPE   HN3 4003   3.896   5.011  12.330 -3.4549 -0.0832 -1.7015
   32DOPE   C12 4004   3.888   5.043  12.548  0.3292  0.0615 -0.6462
   32DOPE  H12A 4005   3.826   5.008  12.633  1.4043  3.2763  1.6744
   32DOPE  H12B 4006   3.866   5.152  12.549  0.8573  0.1733 -1.0061
   32DOPE   C11 4007   4.035   5.023  12.573  0.5234  0.0295 -0.4324
   32DOPE  H11A 4008   4.065   5.081  12.663 -1.5147  0.1685  0.2000
   32DOPE  H11B 4009   4.092   5.067  12.488  0.2916 -1.8735 -1.6373
   32DOPE     P 4010   4.206   4.829  12.553 -0.0504 -0.5716  0.4661
   32DOPE   O13 4011   4.288   4.923  12.467 -0.3505 -0.3630 -0.0634
   32DOPE   O14 4012   4.197   4.690  12.495  0.0002 -0.0595  0.2009
   32DOPE   O11 4013   4.268   4.822  12.699 -0.2470  0.4576  0.4697
   32DOPE   O12 4014   4.061   4.882  12.588  1.1247  1.1913 -0.1180
   32DOPE    C1 4015   4.187   4.782  12.814  0.5575 -0.4399  0.5238
   32DOPE    HA 4016   4.219   4.688  12.864 -0.3544 -2.0326 -1.7253
   32DOPE    HB 4017   4.079   4.771  12.790  0.6956 -2.0428  0.5354
   32DOPE    C2 4018   4.192   4.889  12.927 -0.3079 -0.4101 -0.4434
   32DOPE    HS 4019   4.174   4.987  12.878  0.9785  1.4106  2.4752
   32DOPE   O21 4020   4.331   4.888  12.983 -0.1210 -0.0185  0.0724
   32DOPE   C21 4021   4.370   4.974  13.073 -0.1163 -0.0772  0.3193
   32DOPE   O22 4022   4.312   5.077  13.111 -0.3282  0.0100 -0.3179
   32DOPE   C22 4023   4.513   4.946  13.098 -0.1713 -0.3254 -0.1441
   32DOPE   H2R 4024   4.572   4.977  13.010 -2.9298 -0.9241 -2.3453
   32DOPE   H2S 4025   4.519   4.835  13.100  0.8376 -0.2792  0.1117
   32DOPE    C3 4026   4.082   4.879  13.041  0.3390 -0.2589  0.0011
   32DOPE    HX 4027   3.982   4.888  12.995  0.0040  0.4126  0.8347
   32DOPE    HY 4028   4.088   4.968  13.107 -0.0458  0.3126 -0.7139
   32DOPE   O31 4029   4.084   4.755  13.111 -0.2136 -0.0026  0.3017
   32DOPE   C31 4030   4.147   4.741  13.226 -0.1995 -0.7841  0.0549
   32DOPE   O32 4031   4.203   4.838  13.284  0.7381  0.1142 -0.3625
   32DOPE   C32 4032   4.137   4.597  13.273  0.5042 -0.3394  0.8272
   32DOPE   H2X 4033   4.067   4.590  13.359  1.3235 -0.6432  1.4842
   32DOPE   H2Y 4034   4.101   4.545  13.182 -0.5724 -1.3989  1.8210
   32DOPE   C23 4035   4.564   4.996  13.235  0.1825 -0.3295  0.4413
   32DOPE   H3R 4036   4.505   5.088  13.257  1.2245 -0.1979  3.0748
   32DOPE   H3S 4037   4.675   5.002  13.244  0.3549 -0.7278 -1.1363
   32DOPE   C24 4038   4.541   4.899  13.357  0.8773  1.0717  0.0461
   32DOPE   H4R 4039   4.599   4.807  13.337  0.7020  1.1452 -0.8638
   32DOPE   H4S 4040   4.434   4.871  13.366  1.4391 -2.1103 -1.8021
   32DOPE   C25 4041   4.579   4.948  13.495  0.7540  0.0196  0.0315
   32DOPE   H5R 4042   4.524   5.042  13.517  0.1845 -0.4403  0.6334
   32DOPE   H5S 4043   4.685   4.981  13.492  1.0162 -0.8537 -0.4250
   32DOPE   C26 4044   4.555   4.867  13.621 -0.2461  0.9393 -1.1480
   32DOPE   H6R 4045   4.619   4.777  13.634  0.8315  2.0640  2.9149
   32DOPE   H6S 4046   4.453   4.825  13.611  0.1507  0.2769 -2.5490
   32DOPE   C27 4047   4.581   4.949  13.751 -0.5652  0.1451 -0.9720
   32DOPE   H7R 4048   4.541   5.051  13.733 -2.6391 -0.5253 -0.3925
   32DOPE   H7S 4049   4.690   4.963  13.765 -0.7770 -0.6537  2.1247
   32DOPE   C28 4050   4.521   4.886  13.874  0.0949  0.2801 -0.0227
   32DOPE   H8R 4051   4.422   4.847  13.842 -0.4395  1.6676 -0.1416
   32DOPE   H8S 4052   4.492   4.967  13.945 -1.4823  0.6459 -1.0244
   32DOPE   C29 4053   4.610   4.786  13.934 -0.3118  0.3403 -0.5107
   32DOPE   H9R 4054   4.639   4.700  13.872 -0.9484  1.0814 -1.8800
   32DOPE  C210 4055   4.667   4.801  14.059 -0.2861  1.0178  0.0315
   32DOPE  H10R 4056   4.730   4.723  14.103  0.8567  0.7941 -1.8766
   32DOPE  C211 4057   4.663   4.919  14.153 -0.0774 -0.3081  0.0491
   32DOPE  H11R 4058   4.633   5.018  14.112  0.2002  0.5037  1.7258
   32DOPE  H11S 4059   4.766   4.939  14.189 -0.7702  1.6660  1.0849
   32DOPE  C212 4060   4.575   4.886  14.276  0.4868 -0.9338 -0.5301
   32DOPE  H12R 4061   4.604   4.789  14.322 -0.9013 -0.1855  2.1395
   32DOPE  H12S 4062   4.469   4.879  14.246  0.3487 -2.8435  0.2744
   32DOPE  C213 4063   4.590   4.988  14.393 -0.5910 -0.5598  0.2528
   32DOPE  H13R 4064   4.539   5.081  14.358 -0.9517  0.1133  2.4081
   32DOPE  H13S 4065   4.699   4.987  14.415 -0.0981  0.2272 -1.8671
   32DOPE  C214 4066   4.518   4.949  14.520  0.2500  0.3894  0.2655
   32DOPE  H14R 4067   4.570   4.867  14.574  0.6044  0.5462  0.1642
   32DOPE  H14S 4068   4.418   4.923  14.479  0.5409 -0.9599  0.3562
   32DOPE  C215 4069   4.503   5.063  14.627 -0.0636 -0.1744  0.5820
   32DOPE  H15R 4070   4.438   5.029  14.710 -0.6320 -0.3580  0.0618
   32DOPE  H15S 4071   4.454   5.147  14.573 -1.1741  0.5242  2.5585
   32DOPE  C216 4072   4.642   5.104  14.694  0.4688  0.3027  0.8580
   32DOPE  H16R 4073   4.698   5.157  14.614  0.2245  2.2901  1.9346
   32DOPE  H16S 4074   4.704   5.018  14.724 -0.6259 -0.7671  0.1631
   32DOPE  C217 4075   4.618   5.215  14.794 -0.4798 -0.0687 -0.2053
   32DOPE  H17R 4076   4.536   5.191  14.865 -1.3707  1.0795 -0.8244
   32DOPE  H17S 4077   4.593   5.310  14.742  0.2176  0.4723  0.4142
   32DOPE  C218 4078   4.746   5.260  14.866 -0.7147  0.4872 -0.1742
   32DOPE  H18R 4079   4.834   5.278  14.801  1.1274 -1.2509  1.6802
   32DOPE  H18S 4080   4.773   5.171  14.926  0.2042 -0.6608 -2.1743
   32DOPE  H18T 4081   4.719   5.348  14.928 -0.8162 -0.7947  1.6961
   32DOPE   C33 4082   4.281   4.537  13.310 -0.2237  0.0194 -0.7155
   32DOPE   H3X 4083   4.356   4.568  13.234 -0.4655  0.8768 -0.6198
   32DOPE   H3Y 4084   4.276   4.429  13.285 -0.3409 -0.2003  0.2259
   32DOPE   C34 4085   4.327   4.577  13.453 -0.1837 -0.0529 -0.1073
   32DOPE   H4X 4086   4.434   4.549  13.459 -0.2895 -0.2817  1.0646
   32DOPE   H4Y 4087   4.314   4.688  13.456 -0.1386 -0.0129 -1.1831
   32DOPE   C35 4088   4.240   4.518  13.566  1.0397 -0.1334 -0.5598
   32DOPE   H5X 4089   4.231   4.408  13.554 -0.6374  0.0890 -1.6776
   32DOPE   H5Y 4090   4.139   4.560  13.550  1.0678 -0.5667 -1.9517
   32DOPE   C36 4091   4.298   4.569  13.702 -0.3590 -0.7833  0.3752
   32DOPE   H6X 4092   4.284   4.679  13.712 -1.1001 -1.0694  3.0228
   32DOPE   H6Y 4093   4.406   4.544  13.712 -0.0879  0.7338  1.7721
   32DOPE   C37 4094   4.225   4.519  13.822 -0.0747 -0.1291 -0.0112
   32DOPE   H7X 4095   4.116   4.525  13.807 -0.0890  0.8620  0.4620
   32DOPE   H7Y 4096   4.259   4.414  13.841  1.5879 -0.2525 -2.9517
   32DOPE   C38 4097   4.257   4.606  13.940 -0.4797 -0.4705 -0.1971
   32DOPE   H8X 4098   4.210   4.706  13.929  0.6801 -0.0681 -2.2251
   32DOPE   H8Y 4099   4.366   4.629  13.945 -1.0127  2.0033  1.6695
   32DOPE   C39 4100   4.205   4.528  14.060 -0.4207 -0.1036  0.1677
   32DOPE   H9X 4101   4.097   4.508  14.067 -0.7614  1.5536 -0.0111
   32DOPE  C310 4102   4.283   4.494  14.165  0.0242  0.3639 -0.5059
   32DOPE  H10X 4103   4.239   4.443  14.252  0.0373 -0.6053 -1.0538
   32DOPE  C311 4104   4.429   4.522  14.182 -0.0344  0.4776  0.2953
   32DOPE  H11X 4105   4.499   4.466  14.116 -1.8167 -0.3101 -1.0123
   32DOPE  H11Y 4106   4.451   4.625  14.146  2.5531  0.4400  1.5194
   32DOPE  C312 4107   4.483   4.505  14.326  0.5695 -0.0606 -0.1109
   32DOPE  H12X 4108   4.585   4.548  14.326  0.8141 -0.5701  1.2765
   32DOPE  H12Y 4109   4.488   4.399  14.360 -0.9332 -0.1354 -0.0631
   32DOPE  C313 4110   4.407   4.588  14.437 -0.4922  0.2867  0.1206
   32DOPE  H13X 4111   4.379   4.686  14.394  2.5627  1.9107  1.5007
   32DOPE  H13Y 4112   4.319   4.524  14.459 -0.2844  0.5479  1.8877
   32DOPE  C314 4113   4.483   4.610  14.566  0.1259  0.1612 -0.3715
   32DOPE  H14X 4114   4.427   4.683  14.628 -0.0583  1.2592 -1.7879
   32DOPE  H14Y 4115   4.583   4.654  14.549  1.2376 -1.9196  0.3706
   32DOPE  C315 4116   4.511   4.485  14.637  0.5093  0.6934 -0.5947
   32DOPE  H15X 4117   4.604   4.426  14.623 -0.4280 -1.2092  0.6313
   32DOPE  H15Y 4118   4.431   4.412  14.613 -0.3826  1.3408  0.3150
   32DOPE  C316 4119   4.515   4.494  14.797 -0.6020  0.1832 -0.9952
   32DOPE  H16X 4120   4.424   4.556  14.808  1.3458  3.1878 -0.8486
   32DOPE  H16Y 4121   4.602   4.555  14.829 -1.0968  0.1285  0.5389
   32DOPE  C317 4122   4.496   4.370  14.880  0.1351  0.1311  0.0246
   32DOPE  H17X 4123   4.500   4.400  14.987 -0.8401 -1.0791  0.4358
   32DOPE  H17Y 4124   4.393   4.332  14.861  0.9635 -2.6294  0.5918
   32DOPE  C318 4125   4.591   4.254  14.857 -0.5556  0.3474 -0.0210
   32DOPE  H18X 4126   4.593   4.230  14.749  0.6443  0.6579 -0.0780
   32DOPE  H18Y 4127   4.695   4.278  14.888 -0.4446 -1.9276  1.6233
   32DOPE  H18Z 4128   4.558   4.171  14.923 -2.3637 -0.4341 -1.7776
   33DOPE     N 4129   3.116   3.080  12.594 -0.2994 -0.0573 -0.2750
   33DOPE   HN1 4130   3.024   3.031  12.595 -0.2779 -0.3102  3.3709
   33DOPE   HN2 4131   3.099   3.178  12.563  2.1581  0.7550  0.6596
   33DOPE   HN3 4132   3.187   3.043  12.528  0.4695  1.8260 -0.5660
   33DOPE   C12 4133   3.178   3.082  12.727 -0.0184 -0.2514 -0.5756
   33DOPE  H12A 4134   3.180   2.979  12.771 -1.2183 -0.3233 -0.6702
   33DOPE  H12B 4135   3.111   3.146  12.788  1.3017 -1.4071  2.2719
   33DOPE   C11 4136   3.313   3.151  12.723 -0.2824  0.3815 -0.2261
   33DOPE  H11A 4137   3.373   3.071  12.673  0.1133 -0.4776  1.5301
   33DOPE  H11B 4138   3.354   3.152  12.827  0.5065  0.3310 -0.5282
   33DOPE     P 4139   3.462   3.343  12.664  0.1586 -0.0573 -0.0301
   33DOPE   O13 4140   3.460   3.481  12.606 -0.4919 -0.2818  0.2905
   33DOPE   O14 4141   3.567   3.257  12.606 -0.2368  0.2960 -0.0111
   33DOPE   O11 4142   3.477   3.364  12.823 -0.1682  0.4043 -0.1255
   33DOPE   O12 4143   3.318   3.273  12.648 -0.3622 -0.3481 -0.3880
   33DOPE    C1 4144   3.444   3.489  12.881  0.4307 -0.0849  0.8231
   33DOPE    HA 4145   3.357   3.536  12.830  0.4155 -0.8453  0.1125
   33DOPE    HB 4146   3.529   3.559  12.866  1.8000 -1.8992 -0.3763
   33DOPE    C2 4147   3.411   3.478  13.034  0.1598  0.0372  0.0094
   33DOPE    HS 4148   3.422   3.576  13.085 -1.5302 -0.6402  1.8007
   33DOPE   O21 4149   3.498   3.387  13.099 -0.2773  0.1973 -0.2077
   33DOPE   C21 4150   3.624   3.416  13.110 -0.4622  0.1223  0.5138
   33DOPE   O22 4151   3.679   3.517  13.069 -0.8666  0.0084  0.0273
   33DOPE   C22 4152   3.692   3.297  13.175 -0.0229  0.1686 -0.3640
   33DOPE   H2R 4153   3.733   3.230  13.096 -1.7057 -1.2903 -0.0672
   33DOPE   H2S 4154   3.613   3.243  13.230  0.5307  0.5835  0.8681
   33DOPE    C3 4155   3.263   3.436  13.057  0.1568 -0.3206 -0.6206
   33DOPE    HX 4156   3.246   3.344  12.997 -1.6027 -0.7708  0.4903
   33DOPE    HY 4157   3.195   3.513  13.015 -0.2474 -1.4479 -2.1130
   33DOPE   O31 4158   3.222   3.415  13.195 -0.1486 -0.3270  0.3775
   33DOPE   C31 4159   3.232   3.519  13.277  0.3753 -0.1905  0.0800
   33DOPE   O32 4160   3.261   3.633  13.240 -0.3382 -0.0032 -0.0176
   33DOPE   C32 4161   3.188   3.473  13.409 -0.1018 -0.7346 -0.2518
   33DOPE   H2X 4162   3.080   3.450  13.402 -0.0377 -0.8020 -1.1540
   33DOPE   H2Y 4163   3.240   3.377  13.430  0.2476 -0.4271  0.3080
   33DOPE   C23 4164   3.810   3.339  13.263  1.5922  0.0983 -0.6220
   33DOPE   H3R 4165   3.889   3.407  13.223  0.9320  1.7070  0.6621
   33DOPE   H3S 4166   3.865   3.251  13.301  0.9029  0.5699  1.6378
   33DOPE   C24 4167   3.754   3.402  13.395  0.5322 -0.6169  0.3438
   33DOPE   H4R 4168   3.667   3.338  13.424  0.4827  0.0449  1.7601
   33DOPE   H4S 4169   3.709   3.502  13.378  2.1017 -0.0706 -0.8392
   33DOPE   C25 4170   3.859   3.414  13.512  0.0267  0.0375 -0.1621
   33DOPE   H5R 4171   3.936   3.485  13.476 -2.0989  1.8210 -1.4300
   33DOPE   H5S 4172   3.890   3.309  13.532 -2.2435 -0.2665  2.4336
   33DOPE   C26 4173   3.811   3.463  13.652 -0.3955 -1.3197  0.4228
   33DOPE   H6R 4174   3.725   3.532  13.638  0.1144 -0.3708  1.7481
   33DOPE   H6S 4175   3.898   3.517  13.695 -0.0153 -1.4639 -0.1443
   33DOPE   C27 4176   3.775   3.347  13.734  0.3202 -0.3885  0.2688
   33DOPE   H7R 4177   3.864   3.294  13.772  1.0775  0.2925 -0.5264
   33DOPE   H7S 4178   3.705   3.277  13.683  1.8169 -1.0463 -0.9416
   33DOPE   C28 4179   3.695   3.393  13.854 -0.1134 -0.0577  0.3430
   33DOPE   H8R 4180   3.637   3.304  13.887 -1.9444  0.9008 -0.1198
   33DOPE   H8S 4181   3.615   3.466  13.829  0.5957  0.6579  0.1231
   33DOPE   C29 4182   3.791   3.452  13.959  0.0846  0.3587  0.2461
   33DOPE   H9R 4183   3.886   3.499  13.929  1.1055 -1.9950 -0.4276
   33DOPE  C210 4184   3.760   3.461  14.091  0.2834 -0.0708 -0.1214
   33DOPE  H10R 4185   3.830   3.508  14.162  0.6468  1.3641 -1.3852
   33DOPE  C211 4186   3.633   3.419  14.152  0.0168  0.7620 -0.1030
   33DOPE  H11R 4187   3.651   3.327  14.212  2.1750  1.0842 -0.2021
   33DOPE  H11S 4188   3.568   3.386  14.068  0.2862 -0.8763  0.2882
   33DOPE  C212 4189   3.579   3.536  14.228 -0.3856  0.3887 -0.7324
   33DOPE  H12R 4190   3.476   3.508  14.259 -0.8527  1.0141 -1.6477
   33DOPE  H12S 4191   3.567   3.628  14.166 -0.8754  1.0437  0.3126
   33DOPE  C213 4192   3.660   3.577  14.350 -0.2904 -0.2851  0.2675
   33DOPE  H13R 4193   3.734   3.657  14.326 -1.6295  1.1448  0.7557
   33DOPE  H13S 4194   3.697   3.486  14.402 -1.1570 -1.5612 -1.2734
   33DOPE  C214 4195   3.574   3.648  14.459 -0.9823  0.0299  0.2756
   33DOPE  H14R 4196   3.511   3.574  14.513  0.2261 -0.3442  1.1878
   33DOPE  H14S 4197   3.508   3.719  14.403  0.8875  1.8025  0.2027
   33DOPE  C215 4198   3.661   3.719  14.560 -0.1951 -0.4074 -0.1506
   33DOPE  H15R 4199   3.596   3.776  14.630 -0.7498 -0.8009 -0.3423
   33DOPE  H15S 4200   3.723   3.796  14.509  0.2730  0.1633  1.2106
   33DOPE  C216 4201   3.770   3.634  14.628 -0.0961  0.7751 -0.4884
   33DOPE  H16R 4202   3.842   3.602  14.549  0.1354  1.0140 -0.3759
   33DOPE  H16S 4203   3.715   3.547  14.669 -0.0549  1.8708  2.0908
   33DOPE  C217 4204   3.847   3.712  14.734  0.1960 -0.4378 -0.2437
   33DOPE  H17R 4205   3.781   3.746  14.817  3.1859  0.8353  1.7632
   33DOPE  H17S 4206   3.897   3.800  14.689  1.2476 -0.6328  0.4929
   33DOPE  C218 4207   3.957   3.633  14.809 -0.5328  0.1124  0.3915
   33DOPE  H18R 4208   3.995   3.688  14.898  1.0741 -3.1310  1.8629
   33DOPE  H18S 4209   4.035   3.599  14.738 -1.1508  0.2488 -0.3617
   33DOPE  H18T 4210   3.906   3.543  14.850  2.3471 -1.8762 -0.0641
   33DOPE   C33 4211   3.226   3.567  13.529  0.1838  0.1684  0.1712
   33DOPE   H3X 4212   3.168   3.661  13.525 -0.8411 -0.4739 -0.4212
   33DOPE   H3Y 4213   3.335   3.591  13.535  0.8779 -2.2229 -1.4192
   33DOPE   C34 4214   3.184   3.502  13.668  0.1247 -0.4614 -0.1681
   33DOPE   H4X 4215   3.078   3.473  13.648 -0.5607  0.3929  1.9214
   33DOPE   H4Y 4216   3.246   3.411  13.677 -1.1011 -1.2080  1.2829
   33DOPE   C35 4217   3.204   3.590  13.793  0.4158 -0.2477  0.8771
   33DOPE   H5X 4218   3.137   3.677  13.777 -1.1055 -1.5522 -0.1739
   33DOPE   H5Y 4219   3.306   3.634  13.798  0.6538 -0.3114 -1.8426
   33DOPE   C36 4220   3.171   3.518  13.924  0.1564  0.5937  0.1190
   33DOPE   H6X 4221   3.240   3.431  13.934  0.3179  0.7050 -0.0283
   33DOPE   H6Y 4222   3.075   3.465  13.911  0.9633 -0.9593  0.2116
   33DOPE   C37 4223   3.181   3.609  14.050  0.3428  0.9476  0.1774
   33DOPE   H7X 4224   3.274   3.669  14.039 -0.2875  2.0439  0.6091
   33DOPE   H7Y 4225   3.095   3.680  14.051 -0.1638  0.3802  2.1460
   33DOPE   C38 4226   3.191   3.526  14.183  0.1321  0.3754  1.0725
   33DOPE   H8X 4227   3.214   3.601  14.262  0.5473  2.2156 -0.7340
   33DOPE   H8Y 4228   3.267   3.445  14.179  0.3736  0.5437  1.9895
   33DOPE   C39 4229   3.061   3.457  14.214  0.7172  0.3611 -0.4247
   33DOPE   H9X 4230   3.008   3.422  14.125 -2.3543  1.1898  0.9665
   33DOPE  C310 4231   3.009   3.425  14.332  0.2529 -0.3275 -0.0851
   33DOPE  H10X 4232   2.908   3.386  14.350  0.5206  0.2729  3.6084
   33DOPE  C311 4233   3.076   3.462  14.465 -0.2483  0.0519  0.1612
   33DOPE  H11X 4234   3.183   3.435  14.468 -0.7978 -2.5010 -0.5753
   33DOPE  H11Y 4235   3.070   3.570  14.492  0.0873 -0.7267  3.8081
   33DOPE  C312 4236   3.014   3.369  14.572  0.3256 -0.2286 -0.5572
   33DOPE  H12X 4237   2.998   3.266  14.534  3.7352 -1.2094  0.3420
   33DOPE  H12Y 4238   2.916   3.420  14.590  0.3582 -1.0690  2.4783
   33DOPE  C313 4239   3.097   3.363  14.698  0.6063 -0.6444 -0.2143
   33DOPE  H13X 4240   3.204   3.337  14.682  0.1017 -3.0877  0.0974
   33DOPE  H13Y 4241   3.093   3.470  14.729  1.1304 -0.1907 -1.6186
   33DOPE  C314 4242   3.037   3.271  14.802 -0.4602 -0.2011  0.0618
   33DOPE  H14X 4243   3.052   3.165  14.772 -1.8357 -0.2950 -0.3697
   33DOPE  H14Y 4244   2.930   3.303  14.799 -0.3518  0.0919 -0.9261
   33DOPE  C315 4245   3.101   3.280  14.943 -0.2042  0.2008 -0.6060
   33DOPE  H15X 4246   3.119   3.387  14.968 -1.4347 -0.1961  2.3566
   33DOPE  H15Y 4247   3.199   3.227  14.944  0.4372  1.0763  3.4555
   33DOPE  C316 4248   3.009   3.209  15.048  0.2628  0.1694 -0.3360
   33DOPE  H16X 4249   3.014   3.102  15.019  0.2883 -0.2056  1.0302
   33DOPE  H16Y 4250   2.905   3.248  15.049  0.6388  1.5464 -3.1400
   33DOPE  C317 4251   3.072   3.209  15.185  0.3027  0.4539 -0.5729
   33DOPE  H17X 4252   3.175   3.167  15.182  0.4219  0.7687 -0.9797
   33DOPE  H17Y 4253   3.078   3.311  15.229 -2.3055  0.0879  0.8309
   33DOPE  C318 4254   2.992   3.123  15.285  0.6225 -0.0090 -0.0045
   33DOPE  H18X 4255   2.884   3.149  15.281 -0.2352 -3.1076  0.2651
   33DOPE  H18Y 4256   2.994   3.017  15.253  3.7256  0.7264 -2.7519
   33DOPE  H18Z 4257   3.035   3.140  15.386  0.8535 -2.5039  0.3764
   34DOPE     N 4258   2.278   5.399  12.074 -0.2129 -0.0167 -0.1011
   34DOPE   HN1 4259   2.341   5.317  12.085 -1.5467 -1.1816 -0.7769
   34DOPE   HN2 4260   2.181   5.373  12.099 -0.0217 -0.3678  0.2886
   34DOPE   HN3 4261   2.283   5.436  11.977  0.4739  1.3616  0.4233
   34DOPE   C12 4262   2.327   5.520  12.146  0.1407 -0.9608 -0.1777
   34DOPE  H12A 4263   2.241   5.577  12.188 -0.2102 -2.0471  0.6021
   34DOPE  H12B 4264   2.379   5.583  12.070 -0.9836  0.7596  0.4260
   34DOPE   C11 4265   2.416   5.487  12.272 -0.1402 -0.0991  0.2985
   34DOPE  H11A 4266   2.371   5.407  12.334 -1.3581  1.1065  1.0078
   34DOPE  H11B 4267   2.434   5.579  12.332  1.4238 -0.4402  0.3837
   34DOPE     P 4268   2.590   5.300  12.201  0.0631  0.0619 -0.0461
   34DOPE   O13 4269   2.728   5.302  12.149  0.1214  0.6886  0.1039
   34DOPE   O14 4270   2.482   5.234  12.120 -0.6696 -0.0890 -0.3400
   34DOPE   O11 4271   2.587   5.251  12.353  0.5858 -0.8727  0.0985
   34DOPE   O12 4272   2.548   5.453  12.224  0.1230  0.5268 -0.2128
   34DOPE    C1 4273   2.676   5.303  12.450  0.2532 -0.8106  0.5110
   34DOPE    HA 4274   2.639   5.402  12.483 -0.1311 -1.1021  0.9665
   34DOPE    HB 4275   2.779   5.315  12.409  0.0129  0.9364  0.3525
   34DOPE    C2 4276   2.689   5.205  12.567  0.0008 -0.3867 -0.0751
   34DOPE    HS 4277   2.724   5.109  12.524 -1.0812 -0.2373 -1.3629
   34DOPE   O21 4278   2.552   5.192  12.615 -0.3689 -0.5766  0.1323
   34DOPE   C21 4279   2.526   5.072  12.667 -0.6720  0.3840  0.1146
   34DOPE   O22 4280   2.606   4.982  12.670 -0.2534  0.7150  0.3934
   34DOPE   C22 4281   2.392   5.057  12.736 -0.7578 -0.3310  0.4376
   34DOPE   H2R 4282   2.315   5.043  12.657 -1.5657 -1.0601  1.3265
   34DOPE   H2S 4283   2.374   5.149  12.796 -0.3192 -0.3500  0.5986
   34DOPE    C3 4284   2.783   5.257  12.690  0.9276  0.0145 -0.3627
   34DOPE    HX 4285   2.731   5.350  12.721 -0.9928 -0.7325 -1.2108
   34DOPE    HY 4286   2.884   5.282  12.652  0.0794  0.3135 -2.5418
   34DOPE   O31 4287   2.788   5.166  12.802  0.3063  0.1290 -0.6460
   34DOPE   C31 4288   2.862   5.059  12.779  0.4040  0.5222  1.2426
   34DOPE   O32 4289   2.926   5.030  12.679  0.1111 -0.3759  0.5278
   34DOPE   C32 4290   2.873   4.981  12.909 -0.3829 -0.7388 -0.6898
   34DOPE   H2X 4291   2.879   5.060  12.986  0.7900 -0.0484 -1.4565
   34DOPE   H2Y 4292   2.782   4.919  12.922  0.6024 -2.1386 -0.2691
   34DOPE   C23 4293   2.397   4.949  12.844  0.5333 -0.4177 -0.3876
   34DOPE   H3R 4294   2.436   4.855  12.798 -2.4213 -0.6442 -2.7482
   34DOPE   H3S 4295   2.294   4.922  12.876  0.0203  1.2270 -0.5687
   34DOPE   C24 4296   2.473   4.994  12.970  0.5433  0.5635  0.8254
   34DOPE   H4R 4297   2.420   5.087  13.001  1.0800  0.5953  1.6548
   34DOPE   H4S 4298   2.572   5.027  12.933 -0.1049 -0.4207 -2.0621
   34DOPE   C25 4299   2.470   4.888  13.076  0.6207 -0.0565 -0.1740
   34DOPE   H5R 4300   2.530   4.806  13.031  0.0455 -0.1020 -0.8848
   34DOPE   H5S 4301   2.365   4.855  13.089  0.5804  0.8075  2.0109
   34DOPE   C26 4302   2.545   4.910  13.204  0.1900  0.7185 -0.4685
   34DOPE   H6R 4303   2.496   4.995  13.257 -1.0968  0.1512 -0.7271
   34DOPE   H6S 4304   2.648   4.950  13.188 -0.0085  1.6712  0.5030
   34DOPE   C27 4305   2.549   4.786  13.297 -0.4943  0.0826  0.4851
   34DOPE   H7R 4306   2.585   4.701  13.235 -3.3897 -1.0205  0.1661
   34DOPE   H7S 4307   2.443   4.756  13.316 -0.8798 -0.5084 -2.2684
   34DOPE   C28 4308   2.615   4.803  13.429 -0.4833 -0.3680 -0.2522
   34DOPE   H8R 4309   2.588   4.712  13.487 -3.0405  0.2246 -0.3914
   34DOPE   H8S 4310   2.562   4.888  13.477 -1.2773 -0.5497 -0.7968
   34DOPE   C29 4311   2.771   4.817  13.421  0.3545 -0.3231 -0.1024
   34DOPE   H9R 4312   2.817   4.749  13.347  2.5489 -0.9303  1.6958
   34DOPE  C210 4313   2.844   4.913  13.486  0.0634 -0.5340 -0.1019
   34DOPE  H10R 4314   2.952   4.915  13.470  0.1757  1.7152  0.6347
   34DOPE  C211 4315   2.801   5.007  13.596 -0.1360 -0.5562 -0.1298
   34DOPE  H11R 4316   2.697   5.043  13.580  0.0771 -0.4155 -1.2814
   34DOPE  H11S 4317   2.872   5.093  13.600  0.0767 -0.5887 -2.1349
   34DOPE  C212 4318   2.784   4.946  13.737 -0.2971 -0.1281 -0.3381
   34DOPE  H12R 4319   2.883   4.904  13.761  0.3639  0.4964 -1.8325
   34DOPE  H12S 4320   2.716   4.858  13.746  0.1053 -0.6207 -1.8324
   34DOPE  C213 4321   2.747   5.035  13.855  0.8895  0.3955 -0.5718
   34DOPE  H13R 4322   2.737   4.975  13.948 -0.9814  1.3144 -0.1179
   34DOPE  H13S 4323   2.643   5.068  13.830  0.7358 -0.6205 -1.3780
   34DOPE  C214 4324   2.840   5.154  13.877 -0.6500  0.4055  0.8178
   34DOPE  H14R 4325   2.850   5.204  13.778 -2.5951  0.7754  0.7600
   34DOPE  H14S 4326   2.942   5.132  13.914 -1.1687  1.0416  2.7773
   34DOPE  C215 4327   2.794   5.255  13.984 -0.9267  0.4191  0.7784
   34DOPE  H15R 4328   2.696   5.301  13.962 -0.7059  1.6243  2.2038
   34DOPE  H15S 4329   2.864   5.342  13.985 -1.0873  0.5792  3.1533
   34DOPE  C216 4330   2.798   5.198  14.124 -0.2883 -0.4839 -0.9370
   34DOPE  H16R 4331   2.900   5.176  14.162 -0.2571 -0.7406 -1.1643
   34DOPE  H16S 4332   2.759   5.094  14.128 -0.1729 -0.4986  1.4459
   34DOPE  C217 4333   2.730   5.289  14.226 -0.6747 -0.8006 -0.6879
   34DOPE  H17R 4334   2.776   5.384  14.192 -0.5144 -1.1939 -1.5819
   34DOPE  H17S 4335   2.772   5.256  14.324  0.1403 -1.7588 -1.3348
   34DOPE  C218 4336   2.573   5.279  14.213 -0.5762 -0.2079  0.4150
   34DOPE  H18R 4337   2.535   5.182  14.252 -0.1850 -0.7624 -0.5554
   34DOPE  H18S 4338   2.544   5.294  14.107  4.1126  0.6260 -0.9744
   34DOPE  H18T 4339   2.518   5.359  14.267  0.8201  0.6457  0.6271
   34DOPE   C33 4340   2.991   4.882  12.928 -0.5014 -0.8627  0.1509
   34DOPE   H3X 4341   3.086   4.925  12.889 -0.9229  0.4279  0.5174
   34DOPE   H3Y 4342   2.978   4.807  12.847  0.4756  0.5344 -1.3776
   34DOPE   C34 4343   2.996   4.829  13.070  0.2843  0.5946 -0.5095
   34DOPE   H4X 4344   3.033   4.905  13.143 -0.3586  0.4921 -0.0696
   34DOPE   H4Y 4345   2.894   4.802  13.105  1.3159 -2.1372  0.6536
   34DOPE   C35 4346   3.071   4.694  13.087 -0.3393  0.3201 -0.0607
   34DOPE   H5X 4347   3.044   4.626  13.003  0.6222 -1.2379  0.8511
   34DOPE   H5Y 4348   3.041   4.647  13.184  1.2057  1.0392  0.7938
   34DOPE   C36 4349   3.221   4.717  13.099  0.0804  0.0730  0.1810
   34DOPE   H6X 4350   3.261   4.759  13.005  1.7256 -0.9435  0.3830
   34DOPE   H6Y 4351   3.279   4.624  13.118  0.8855  0.4243 -0.5047
   34DOPE   C37 4352   3.260   4.815  13.214  0.2353 -0.4939 -0.0076
   34DOPE   H7X 4353   3.371   4.815  13.211  0.2771  1.5133 -2.5226
   34DOPE   H7Y 4354   3.223   4.917  13.189 -0.8187 -1.2717 -1.8376
   34DOPE   C38 4355   3.206   4.777  13.351  0.2017 -0.3179 -0.0523
   34DOPE   H8X 4356   3.274   4.694  13.379 -0.1445  0.0436  2.0300
   34DOPE   H8Y 4357   3.100   4.744  13.359  0.4245 -0.6048  3.0533
   34DOPE   C39 4358   3.213   4.891  13.449 -0.6191  0.6495  0.4079
   34DOPE   H9X 4359   3.221   4.990  13.400 -0.9724  0.6374  0.3260
   34DOPE  C310 4360   3.241   4.876  13.576 -0.1755 -0.0364  0.2335
   34DOPE  H10X 4361   3.246   4.963  13.644  1.1950  1.7050 -1.9451
   34DOPE  C311 4362   3.247   4.745  13.646 -0.6597 -0.6044  0.4973
   34DOPE  H11X 4363   3.222   4.667  13.570  0.4254  0.4750 -1.0444
   34DOPE  H11Y 4364   3.353   4.736  13.679 -0.4746  0.9690  0.4104
   34DOPE  C312 4365   3.151   4.726  13.767  0.1597  0.5882  0.9463
   34DOPE  H12X 4366   3.159   4.617  13.783 -0.8336  0.3458 -0.0646
   34DOPE  H12Y 4367   3.050   4.755  13.731  0.1283  0.1770  0.7015
   34DOPE  C313 4368   3.179   4.809  13.888 -0.3376 -0.2947 -0.3645
   34DOPE  H13X 4369   3.285   4.799  13.921 -1.0630  0.1249  2.2943
   34DOPE  H13Y 4370   3.152   4.910  13.851 -1.0063  0.0992  1.1352
   34DOPE  C314 4371   3.090   4.786  14.010  0.2893 -0.7611  0.0202
   34DOPE  H14X 4372   3.094   4.683  14.051 -1.0338  0.1801  2.8144
   34DOPE  H14Y 4373   2.986   4.808  13.978 -0.3919 -1.7474  1.4193
   34DOPE  C315 4374   3.119   4.884  14.129  0.2144 -0.2187 -0.5278
   34DOPE  H15X 4375   3.126   4.986  14.084  4.2019 -1.2646 -2.7690
   34DOPE  H15Y 4376   3.209   4.850  14.184 -0.2746 -0.5020  0.1135
   34DOPE  C316 4377   3.001   4.870  14.232  0.4072  0.0073  0.4244
   34DOPE  H16X 4378   3.009   4.765  14.265 -1.0356  0.4393  2.3360
   34DOPE  H16Y 4379   2.898   4.885  14.193  0.7111 -0.3590 -0.5260
   34DOPE  C317 4380   3.027   4.969  14.345  0.1337 -0.4284 -0.5402
   34DOPE  H17X 4381   3.138   4.968  14.357  0.2278  0.0792 -1.3035
   34DOPE  H17Y 4382   2.992   5.067  14.308 -1.5819  0.1332  2.3079
   34DOPE  C318 4383   2.955   4.950  14.477  0.7310  1.0175 -0.4115
   34DOPE  H18X 4384   3.009   5.021  14.544  0.2253  1.0440 -0.0293
   34DOPE  H18Y 4385   2.846   4.968  14.479  0.0762 -2.3940  0.9859
   34DOPE  H18Z 4386   2.964   4.853  14.531 -4.5515  0.2055 -0.5056
   35DOPE     N 4387   5.444   4.499  12.627 -0.2141 -0.2957 -0.1718
   35DOPE   HN1 4388   5.521   4.524  12.692  1.1151 -1.2974 -1.2979
   35DOPE   HN2 4389   5.389   4.580  12.590 -0.5747  0.6694  2.2715
   35DOPE   HN3 4390   5.373   4.442  12.677  0.5762 -1.8869 -0.8203
   35DOPE   C12 4391   5.511   4.419  12.518  0.9474  0.0458  0.6986
   35DOPE  H12A 4392   5.617   4.403  12.548  1.3952  1.0429 -0.2758
   35DOPE  H12B 4393   5.502   4.472  12.421 -2.6952 -1.5657 -0.0045
   35DOPE   C11 4394   5.437   4.286  12.496 -0.3204  0.6483  0.3850
   35DOPE  H11A 4395   5.451   4.220  12.584  0.0171 -1.4058 -1.1155
   35DOPE  H11B 4396   5.488   4.233  12.413 -1.4472  1.0740 -0.6177
   35DOPE     P 4397   5.182   4.259  12.569 -0.2941  0.2698  0.5696
   35DOPE   O13 4398   5.187   4.109  12.565  0.1150 -0.0161  0.0903
   35DOPE   O14 4399   5.058   4.334  12.533  0.5180 -0.5597 -0.0507
   35DOPE   O11 4400   5.247   4.310  12.708 -0.3820 -0.4868 -0.4048
   35DOPE   O12 4401   5.300   4.298  12.465  0.3091 -0.3513  0.5565
   35DOPE    C1 4402   5.175   4.264  12.829  0.3931 -0.1686 -0.1609
   35DOPE    HA 4403   5.245   4.234  12.909  2.4933  2.0651 -1.0325
   35DOPE    HB 4404   5.111   4.173  12.820 -0.9389  0.7660 -0.3602
   35DOPE    C2 4405   5.081   4.374  12.892  0.5796 -0.6280 -0.4484
   35DOPE    HS 4406   5.032   4.433  12.812 -0.1532 -0.4865  0.0950
   35DOPE   O21 4407   5.171   4.461  12.972 -0.0476 -0.7808 -0.0679
   35DOPE   C21 4408   5.120   4.577  12.996  0.1975  0.2356  0.3952
   35DOPE   O22 4409   5.021   4.627  12.944 -0.3736 -0.0499  0.1770
   35DOPE   C22 4410   5.206   4.650  13.094  0.2430  0.1396  0.2330
   35DOPE   H2R 4411   5.192   4.759  13.076 -2.2380 -0.1424  0.0644
   35DOPE   H2S 4412   5.309   4.621  13.065  0.0506  0.5926 -1.0018
   35DOPE    C3 4413   4.955   4.323  12.968 -0.0649  0.3423 -0.1458
   35DOPE    HX 4414   4.908   4.249  12.901  0.0610  1.0527 -1.0352
   35DOPE    HY 4415   4.884   4.406  12.992 -0.7428 -0.3201  0.1751
   35DOPE   O31 4416   4.983   4.272  13.103  0.3473  0.2682  0.5846
   35DOPE   C31 4417   4.994   4.142  13.119 -0.6309  0.1817 -0.1642
   35DOPE   O32 4418   4.969   4.053  13.040  0.0709 -0.0948 -0.2159
   35DOPE   C32 4419   5.044   4.116  13.265 -0.4421 -0.1483  0.2186
   35DOPE   H2X 4420   5.154   4.129  13.267 -0.6775  2.3888  0.4885
   35DOPE   H2Y 4421   5.006   4.189  13.339 -0.7663 -1.3695  1.2818
   35DOPE   C23 4422   5.165   4.617  13.239 -0.3772 -0.0168  0.6604
   35DOPE   H3R 4423   5.055   4.604  13.246 -0.4046 -1.3605 -1.3957
   35DOPE   H3S 4424   5.196   4.691  13.315  2.0145  0.1418 -0.3785
   35DOPE   C24 4425   5.230   4.490  13.295 -0.0112 -0.8461  0.0800
   35DOPE   H4R 4426   5.341   4.499  13.294  0.1594 -2.5321  0.0229
   35DOPE   H4S 4427   5.199   4.406  13.228  0.0933 -1.8226  1.2241
   35DOPE   C25 4428   5.190   4.465  13.440 -0.6251  0.0539 -0.3998
   35DOPE   H5R 4429   5.081   4.445  13.436 -0.9754  1.5726  0.6411
   35DOPE   H5S 4430   5.204   4.555  13.504  0.4226 -0.5681  0.2676
   35DOPE   C26 4431   5.281   4.350  13.500  0.3894 -0.2780  0.4489
   35DOPE   H6R 4432   5.379   4.401  13.513  0.7844 -1.1161  0.7967
   35DOPE   H6S 4433   5.296   4.262  13.433  0.1863 -0.4655  0.6500
   35DOPE   C27 4434   5.219   4.297  13.628 -0.1502  0.1843 -0.3148
   35DOPE   H7R 4435   5.242   4.190  13.649  2.3842  0.4425 -1.4771
   35DOPE   H7S 4436   5.111   4.323  13.642 -0.4564 -1.1753 -0.0100
   35DOPE   C28 4437   5.286   4.383  13.745 -0.4978  0.0628  1.1114
   35DOPE   H8R 4438   5.267   4.492  13.741  0.5431  0.2398  0.6977
   35DOPE   H8S 4439   5.397   4.373  13.742 -0.5680 -0.6252 -1.3704
   35DOPE   C29 4440   5.234   4.357  13.882 -0.5619 -0.3763 -0.1827
   35DOPE   H9R 4441   5.130   4.323  13.866  0.1830 -2.3599 -1.1145
   35DOPE  C210 4442   5.291   4.374  14.000  0.0987 -0.3976 -0.9031
   35DOPE  H10R 4443   5.236   4.342  14.090  1.4058  0.0383  0.0827
   35DOPE  C211 4444   5.433   4.427  14.014 -0.0486  0.9860 -0.0797
   35DOPE  H11R 4445   5.462   4.517  13.956  0.3366 -0.0710 -1.5765
   35DOPE  H11S 4446   5.509   4.348  13.996 -0.1189  0.5733  1.2972
   35DOPE  C212 4447   5.463   4.483  14.156  0.2508 -0.4728 -0.1918
   35DOPE  H12R 4448   5.396   4.571  14.172 -0.1577 -0.8746  0.3480
   35DOPE  H12S 4449   5.571   4.502  14.170  0.0497 -0.7489  2.2907
   35DOPE  C213 4450   5.425   4.390  14.273 -0.7393 -0.9197  0.3964
   35DOPE  H13R 4451   5.486   4.298  14.260 -0.2184 -0.4868 -0.2610
   35DOPE  H13S 4452   5.318   4.359  14.272 -0.9686 -0.1391 -0.5310
   35DOPE  C214 4453   5.456   4.452  14.415 -0.6331  0.2893 -0.4826
   35DOPE  H14R 4454   5.566   4.448  14.434 -0.6899  0.5157 -0.0968
   35DOPE  H14S 4455   5.421   4.380  14.492 -2.7980  1.1343 -0.6096
   35DOPE  C215 4456   5.405   4.586  14.451 -0.7779 -0.2247 -0.2520
   35DOPE  H15R 4457   5.296   4.570  14.466 -1.0488  2.5611  1.3931
   35DOPE  H15S 4458   5.421   4.654  14.364 -0.8955 -0.0615 -0.1463
   35DOPE  C216 4459   5.472   4.642  14.583  0.5487 -0.3054 -0.2845
   35DOPE  H16R 4460   5.581   4.627  14.570  0.3838 -0.9454 -1.0246
   35DOPE  H16S 4461   5.436   4.585  14.672 -1.5199  1.6367  0.2058
   35DOPE  C217 4462   5.442   4.787  14.601  0.0221 -0.6617 -0.5158
   35DOPE  H17R 4463   5.334   4.812  14.600  0.6590  2.5437 -1.5343
   35DOPE  H17S 4464   5.482   4.856  14.523  0.5913  0.2974  0.5837
   35DOPE  C218 4465   5.505   4.844  14.733  0.3076 -0.5450  0.8032
   35DOPE  H18R 4466   5.492   4.953  14.722 -0.0253 -0.6094  0.5241
   35DOPE  H18S 4467   5.612   4.815  14.741  0.8311  0.0780 -2.4614
   35DOPE  H18T 4468   5.444   4.818  14.823  1.9443  0.0904  2.1462
   35DOPE   C33 4469   5.011   3.970  13.316 -0.2765 -0.1417  0.2190
   35DOPE   H3X 4470   5.073   3.907  13.250 -0.4584 -0.2037  0.1055
   35DOPE   H3Y 4471   4.906   3.938  13.301  0.1623 -1.4346 -0.1395
   35DOPE   C34 4472   5.048   3.944  13.456  0.0126  0.0949  0.6081
   35DOPE   H4X 4473   5.038   3.836  13.481 -1.2084 -0.2056 -1.0302
   35DOPE   H4Y 4474   5.151   3.983  13.471  0.8226 -1.8398  0.3418
   35DOPE   C35 4475   4.955   4.016  13.555  0.1179  0.4959  0.1355
   35DOPE   H5X 4476   4.849   3.997  13.528 -0.5744  2.1857  1.4602
   35DOPE   H5Y 4477   4.973   4.126  13.555  0.7139  0.4122  1.2106
   35DOPE   C36 4478   4.978   3.978  13.699  0.0134  0.3725  0.0639
   35DOPE   H6X 4479   5.081   4.009  13.728 -0.8114  2.5291  0.9078
   35DOPE   H6Y 4480   4.963   3.868  13.711 -1.0124  0.4946 -0.0483
   35DOPE   C37 4481   4.862   4.044  13.787 -0.7043 -0.1354  0.2253
   35DOPE   H7X 4482   4.875   4.154  13.775  1.3996 -0.3127  0.4821
   35DOPE   H7Y 4483   4.760   4.022  13.750 -0.3695  0.0352 -0.8344
   35DOPE   C38 4484   4.876   4.013  13.940  0.6929 -0.3855  0.9368
   35DOPE   H8X 4485   4.860   3.904  13.954  1.0568 -0.6878 -0.8621
   35DOPE   H8Y 4486   4.785   4.062  13.982 -0.5567  0.7638 -2.7238
   35DOPE   C39 4487   5.009   4.053  14.001  0.1554  0.4741 -0.2318
   35DOPE   H9X 4488   5.090   4.080  13.932  0.5353 -1.0308 -0.4176
   35DOPE  C310 4489   5.025   4.074  14.133  0.0262  0.5096 -0.3073
   35DOPE  H10X 4490   5.124   4.100  14.172 -0.4454  0.3343  1.0599
   35DOPE  C311 4491   4.909   4.039  14.232 -0.0249 -0.6211 -0.1390
   35DOPE  H11X 4492   4.828   4.115  14.228 -0.0364 -0.6733 -1.1340
   35DOPE  H11Y 4493   4.857   3.943  14.211  0.8985 -1.3848  0.9186
   35DOPE  C312 4494   4.963   4.016  14.373 -0.3139 -0.2530  0.1906
   35DOPE  H12X 4495   5.004   4.109  14.417 -1.2454  0.3112 -0.0981
   35DOPE  H12Y 4496   5.038   3.935  14.360  0.3304  0.3779 -0.0927
   35DOPE  C313 4497   4.853   3.978  14.472 -0.8809 -0.0194 -0.3762
   35DOPE  H13X 4498   4.775   4.057  14.477  0.7866  1.6615  0.2317
   35DOPE  H13Y 4499   4.799   3.887  14.437  0.2978 -0.8216 -0.1543
   35DOPE  C314 4500   4.919   3.948  14.609  0.0252 -0.1968  0.1358
   35DOPE  H14X 4501   4.952   4.051  14.634 -2.8589  1.0901 -0.9315
   35DOPE  H14Y 4502   5.001   3.872  14.599 -1.7326 -2.6672  2.7802
   35DOPE  C315 4503   4.819   3.902  14.716 -0.5275  0.6102  0.0132
   35DOPE  H15X 4504   4.766   3.817  14.667 -2.7726  1.0477  1.5032
   35DOPE  H15Y 4505   4.746   3.982  14.745  0.2703  0.5722  2.3651
   35DOPE  C316 4506   4.884   3.865  14.852  0.2626 -0.2452  0.6198
   35DOPE  H16X 4507   4.958   3.786  14.828  0.8895  0.5291 -0.0615
   35DOPE  H16Y 4508   4.808   3.826  14.924 -0.4598  0.9712  0.5409
   35DOPE  C317 4509   4.965   3.975  14.915  0.0170  0.6297 -0.3172
   35DOPE  H17X 4510   5.054   3.992  14.851  0.6947  0.6452  0.5992
   35DOPE  H17Y 4511   4.913   4.073  14.901 -0.0662  0.2738 -2.9892
   35DOPE  C318 4512   5.017   3.945  15.056 -0.3990 -0.1639 -0.4974
   35DOPE  H18X 4513   5.052   3.840  15.067 -0.9572 -0.2100  1.0725
   35DOPE  H18Y 4514   5.096   4.021  15.074 -0.5341 -0.3974  1.2027
   35DOPE  H18Z 4515   4.943   3.965  15.136  0.4852  0.2529  0.2399
   36DOPE     N 4516   4.590   5.290  12.305 -0.0642  0.5921  0.0902
   36DOPE   HN1 4517   4.543   5.288  12.398  1.3528  0.1543  0.8310
   36DOPE   HN2 4518   4.658   5.369  12.307  1.1763 -0.4081 -0.9184
   36DOPE   HN3 4519   4.514   5.296  12.235 -0.5967  0.5058  0.6492
   36DOPE   C12 4520   4.669   5.165  12.278 -0.0471 -0.4579 -0.0902
   36DOPE  H12A 4521   4.711   5.178  12.176  2.0715  0.5545  0.8554
   36DOPE  H12B 4522   4.608   5.073  12.280  0.5794 -0.9397 -1.6762
   36DOPE   C11 4523   4.782   5.165  12.390  0.3091 -0.3564  0.2329
   36DOPE  H11A 4524   4.843   5.074  12.370 -1.5937 -1.3143 -1.5617
   36DOPE  H11B 4525   4.729   5.156  12.487  2.6565  0.3950  1.6687
   36DOPE     P 4526   5.012   5.301  12.344  0.0536 -0.1860 -0.0128
   36DOPE   O13 4527   5.033   5.432  12.286  0.2510 -1.0869 -0.1929
   36DOPE   O14 4528   5.056   5.184  12.264  0.0330 -0.4212 -0.1690
   36DOPE   O11 4529   5.100   5.290  12.479  0.4287 -0.0919  0.3488
   36DOPE   O12 4530   4.858   5.281  12.393  0.4787  0.0636  0.1508
   36DOPE    C1 4531   5.130   5.162  12.539 -0.1729  0.2850  0.1947
   36DOPE    HA 4532   5.238   5.139  12.530 -0.4757 -1.5110  0.8019
   36DOPE    HB 4533   5.083   5.076  12.486 -1.2617 -0.6831  2.6020
   36DOPE    C2 4534   5.074   5.156  12.679  0.1516  0.4384 -0.3064
   36DOPE    HS 4535   4.972   5.197  12.660  0.1718  0.3864 -0.5407
   36DOPE   O21 4536   5.156   5.236  12.770 -0.3052 -0.2369 -0.4890
   36DOPE   C21 4537   5.103   5.350  12.807  0.4498  0.4580  0.3748
   36DOPE   O22 4538   4.999   5.398  12.769 -0.1443 -0.7173  0.0237
   36DOPE   C22 4539   5.204   5.425  12.894  0.0550  0.3753 -0.0314
   36DOPE   H2R 4540   5.262   5.490  12.825  0.2665  0.0048 -0.2114
   36DOPE   H2S 4541   5.270   5.349  12.941 -0.9066 -0.3134  0.2516
   36DOPE    C3 4542   5.053   5.012  12.737 -0.6559 -0.6888 -0.0607
   36DOPE    HX 4543   5.153   4.966  12.728 -0.1285  0.8455 -3.7746
   36DOPE    HY 4544   4.996   4.954  12.661  1.1250 -2.0264 -0.4212
   36DOPE   O31 4545   4.983   5.015  12.865 -0.4897 -0.5424  0.6211
   36DOPE   C31 4546   5.060   4.981  12.968 -0.7353 -0.4375  0.0540
   36DOPE   O32 4547   5.180   4.959  12.967 -0.5013 -0.3721 -0.0978
   36DOPE   C32 4548   4.975   4.953  13.093  0.7230 -0.2219  0.0157
   36DOPE   H2X 4549   4.878   5.005  13.081  1.7155  1.1585 -2.7253
   36DOPE   H2Y 4550   4.970   4.843  13.108 -0.0101 -0.1406  0.4127
   36DOPE   C23 4551   5.140   5.519  13.002  0.7962 -0.1352  0.4716
   36DOPE   H3R 4552   5.061   5.577  12.949  0.7751  0.4590  1.1469
   36DOPE   H3S 4553   5.217   5.593  13.032 -0.7077  2.0834 -0.9212
   36DOPE   C24 4554   5.083   5.444  13.132  0.2442 -0.8248  0.7823
   36DOPE   H4R 4555   5.033   5.348  13.108 -1.0222 -0.4944  1.9191
   36DOPE   H4S 4556   5.017   5.519  13.182 -1.9886 -2.4795  0.5035
   36DOPE   C25 4557   5.192   5.413  13.226  0.6400  0.3216 -0.0625
   36DOPE   H5R 4558   5.248   5.506  13.249  0.3173 -0.1060  2.9139
   36DOPE   H5S 4559   5.259   5.338  13.178  1.4131  0.9882 -0.0426
   36DOPE   C26 4560   5.133   5.369  13.363 -0.7327  0.2485  0.5112
   36DOPE   H6R 4561   5.069   5.280  13.347 -1.0958  0.9725 -2.7908
   36DOPE   H6S 4562   5.062   5.441  13.410  0.7035  2.0945 -0.0507
   36DOPE   C27 4563   5.242   5.326  13.459  0.0399 -0.4628  0.1355
   36DOPE   H7R 4564   5.314   5.411  13.470 -0.5837  0.2193 -0.9135
   36DOPE   H7S 4565   5.300   5.245  13.410  0.5354  1.1952 -2.1866
   36DOPE   C28 4566   5.192   5.296  13.604 -0.5408 -0.4220 -0.1504
   36DOPE   H8R 4567   5.273   5.235  13.649 -1.5530 -2.7242 -1.2943
   36DOPE   H8S 4568   5.109   5.223  13.609  0.7795 -1.8864  1.9995
   36DOPE   C29 4569   5.152   5.417  13.683 -0.5658  0.8582  0.1856
   36DOPE   H9R 4570   5.090   5.489  13.627  0.6263  0.6081 -1.5603
   36DOPE  C210 4571   5.181   5.448  13.811 -0.1424  0.6591  1.3008
   36DOPE  H10R 4572   5.166   5.551  13.848  2.6960  2.1902 -1.3327
   36DOPE  C211 4573   5.246   5.358  13.915 -0.3098 -0.4657  1.4074
   36DOPE  H11R 4574   5.357   5.359  13.911 -0.3321  1.0613 -2.2091
   36DOPE  H11S 4575   5.214   5.252  13.899 -1.6832  0.0372  0.6859
   36DOPE  C212 4576   5.195   5.402  14.053  0.3512  0.4564  0.2011
   36DOPE  H12R 4577   5.088   5.377  14.067  0.3180 -0.6288 -1.5338
   36DOPE  H12S 4578   5.215   5.509  14.072  2.1891 -0.3735  3.8051
   36DOPE  C213 4579   5.284   5.330  14.157  0.4400  0.1045 -0.2791
   36DOPE  H13R 4580   5.391   5.336  14.131  0.9409  0.6833  1.7048
   36DOPE  H13S 4581   5.259   5.222  14.156  2.2013 -0.3242 -1.1301
   36DOPE  C214 4582   5.270   5.392  14.301 -0.7681  0.3464  0.7664
   36DOPE  H14R 4583   5.270   5.503  14.306 -1.3645  0.3820  0.1037
   36DOPE  H14S 4584   5.368   5.355  14.339  0.1281  0.9025 -0.9020
   36DOPE  C215 4585   5.145   5.333  14.369  0.7724 -0.5080 -0.1188
   36DOPE  H15R 4586   5.066   5.311  14.294  0.9110 -1.0816 -0.1065
   36DOPE  H15S 4587   5.100   5.415  14.429 -0.0678 -0.8962 -0.1988
   36DOPE  C216 4588   5.160   5.204  14.444  0.0543  0.6137 -0.1632
   36DOPE  H16R 4589   5.220   5.141  14.375  1.9841  2.9276 -0.7688
   36DOPE  H16S 4590   5.060   5.158  14.457 -0.5710  2.1750  0.8590
   36DOPE  C217 4591   5.246   5.219  14.572  0.1054  0.2581 -0.0092
   36DOPE  H17R 4592   5.337   5.282  14.563 -1.2811  2.2406 -0.9022
   36DOPE  H17S 4593   5.286   5.119  14.597 -0.4512  0.2336  0.8349
   36DOPE  C218 4594   5.160   5.275  14.691 -0.1206 -0.1251 -0.4186
   36DOPE  H18R 4595   5.214   5.250  14.785 -0.0915  0.5404 -0.2544
   36DOPE  H18S 4596   5.058   5.232  14.683 -0.0911 -0.1951 -0.4226
   36DOPE  H18T 4597   5.150   5.386  14.683  2.5071  0.2811  0.6901
   36DOPE   C33 4598   5.033   5.015  13.228 -0.5155  0.4386  0.0778
   36DOPE   H3X 4599   5.016   5.124  13.231 -1.6865  0.2915 -0.7354
   36DOPE   H3Y 4600   5.144   5.007  13.229 -0.4840  0.7322 -0.7232
   36DOPE   C34 4601   4.983   4.935  13.346 -0.0084  0.3068  1.3705
   36DOPE   H4X 4602   4.872   4.931  13.343 -0.0408 -2.2798 -3.5133
   36DOPE   H4Y 4603   5.016   4.829  13.348 -1.7129 -0.2661  0.5227
   36DOPE   C35 4604   5.031   5.009  13.477  0.8227  0.2915 -0.2524
   36DOPE   H5X 4605   4.965   5.097  13.491 -1.0261 -1.0338 -0.3621
   36DOPE   H5Y 4606   5.139   5.035  13.468  0.7998  0.2991 -0.5167
   36DOPE   C36 4607   5.023   4.920  13.609 -0.0616  0.3436 -0.2204
   36DOPE   H6X 4608   5.094   4.835  13.610 -1.0583 -0.5650 -1.7922
   36DOPE   H6Y 4609   4.932   4.859  13.591 -0.2213  0.2634  0.8238
   36DOPE   C37 4610   5.025   4.991  13.739 -0.2466 -0.2973 -0.1707
   36DOPE   H7X 4611   5.126   5.031  13.762 -0.3956 -0.6325  1.1605
   36DOPE   H7Y 4612   4.961   5.081  13.733 -1.6043 -1.3333 -2.8073
   36DOPE   C38 4613   4.980   4.895  13.853  0.0286 -1.4851  0.1696
   36DOPE   H8X 4614   4.871   4.880  13.839 -0.7256  0.8813  2.8273
   36DOPE   H8Y 4615   4.995   4.960  13.941 -1.4319 -3.6033  2.0990
   36DOPE   C39 4616   5.066   4.773  13.885  0.4474 -0.2133  0.2003
   36DOPE   H9X 4617   5.024   4.676  13.855  1.6549 -0.6630 -0.0869
   36DOPE  C310 4618   5.179   4.768  13.956 -0.0299  0.0820  0.3291
   36DOPE  H10X 4619   5.231   4.672  13.957 -0.2856 -0.0551  0.3841
   36DOPE  C311 4620   5.250   4.881  14.032 -0.0700 -0.0315 -0.1610
   36DOPE  H11X 4621   5.357   4.882  14.004  0.4500  0.0889  1.7047
   36DOPE  H11Y 4622   5.205   4.983  14.029  0.7780  0.3991  1.1646
   36DOPE  C312 4623   5.241   4.851  14.183 -0.6263  0.4288  0.4234
   36DOPE  H12X 4624   5.305   4.923  14.237  0.5073 -0.4795  0.3391
   36DOPE  H12Y 4625   5.299   4.758  14.201 -0.2974  0.9061  1.9651
   36DOPE  C313 4626   5.103   4.844  14.249  0.5873  0.0425  0.1005
   36DOPE  H13X 4627   5.045   4.935  14.225 -0.3483 -1.2011 -2.9630
   36DOPE  H13Y 4628   5.040   4.768  14.197 -1.1677  1.7251 -0.3479
   36DOPE  C314 4629   5.100   4.850  14.403  0.5191  0.2647 -0.4429
   36DOPE  H14X 4630   5.149   4.941  14.444  0.6765  1.4416 -3.0378
   36DOPE  H14Y 4631   5.152   4.760  14.444 -0.5285  0.1872  0.8012
   36DOPE  C315 4632   4.956   4.853  14.457  0.9502 -0.5264  0.3965
   36DOPE  H15X 4633   4.893   4.771  14.415  0.7198 -0.1472 -0.0028
   36DOPE  H15Y 4634   4.914   4.952  14.432  1.4723  0.1109  1.9379
   36DOPE  C316 4635   4.938   4.833  14.607  0.5440  1.0724  0.3327
   36DOPE  H16X 4636   4.966   4.728  14.632  0.1020  0.7362 -0.5427
   36DOPE  H16Y 4637   4.832   4.842  14.638  0.5405  2.1091  0.0416
   36DOPE  C317 4638   5.026   4.926  14.691 -0.2241  0.7358 -0.1103
   36DOPE  H17X 4639   5.130   4.913  14.655 -0.1695  0.3915  0.1742
   36DOPE  H17Y 4640   4.991   5.030  14.670 -1.5161 -0.0729 -2.3953
   36DOPE  C318 4641   5.031   4.896  14.841  0.2094 -0.2361  0.5585
   36DOPE  H18X 4642   5.085   4.979  14.891 -0.2440  0.2050  0.3236
   36DOPE  H18Y 4643   4.931   4.903  14.890  0.1132 -0.5303  0.4089
   36DOPE  H18Z 4644   5.061   4.797  14.881  0.0394  0.2298  1.8837
   37DOPE     N 4645   2.811   4.299  11.760  0.3188 -0.1942  0.6403
   37DOPE   HN1 4646   2.713   4.274  11.787 -0.8263 -1.3573 -3.7007
   37DOPE   HN2 4647   2.806   4.402  11.743 -2.4212 -0.3047  0.3142
   37DOPE   HN3 4648   2.832   4.250  11.670 -1.4519  1.2819 -0.6593
   37DOPE   C12 4649   2.892   4.283  11.883  0.2718 -0.5025  0.1333
   37DOPE  H12A 4650   3.000   4.286  11.854  0.1290  1.3621 -0.3789
   37DOPE  H12B 4651   2.867   4.184  11.926 -0.7405  0.1472  1.0910
   37DOPE   C11 4652   2.852   4.382  11.990  0.2908  0.3746 -0.0454
   37DOPE  H11A 4653   2.897   4.343  12.083 -1.5812  0.4059  0.9356
   37DOPE  H11B 4654   2.741   4.374  12.000  0.3127  1.3217  1.1250
   37DOPE     P 4655   3.023   4.583  12.023 -0.1155  0.0374 -0.3754
   37DOPE   O13 4656   3.028   4.728  12.004 -0.1708 -0.2505 -0.1144
   37DOPE   O14 4657   3.141   4.511  11.963 -0.5133  0.5327 -0.0631
   37DOPE   O11 4658   3.031   4.546  12.183 -0.2750  0.1255 -0.4747
   37DOPE   O12 4659   2.888   4.521  11.963 -0.6035  0.2915 -0.7762
   37DOPE    C1 4660   3.018   4.655  12.274 -0.1653 -0.0693  0.4740
   37DOPE    HA 4661   2.925   4.710  12.248 -0.3597 -0.5894  0.0330
   37DOPE    HB 4662   3.105   4.722  12.288 -0.4948  1.2482 -2.9304
   37DOPE    C2 4663   2.988   4.595  12.417 -0.0535  0.4487  1.0740
   37DOPE    HS 4664   2.956   4.685  12.475  0.7863 -0.2001  2.6179
   37DOPE   O21 4665   3.101   4.524  12.471 -0.2448 -0.0455  0.2931
   37DOPE   C21 4666   3.109   4.542  12.602 -0.2551  0.0693  0.2703
   37DOPE   O22 4667   3.028   4.606  12.673  0.6325 -0.3794  0.1041
   37DOPE   C22 4668   3.229   4.459  12.658  0.0205 -0.2094  0.1781
   37DOPE   H2R 4669   3.315   4.527  12.639 -1.2639  1.2942 -0.3710
   37DOPE   H2S 4670   3.243   4.373  12.589  1.0789  0.7172 -0.8055
   37DOPE    C3 4671   2.868   4.492  12.415  0.8104 -0.2822 -0.3641
   37DOPE    HX 4672   2.880   4.414  12.337 -1.7812  2.3359 -3.7069
   37DOPE    HY 4673   2.782   4.552  12.377 -1.3411 -1.5023  2.2246
   37DOPE   O31 4674   2.837   4.429  12.543 -0.1372 -0.1821  0.3838
   37DOPE   C31 4675   2.732   4.489  12.607 -0.1531 -0.3343  0.1347
   37DOPE   O32 4676   2.684   4.593  12.572 -0.0642  0.2903 -0.3122
   37DOPE   C32 4677   2.709   4.421  12.738 -0.4352 -0.5035 -0.3686
   37DOPE   H2X 4678   2.682   4.314  12.732 -1.7119 -0.4584  2.7338
   37DOPE   H2Y 4679   2.807   4.434  12.789 -1.3056  1.1528  1.0090
   37DOPE   C23 4680   3.222   4.427  12.805  0.3252  0.0619  0.3923
   37DOPE   H3R 4681   3.189   4.513  12.868 -2.0073  0.4551 -1.2080
   37DOPE   H3S 4682   3.317   4.398  12.854 -0.5788 -0.8623  1.6784
   37DOPE   C24 4683   3.138   4.302  12.839  0.3561 -0.1943  0.1235
   37DOPE   H4R 4684   3.181   4.211  12.793 -1.5748 -1.2725  0.3595
   37DOPE   H4S 4685   3.043   4.331  12.788  0.6404 -0.5606 -0.6318
   37DOPE   C25 4686   3.103   4.293  12.987  0.7302 -0.1372 -0.8939
   37DOPE   H5R 4687   3.011   4.238  13.014  0.7127  0.3778  0.1684
   37DOPE   H5S 4688   3.089   4.398  13.023  0.1935 -0.3913 -0.3370
   37DOPE   C26 4689   3.218   4.223  13.065 -0.0860 -0.5154 -0.4483
   37DOPE   H6R 4690   3.306   4.286  13.039 -1.0192  1.0925  0.0983
   37DOPE   H6S 4691   3.243   4.127  13.015  1.5087 -0.3771  0.0435
   37DOPE   C27 4692   3.186   4.206  13.212  1.0876  0.0791  0.1175
   37DOPE   H7R 4693   3.261   4.129  13.239  0.1588 -1.1168 -0.6003
   37DOPE   H7S 4694   3.082   4.172  13.231  1.2710  0.2750  1.6228
   37DOPE   C28 4695   3.219   4.335  13.294  0.0273 -0.6796  0.4442
   37DOPE   H8R 4696   3.175   4.327  13.396 -2.0286  2.5672 -0.0484
   37DOPE   H8S 4697   3.165   4.420  13.247 -0.7819 -2.0074 -1.1230
   37DOPE   C29 4698   3.371   4.364  13.302  0.0957 -1.0277 -0.6312
   37DOPE   H9R 4699   3.409   4.411  13.210  0.2411  0.4456  0.1418
   37DOPE  C210 4700   3.459   4.352  13.400  0.2548 -1.0749 -0.7476
   37DOPE  H10R 4701   3.562   4.388  13.399 -0.8497  2.4270 -1.9084
   37DOPE  C211 4702   3.420   4.304  13.536  0.0740 -0.3128  0.7790
   37DOPE  H11R 4703   3.469   4.207  13.559  1.1847  0.1784  0.5850
   37DOPE  H11S 4704   3.312   4.280  13.539 -0.4456  1.0656 -2.5351
   37DOPE  C212 4705   3.455   4.412  13.650  0.3532  0.9957 -0.1889
   37DOPE  H12R 4706   3.416   4.504  13.602  1.5389 -0.2443 -3.8892
   37DOPE  H12S 4707   3.565   4.419  13.650  0.4466 -0.0919 -0.9806
   37DOPE  C213 4708   3.383   4.381  13.785  0.2292  0.0852 -0.0407
   37DOPE  H13R 4709   3.397   4.274  13.810 -1.6848  0.3050  2.2918
   37DOPE  H13S 4710   3.273   4.390  13.777  0.2745  0.5064 -0.2733
   37DOPE  C214 4711   3.414   4.472  13.904 -0.6118  0.5023 -0.1371
   37DOPE  H14R 4712   3.418   4.581  13.879 -2.2669  0.0981 -2.5165
   37DOPE  H14S 4713   3.511   4.433  13.940 -1.2296 -0.3621  0.6385
   37DOPE  C215 4714   3.306   4.449  14.012  1.0439  0.4609  0.5136
   37DOPE  H15R 4715   3.298   4.341  14.040 -3.2034  0.5972  0.3597
   37DOPE  H15S 4716   3.210   4.452  13.958  0.2498 -0.8907  1.7526
   37DOPE  C216 4717   3.323   4.551  14.119  1.2946 -0.3533  0.6387
   37DOPE  H16R 4718   3.233   4.544  14.183 -1.6406 -1.3689 -3.1762
   37DOPE  H16S 4719   3.313   4.654  14.080 -1.9341 -0.3202  1.2636
   37DOPE  C217 4720   3.443   4.518  14.202 -0.3562 -0.2560  0.1119
   37DOPE  H17R 4721   3.521   4.566  14.140 -0.9541  0.8491  0.1877
   37DOPE  H17S 4722   3.469   4.411  14.218  0.8641 -0.0606 -0.4697
   37DOPE  C218 4723   3.434   4.577  14.342 -0.2109  0.3072 -0.9440
   37DOPE  H18R 4724   3.337   4.538  14.382 -0.0336 -0.2341 -1.0249
   37DOPE  H18S 4725   3.430   4.687  14.351  1.6647  0.5977 -2.9323
   37DOPE  H18T 4726   3.500   4.529  14.418 -3.0860 -1.5282  0.6206
   37DOPE   C33 4727   2.599   4.492  12.832  0.2065  0.4180 -0.3889
   37DOPE   H3X 4728   2.535   4.414  12.877  1.4306 -0.0049  0.6708
   37DOPE   H3Y 4729   2.533   4.562  12.775  0.5813  0.5427 -0.6817
   37DOPE   C34 4730   2.670   4.560  12.949 -0.0444  0.1203  0.4679
   37DOPE   H4X 4731   2.749   4.625  12.905  1.2690 -2.2469 -0.8227
   37DOPE   H4Y 4732   2.602   4.617  13.016 -1.2987 -0.3210 -0.3840
   37DOPE   C35 4733   2.744   4.459  13.042  0.4026  0.5088 -0.4205
   37DOPE   H5X 4734   2.848   4.447  13.005  0.3499 -0.3326 -0.3101
   37DOPE   H5Y 4735   2.698   4.362  13.012  0.8752  0.4760 -1.0502
   37DOPE   C36 4736   2.743   4.479  13.194  0.3721  0.5983  0.0763
   37DOPE   H6X 4737   2.639   4.476  13.232  0.9699 -1.6481  1.7571
   37DOPE   H6Y 4738   2.791   4.578  13.207  0.8194  0.2488  1.2560
   37DOPE   C37 4739   2.822   4.375  13.270 -0.1353 -0.1156 -0.8633
   37DOPE   H7X 4740   2.789   4.271  13.250 -0.6645 -0.0621 -0.2964
   37DOPE   H7Y 4741   2.925   4.391  13.231 -0.0772  1.2866 -0.1934
   37DOPE   C38 4742   2.840   4.413  13.418  0.1546  0.0725 -0.2057
   37DOPE   H8X 4743   2.878   4.516  13.438 -2.3938  0.9554  0.4827
   37DOPE   H8Y 4744   2.917   4.340  13.452  0.0914 -0.1156 -0.4644
   37DOPE   C39 4745   2.716   4.387  13.498 -1.0151 -0.2024  0.4131
   37DOPE   H9X 4746   2.621   4.377  13.443 -0.9636 -1.9325  0.5982
   37DOPE  C310 4747   2.722   4.374  13.631  0.4494 -0.4182 -0.2345
   37DOPE  H10X 4748   2.621   4.370  13.674 -0.5400  1.0897 -2.2333
   37DOPE  C311 4749   2.843   4.386  13.720 -0.0083  0.4036  0.2137
   37DOPE  H11X 4750   2.870   4.283  13.753  3.2961  1.7777  2.3850
   37DOPE  H11Y 4751   2.929   4.417  13.658 -0.0888 -1.0410 -0.6718
   37DOPE  C312 4752   2.838   4.486  13.841 -0.0202 -0.2333 -0.2121
   37DOPE  H12X 4753   2.761   4.562  13.813 -2.7381 -2.8871 -0.5029
   37DOPE  H12Y 4754   2.935   4.539  13.849 -0.4537  0.8721 -1.8301
   37DOPE  C313 4755   2.818   4.420  13.972  0.7478  0.4952 -0.0656
   37DOPE  H13X 4756   2.711   4.439  13.999 -0.0361 -1.0750 -1.8614
   37DOPE  H13Y 4757   2.831   4.309  13.967 -0.0539  0.4194 -0.8381
   37DOPE  C314 4758   2.920   4.449  14.077  0.1910  0.0878 -0.3624
   37DOPE  H14X 4759   2.926   4.559  14.089 -0.2680  0.2142 -1.2508
   37DOPE  H14Y 4760   3.019   4.412  14.041  0.3414 -0.8571  0.9561
   37DOPE  C315 4761   2.883   4.385  14.207 -0.3695  0.2880 -0.1504
   37DOPE  H15X 4762   2.870   4.275  14.201 -2.8442  0.4775  0.6348
   37DOPE  H15Y 4763   2.784   4.429  14.232  0.4519  1.5618  1.0284
   37DOPE  C316 4764   2.986   4.404  14.323 -0.1191 -0.1263 -0.7166
   37DOPE  H16X 4765   2.981   4.508  14.359 -0.0451  0.3406 -2.0102
   37DOPE  H16Y 4766   3.088   4.378  14.288  0.8565  0.0992  1.7701
   37DOPE  C317 4767   2.944   4.303  14.437  0.5133  0.5061 -0.1628
   37DOPE  H17X 4768   2.849   4.333  14.485  0.4719  0.1819 -0.0429
   37DOPE  H17Y 4769   2.927   4.204  14.390 -1.6287  1.1741 -0.9271
   37DOPE  C318 4770   3.043   4.287  14.546  0.1069  0.6369 -0.1262
   37DOPE  H18X 4771   3.136   4.233  14.517 -0.5743 -0.5238 -0.2316
   37DOPE  H18Y 4772   3.085   4.383  14.582  2.3746 -0.4662  0.4138
   37DOPE  H18Z 4773   2.994   4.230  14.628 -1.9914  0.4084 -1.4657
   38DOPE     N 4774   5.140   6.008  12.494 -0.2781 -0.6362  0.0356
   38DOPE   HN1 4775   5.221   6.072  12.498 -0.0394 -0.9758  0.9139
   38DOPE   HN2 4776   5.175   5.916  12.529  0.5352  0.2866  1.7701
   38DOPE   HN3 4777   5.109   6.003  12.395  0.7800  1.4779 -0.4450
   38DOPE   C12 4778   5.025   6.045  12.580 -0.3713  0.1721 -0.1779
   38DOPE  H12A 4779   5.064   6.054  12.683 -2.6458  0.8198  0.7006
   38DOPE  H12B 4780   4.945   5.968  12.584 -0.2294  0.0959  2.4842
   38DOPE   C11 4781   4.957   6.171  12.529 -0.0171 -0.1326 -1.9932
   38DOPE  H11A 4782   5.024   6.259  12.531 -1.0247  0.7559  2.2105
   38DOPE  H11B 4783   4.886   6.197  12.610 -0.1271 -2.1300 -1.3728
   38DOPE     P 4784   4.742   6.110  12.377  0.0765  0.3151 -0.1466
   38DOPE   O13 4785   4.726   5.996  12.289 -0.5525  0.3183  0.2945
   38DOPE   O14 4786   4.670   6.229  12.343 -0.0344  0.1120 -0.2369
   38DOPE   O11 4787   4.697   6.065  12.526 -0.0785  0.1462  0.1056
   38DOPE   O12 4788   4.892   6.146  12.397  0.2662 -0.0369 -0.0333
   38DOPE    C1 4789   4.566   6.034  12.575 -0.0807  0.1276  0.4188
   38DOPE    HA 4790   4.542   5.927  12.561  0.4555 -0.0052  0.5104
   38DOPE    HB 4791   4.491   6.088  12.513  1.8793  0.9593 -1.3672
   38DOPE    C2 4792   4.553   6.068  12.726  0.5724  0.3031  0.1225
   38DOPE    HS 4793   4.600   6.166  12.752  2.1278 -0.2165 -0.6317
   38DOPE   O21 4794   4.608   5.952  12.797  0.4391 -0.6123 -0.5025
   38DOPE   C21 4795   4.731   5.968  12.844  0.1568  0.7872  0.2320
   38DOPE   O22 4796   4.798   6.069  12.831 -0.1326 -0.1712  0.4217
   38DOPE   C22 4797   4.784   5.840  12.891  0.6397 -0.1165  0.0757
   38DOPE   H2R 4798   4.895   5.845  12.900  0.5498  0.5922  0.8852
   38DOPE   H2S 4799   4.751   5.771  12.811  0.0318  3.2363 -2.7997
   38DOPE    C3 4800   4.404   6.076  12.758  0.2232  0.0347 -0.4823
   38DOPE    HX 4801   4.342   6.008  12.696 -0.4311  0.0826  0.1070
   38DOPE    HY 4802   4.371   6.177  12.726  3.4042  1.1410 -0.5930
   38DOPE   O31 4803   4.378   6.057  12.897 -0.0958 -0.0203  0.3981
   38DOPE   C31 4804   4.404   6.153  12.982  0.1356 -0.8487  0.0028
   38DOPE   O32 4805   4.423   6.271  12.959  0.0442  0.1244 -0.1095
   38DOPE   C32 4806   4.403   6.089  13.126 -0.4743 -0.1857 -0.2759
   38DOPE   H2X 4807   4.298   6.067  13.155  0.0245  0.3329  2.1834
   38DOPE   H2Y 4808   4.462   5.996  13.133  1.2883  0.7542 -1.7773
   38DOPE   C23 4809   4.716   5.793  13.029 -0.4793 -0.0372  0.5642
   38DOPE   H3R 4810   4.736   5.684  13.038  0.3896  0.1413  0.8945
   38DOPE   H3S 4811   4.607   5.807  13.011 -0.2411  1.9147  0.4081
   38DOPE   C24 4812   4.777   5.874  13.138  0.4264 -0.1110 -0.4039
   38DOPE   H4R 4813   4.718   5.967  13.150  2.0269  0.9165 -0.3101
   38DOPE   H4S 4814   4.883   5.903  13.125  0.8366 -1.6130 -0.6580
   38DOPE   C25 4815   4.765   5.792  13.268 -0.9613  0.2157 -0.0102
   38DOPE   H5R 4816   4.804   5.691  13.243 -3.0401 -0.3442 -1.2718
   38DOPE   H5S 4817   4.658   5.773  13.292 -0.6590  0.8076  2.0047
   38DOPE   C26 4818   4.831   5.854  13.389 -0.0552 -1.0537  0.0174
   38DOPE   H6R 4819   4.783   5.952  13.409  1.1344 -0.3734 -0.3710
   38DOPE   H6S 4820   4.936   5.863  13.352  0.2580 -1.0253  0.8937
   38DOPE   C27 4821   4.824   5.773  13.518  0.7726  0.1729 -0.5947
   38DOPE   H7R 4822   4.833   5.667  13.484  0.7007 -0.8653  2.3336
   38DOPE   H7S 4823   4.717   5.769  13.548  1.3174 -0.9950  1.3600
   38DOPE   C28 4824   4.920   5.806  13.632  0.3221  0.3009 -1.0587
   38DOPE   H8R 4825   5.014   5.769  13.588 -0.5206 -0.7794 -2.0125
   38DOPE   H8S 4826   4.897   5.738  13.717  0.6454 -0.1830 -1.3578
   38DOPE   C29 4827   4.928   5.951  13.676  0.4809 -0.0388  0.2649
   38DOPE   H9R 4828   4.943   6.033  13.605  0.2364 -0.7679 -0.6619
   38DOPE  C210 4829   4.923   5.990  13.804  0.3638 -0.1252  0.0168
   38DOPE  H10R 4830   4.909   6.097  13.825 -0.8281  0.1379 -1.8567
   38DOPE  C211 4831   4.911   5.899  13.925 -0.2698 -0.6176 -0.5043
   38DOPE  H11R 4832   4.884   5.792  13.909  0.9049 -1.2773  1.5048
   38DOPE  H11S 4833   4.823   5.938  13.981  1.1552  2.7352 -0.3660
   38DOPE  C212 4834   5.051   5.902  13.996 -0.0382 -0.3511 -0.4167
   38DOPE  H12R 4835   5.090   6.002  14.025  1.5827 -1.2909  0.8273
   38DOPE  H12S 4836   5.127   5.864  13.925 -1.2191 -0.0917 -1.8683
   38DOPE  C213 4837   5.068   5.801  14.113  0.0059 -0.1223 -0.2025
   38DOPE  H13R 4838   5.177   5.779  14.105  0.0432 -0.6355  1.4895
   38DOPE  H13S 4839   5.022   5.704  14.086  1.0479 -1.0000  1.0852
   38DOPE  C214 4840   5.033   5.857  14.245  0.1822 -0.3715  0.0157
   38DOPE  H14R 4841   4.925   5.884  14.238 -0.2003 -1.9470 -0.6878
   38DOPE  H14S 4842   5.092   5.949  14.262  0.8158 -0.5724 -0.9927
   38DOPE  C215 4843   5.063   5.761  14.359  0.4033 -0.1263 -0.5712
   38DOPE  H15R 4844   5.155   5.792  14.414 -0.6681 -0.7678  1.7124
   38DOPE  H15S 4845   5.064   5.655  14.326 -0.9395 -1.3412  2.8691
   38DOPE  C216 4846   4.945   5.767  14.468 -0.0457 -0.5653 -0.5845
   38DOPE  H16R 4847   4.849   5.727  14.430 -0.9259 -0.9566  1.8681
   38DOPE  H16S 4848   4.926   5.877  14.473  1.9251 -0.2063  0.3789
   38DOPE  C217 4849   4.992   5.709  14.603 -0.2694  0.6021  0.8830
   38DOPE  H17R 4850   5.047   5.797  14.642  0.6452  0.3694  0.1711
   38DOPE  H17S 4851   5.066   5.626  14.597  0.0496  0.8719  1.0308
   38DOPE  C218 4852   4.872   5.664  14.690  0.2506  0.2602  0.6908
   38DOPE  H18R 4853   4.908   5.648  14.795 -0.4526  1.7542  1.1852
   38DOPE  H18S 4854   4.828   5.569  14.654  0.7258  0.1663  0.3427
   38DOPE  H18T 4855   4.792   5.739  14.680  1.4749  1.5512  0.2152
   38DOPE   C33 4856   4.459   6.183  13.242  0.7183 -0.0612 -0.3450
   38DOPE   H3X 4857   4.374   6.252  13.262 -0.0492 -0.3163 -2.5119
   38DOPE   H3Y 4858   4.527   6.262  13.203 -3.0847  2.8819 -1.6743
   38DOPE   C34 4859   4.513   6.113  13.363  0.5708  0.1175  0.1027
   38DOPE   H4X 4860   4.440   6.037  13.397  0.4832 -0.3005 -0.9770
   38DOPE   H4Y 4861   4.606   6.056  13.341 -0.2179 -1.3425  0.4606
   38DOPE   C35 4862   4.548   6.200  13.483 -0.3435  0.4265  0.2901
   38DOPE   H5X 4863   4.453   6.256  13.494 -0.1333  0.9376 -0.4688
   38DOPE   H5Y 4864   4.628   6.271  13.454  2.2582 -1.6974  1.7803
   38DOPE   C36 4865   4.589   6.117  13.607  0.3097 -0.1665 -0.2886
   38DOPE   H6X 4866   4.675   6.051  13.582  0.8857  0.4506  0.0485
   38DOPE   H6Y 4867   4.511   6.039  13.624 -1.9242  1.6150 -1.7544
   38DOPE   C37 4868   4.616   6.190  13.734  0.0187  0.5215 -0.4994
   38DOPE   H7X 4869   4.723   6.219  13.740  0.2060 -0.0841 -0.7741
   38DOPE   H7Y 4870   4.546   6.275  13.745  0.8783  0.9497  2.6818
   38DOPE   C38 4871   4.586   6.110  13.863  0.4045  0.7251  0.2070
   38DOPE   H8X 4872   4.630   6.008  13.856  0.6151  0.8287  0.0149
   38DOPE   H8Y 4873   4.479   6.081  13.857  0.5329  0.1052  0.7513
   38DOPE   C39 4874   4.640   6.179  13.982  0.1665 -0.2281  0.0161
   38DOPE   H9X 4875   4.733   6.238  13.975  0.9125 -1.1622  1.4946
   38DOPE  C310 4876   4.586   6.155  14.105 -0.0658  0.2421  0.2817
   38DOPE  H10X 4877   4.638   6.203  14.190  0.0153  0.7913 -0.0704
   38DOPE  C311 4878   4.476   6.064  14.150 -0.5652  0.2119 -0.0997
   38DOPE  H11X 4879   4.376   6.094  14.113 -0.3961 -0.7163 -1.3996
   38DOPE  H11Y 4880   4.478   5.960  14.110 -2.9545 -0.0251  0.2428
   38DOPE  C312 4881   4.459   6.053  14.299  0.0257 -1.0254 -0.6821
   38DOPE  H12X 4882   4.376   5.984  14.324 -0.7413  0.5161  1.3097
   38DOPE  H12Y 4883   4.453   6.153  14.348  3.4113 -1.5381  1.0635
   38DOPE  C313 4884   4.586   5.987  14.364 -0.3435 -0.3853 -0.4758
   38DOPE  H13X 4885   4.607   5.892  14.310  0.5964  0.3339 -1.4068
   38DOPE  H13Y 4886   4.674   6.055  14.364 -0.5521 -0.0784  0.8198
   38DOPE  C314 4887   4.572   5.961  14.513  0.7589 -0.0420  0.6017
   38DOPE  H14X 4888   4.658   5.904  14.553  0.6937 -0.3130  0.3691
   38DOPE  H14Y 4889   4.485   5.894  14.534 -0.4174  1.5337  0.9702
   38DOPE  C315 4890   4.555   6.095  14.585 -0.8215 -0.0410  0.4480
   38DOPE  H15X 4891   4.451   6.134  14.583 -1.2087 -0.8599  2.2424
   38DOPE  H15Y 4892   4.625   6.174  14.551  0.3382 -1.6207 -1.0506
   38DOPE  C316 4893   4.580   6.087  14.737  0.3227 -0.1283 -0.3413
   38DOPE  H16X 4894   4.568   6.186  14.785  1.5764 -0.5111  0.8587
   38DOPE  H16Y 4895   4.683   6.063  14.774 -0.2257  1.3968  2.5093
   38DOPE  C317 4896   4.483   5.990  14.807  0.0336 -0.3896  0.5070
   38DOPE  H17X 4897   4.388   5.991  14.749  0.8445 -0.2864 -0.8851
   38DOPE  H17Y 4898   4.531   5.890  14.802  0.1136 -0.3083 -2.5629
   38DOPE  C318 4899   4.438   6.010  14.952 -0.3590  0.0118 -0.1732
   38DOPE  H18X 4900   4.527   6.025  15.017  1.2121 -2.6346 -1.5148
   38DOPE  H18Y 4901   4.364   6.092  14.959 -0.6396 -0.3935  2.7753
   38DOPE  H18Z 4902   4.387   5.921  14.994 -0.2830  0.2700  0.4705
   39DOPE     N 4903   1.212   6.038  12.611 -0.1920  0.0087 -0.1682
   39DOPE   HN1 4904   1.120   6.071  12.576 -1.4709 -1.1608  1.8762
   39DOPE   HN2 4905   1.292   6.072  12.553 -1.0265  1.0066 -0.7592
   39DOPE   HN3 4906   1.213   5.934  12.617  1.4047  0.0159  0.2442
   39DOPE   C12 4907   1.241   6.093  12.755 -0.7634  0.2328  0.4649
   39DOPE  H12A 4908   1.182   6.026  12.821 -2.3522  1.2440  0.1119
   39DOPE  H12B 4909   1.198   6.195  12.760 -3.3468 -0.8293  1.6293
   39DOPE   C11 4910   1.389   6.089  12.792  0.0878  0.3513  0.4737
   39DOPE  H11A 4911   1.405   6.131  12.894  0.9708  0.7681  0.1821
   39DOPE  H11B 4912   1.439   6.163  12.725  3.6640 -2.3817 -0.1563
   39DOPE     P 4913   1.592   5.945  12.755 -0.0155  0.2632 -0.4993
   39DOPE   O13 4914   1.627   6.023  12.639 -0.1811 -0.0566 -0.2446
   39DOPE   O14 4915   1.629   5.802  12.762 -0.4760 -0.2822  0.7344
   39DOPE   O11 4916   1.661   6.010  12.877 -0.5949  0.2317  0.0728
   39DOPE   O12 4917   1.435   5.954  12.778  0.5049 -0.4328 -0.6112
   39DOPE    C1 4918   1.661   5.950  13.004 -0.3398 -0.0592  0.8041
   39DOPE    HA 4919   1.725   5.859  13.001  1.5303  1.2228 -0.4837
   39DOPE    HB 4920   1.561   5.919  13.041 -0.4946  0.5898  0.9359
   39DOPE    C2 4921   1.726   6.040  13.108  0.5881 -0.0708 -0.1941
   39DOPE    HS 4922   1.727   5.979  13.201 -0.8466  1.9628  1.2484
   39DOPE   O21 4923   1.650   6.169  13.113 -0.0438  0.6868  0.4138
   39DOPE   C21 4924   1.590   6.197  13.228  0.5616  0.0299  0.4145
   39DOPE   O22 4925   1.615   6.139  13.335  0.1809  0.1017  0.0705
   39DOPE   C22 4926   1.486   6.321  13.206  0.5214 -0.4036 -0.2197
   39DOPE   H2R 4927   1.409   6.260  13.154 -0.0303 -0.9141  1.1460
   39DOPE   H2S 4928   1.529   6.404  13.147 -2.8281  1.1292 -0.7416
   39DOPE    C3 4929   1.873   6.069  13.067  0.5402 -0.2311 -0.1634
   39DOPE    HX 4930   1.913   6.151  13.131 -1.5381  0.0415  0.8473
   39DOPE    HY 4931   1.887   6.097  12.960  2.1364 -0.4763 -0.0486
   39DOPE   O31 4932   1.952   5.951  13.091  0.2722  0.2774  0.3165
   39DOPE   C31 4933   2.082   5.964  13.123 -0.1228  0.2594 -0.0831
   39DOPE   O32 4934   2.139   6.066  13.143 -0.0193 -0.0138 -0.3863
   39DOPE   C32 4935   2.144   5.828  13.125  0.2680  0.5846 -0.3327
   39DOPE   H2X 4936   2.064   5.757  13.158 -0.2323  1.8774  1.3944
   39DOPE   H2Y 4937   2.176   5.799  13.023 -0.8657  1.7301 -1.0436
   39DOPE   C23 4938   1.422   6.355  13.344 -0.0597 -0.3117  0.7256
   39DOPE   H3R 4939   1.421   6.264  13.408  1.8057 -1.5744 -0.8927
   39DOPE   H3S 4940   1.319   6.389  13.322 -0.4890 -0.6361  2.0951
   39DOPE   C24 4941   1.492   6.469  13.418 -0.7802  0.2590  0.3251
   39DOPE   H4R 4942   1.485   6.558  13.352 -1.2406 -0.8803 -1.1964
   39DOPE   H4S 4943   1.596   6.432  13.433 -1.0313 -0.7994 -0.4631
   39DOPE   C25 4944   1.430   6.501  13.559  0.0698  0.2186 -0.0454
   39DOPE   H5R 4945   1.320   6.503  13.544 -0.5095 -1.0232  3.3062
   39DOPE   H5S 4946   1.465   6.603  13.586  3.0577 -0.7644  0.1837
   39DOPE   C26 4947   1.449   6.405  13.672 -0.0469  0.9908 -0.0036
   39DOPE   H6R 4948   1.556   6.378  13.676 -0.3438 -0.5218 -1.2357
   39DOPE   H6S 4949   1.406   6.306  13.644  0.2994  0.8501 -0.0409
   39DOPE   C27 4950   1.414   6.463  13.809  0.2167 -0.2432  0.0699
   39DOPE   H7R 4951   1.307   6.495  13.805  0.3095  0.5945  2.6466
   39DOPE   H7S 4952   1.466   6.560  13.826  2.6431 -1.6157  0.9305
   39DOPE   C28 4953   1.456   6.364  13.920 -1.1566  0.0231  0.1311
   39DOPE   H8R 4954   1.567   6.360  13.918 -1.2046 -2.9764 -1.3734
   39DOPE   H8S 4955   1.438   6.264  13.877 -0.6148 -1.2980  2.7567
   39DOPE   C29 4956   1.393   6.378  14.061 -0.2323  0.3923 -1.0806
   39DOPE   H9R 4957   1.296   6.326  14.070  0.4679 -0.6303  1.2043
   39DOPE  C210 4958   1.434   6.438  14.177  0.2498  0.6845  0.1622
   39DOPE  H10R 4959   1.374   6.430  14.268 -0.5914 -2.9099 -0.5389
   39DOPE  C211 4960   1.567   6.504  14.185 -0.0555 -0.2556  0.0247
   39DOPE  H11R 4961   1.550   6.613  14.176 -0.4399 -0.3345 -0.2574
   39DOPE  H11S 4962   1.631   6.468  14.102 -2.9747  0.0793 -2.5268
   39DOPE  C212 4963   1.639   6.471  14.321  0.0051 -0.1833 -0.4510
   39DOPE  H12R 4964   1.731   6.531  14.311 -0.3100  0.3657 -0.1382
   39DOPE  H12S 4965   1.663   6.363  14.328  1.6612  0.2488  2.4250
   39DOPE  C213 4966   1.559   6.522  14.444 -0.4747  0.0012 -0.3381
   39DOPE  H13R 4967   1.478   6.449  14.465 -0.2888  0.3929  2.1214
   39DOPE  H13S 4968   1.514   6.617  14.407  2.6703  1.6477 -0.2473
   39DOPE  C214 4969   1.646   6.556  14.564  0.3606 -0.0193  0.3917
   39DOPE  H14R 4970   1.583   6.602  14.643 -1.8372 -0.9607 -0.7297
   39DOPE  H14S 4971   1.729   6.624  14.535  0.8159 -0.3765  0.8320
   39DOPE  C215 4972   1.724   6.431  14.613  0.1553  0.1781 -0.3326
   39DOPE  H15R 4973   1.794   6.461  14.693 -1.4039 -0.0201  1.1678
   39DOPE  H15S 4974   1.786   6.393  14.528 -2.4983 -0.6419 -2.0382
   39DOPE  C216 4975   1.645   6.310  14.664  0.1924 -0.8152  0.6680
   39DOPE  H16R 4976   1.559   6.291  14.596  0.3624  1.9045 -0.4463
   39DOPE  H16S 4977   1.604   6.342  14.762  0.8823 -0.9842  1.0174
   39DOPE  C217 4978   1.727   6.182  14.674 -0.6245  0.7480 -0.5744
   39DOPE  H17R 4979   1.746   6.146  14.571  0.0495  0.1376 -0.2421
   39DOPE  H17S 4980   1.660   6.111  14.728 -0.3529 -0.3178 -1.6222
   39DOPE  C218 4981   1.863   6.200  14.746  0.3958  0.3717  0.7723
   39DOPE  H18R 4982   1.929   6.274  14.696  1.4206 -0.0272  1.4926
   39DOPE  H18S 4983   1.921   6.106  14.756 -1.2699 -0.7391  0.4944
   39DOPE  H18T 4984   1.849   6.239  14.849  1.5502  0.2622  0.9841
   39DOPE   C33 4985   2.274   5.811  13.203 -1.1278  0.4499  0.8926
   39DOPE   H3X 4986   2.304   5.704  13.210 -2.1289  0.1947  1.4739
   39DOPE   H3Y 4987   2.261   5.842  13.309 -0.4040  1.5686  0.6823
   39DOPE   C34 4988   2.394   5.881  13.139 -0.4134 -0.1614 -0.2195
   39DOPE   H4X 4989   2.429   5.831  13.046 -1.4384  0.7340 -1.1191
   39DOPE   H4Y 4990   2.361   5.980  13.102 -0.7939  0.4322  1.5963
   39DOPE   C35 4991   2.519   5.913  13.242  0.4068 -0.8081  0.3882
   39DOPE   H5X 4992   2.482   5.932  13.345  0.4522 -0.4942  0.3461
   39DOPE   H5Y 4993   2.576   6.002  13.208  0.5166 -0.2906  1.8602
   39DOPE   C36 4994   2.613   5.794  13.246 -0.3056 -0.5565  0.3304
   39DOPE   H6X 4995   2.673   5.780  13.154 -0.9944 -2.0251  0.0811
   39DOPE   H6Y 4996   2.549   5.705  13.265 -2.4462  0.5046 -1.4441
   39DOPE   C37 4997   2.713   5.816  13.363  0.5115 -0.1104  0.0353
   39DOPE   H7X 4998   2.800   5.752  13.337 -0.1614 -1.0275 -0.0418
   39DOPE   H7Y 4999   2.740   5.923  13.357  2.9768 -0.7327 -1.0250
   39DOPE   C38 5000   2.654   5.771  13.498 -0.5735 -0.6617  0.3985
   39DOPE   H8X 5001   2.584   5.689  13.473 -1.0535 -0.2195  0.2552
   39DOPE   H8Y 5002   2.583   5.854  13.522  0.3396  0.2524  0.0315
   39DOPE   C39 5003   2.758   5.756  13.604  0.6231  0.3999  0.0132
   39DOPE   H9X 5004   2.806   5.853  13.625 -1.2776  1.0081  1.7626
   39DOPE  C310 5005   2.786   5.648  13.678  1.3638  0.0465  0.2081
   39DOPE  H10X 5006   2.869   5.646  13.749  1.7526 -2.0726 -0.2340
   39DOPE  C311 5007   2.695   5.527  13.683 -0.5388  0.2284  0.2210
   39DOPE  H11X 5008   2.695   5.481  13.784  0.4889 -2.1940 -0.8058
   39DOPE  H11Y 5009   2.588   5.555  13.668 -0.7457  0.1113  1.4103
   39DOPE  C312 5010   2.728   5.406  13.590 -0.7532 -0.6178 -0.0268
   39DOPE  H12X 5011   2.643   5.336  13.608  0.7687 -2.4985  0.1089
   39DOPE  H12Y 5012   2.810   5.347  13.634 -1.0485  0.2545  1.7634
   39DOPE  C313 5013   2.733   5.441  13.436 -0.3289 -0.0474  0.1985
   39DOPE  H13X 5014   2.648   5.504  13.401  0.1409  0.4151 -0.1229
   39DOPE  H13Y 5015   2.824   5.499  13.411 -0.3032 -0.3078 -0.3130
   39DOPE  C314 5016   2.744   5.319  13.341  0.6472 -0.2030  0.6340
   39DOPE  H14X 5017   2.675   5.246  13.387 -0.1800  0.6107  0.7073
   39DOPE  H14Y 5018   2.850   5.285  13.347  1.2573  1.5902  0.5487
   39DOPE  C315 5019   2.707   5.347  13.188  0.4849 -0.2328  0.4895
   39DOPE  H15X 5020   2.612   5.404  13.191  1.4001  1.4141 -0.1097
   39DOPE  H15Y 5021   2.705   5.257  13.122  0.7279 -0.2132  0.4511
   39DOPE  C316 5022   2.799   5.453  13.119 -0.1189 -0.5665 -0.5960
   39DOPE  H16X 5023   2.904   5.415  13.125  1.2523  2.7711 -1.0245
   39DOPE  H16Y 5024   2.792   5.548  13.177 -1.1421 -0.9834 -0.0123
   39DOPE  C317 5025   2.753   5.481  12.978  0.0253 -0.0666 -0.2275
   39DOPE  H17X 5026   2.759   5.386  12.921 -1.3852 -0.1580 -0.2667
   39DOPE  H17Y 5027   2.644   5.503  12.991 -0.0715 -0.1758 -0.8271
   39DOPE  C318 5028   2.830   5.593  12.907  0.9161 -0.3860  0.3040
   39DOPE  H18X 5029   2.937   5.570  12.889  0.9035  0.5573 -1.0911
   39DOPE  H18Y 5030   2.786   5.601  12.806 -1.6344  1.4142  1.4485
   39DOPE  H18Z 5031   2.811   5.684  12.968 -0.8030 -1.0141  0.7789
   40DOPE     N 5032   3.868   5.987  12.340 -0.4376 -0.5785 -0.0542
   40DOPE   HN1 5033   3.821   6.038  12.417  0.1464 -3.0245  2.0506
   40DOPE   HN2 5034   3.811   5.908  12.304  0.9289 -1.0879 -1.1902
   40DOPE   HN3 5035   3.951   5.945  12.387  2.3499  1.9992 -2.2439
   40DOPE   C12 5036   3.916   6.089  12.235 -0.1454 -0.3421  0.3858
   40DOPE  H12A 5037   3.947   6.018  12.155  0.2271 -0.2136  0.4116
   40DOPE  H12B 5038   4.004   6.148  12.269 -1.1245  0.9405  0.7743
   40DOPE   C11 5039   3.803   6.183  12.178  0.2683 -0.2439 -0.4469
   40DOPE  H11A 5040   3.832   6.241  12.088 -1.3212  1.0387 -0.1775
   40DOPE  H11B 5041   3.786   6.260  12.256 -2.3004  1.4435 -2.5068
   40DOPE     P 5042   3.537   6.170  12.155 -0.1168  0.0247  0.0575
   40DOPE   O13 5043   3.438   6.063  12.176  0.2738 -0.1541  0.5309
   40DOPE   O14 5044   3.526   6.269  12.049 -0.1360  0.9756 -0.0792
   40DOPE   O11 5045   3.540   6.256  12.289  0.6434  0.0968  0.1965
   40DOPE   O12 5046   3.687   6.111  12.148  0.1264  0.0962  0.0030
   40DOPE    C1 5047   3.542   6.397  12.305  0.7159 -0.1834  0.6752
   40DOPE    HA 5048   3.461   6.445  12.246  1.2154  0.4794  0.5078
   40DOPE    HB 5049   3.638   6.437  12.265  0.2043 -1.0911 -1.5972
   40DOPE    C2 5050   3.527   6.437  12.456 -0.2167  0.5106 -0.4108
   40DOPE    HS 5051   3.608   6.387  12.512 -0.1247 -0.4349 -1.3384
   40DOPE   O21 5052   3.392   6.392  12.499  0.0985  1.2405  0.5987
   40DOPE   C21 5053   3.380   6.267  12.536 -0.3984 -0.8242  0.6127
   40DOPE   O22 5054   3.467   6.183  12.548  0.3633 -0.3665  0.0974
   40DOPE   C22 5055   3.230   6.240  12.554 -0.8012  0.5025  0.2419
   40DOPE   H2R 5056   3.195   6.197  12.457 -1.6589 -0.2669  0.8748
   40DOPE   H2S 5057   3.173   6.333  12.576  0.8748  1.4707  0.6235
   40DOPE    C3 5058   3.542   6.595  12.489  0.2832  0.4411  0.3471
   40DOPE    HX 5059   3.470   6.661  12.436  0.2079 -0.1007 -0.2311
   40DOPE    HY 5060   3.644   6.614  12.448  0.9432 -1.2328  1.1400
   40DOPE   O31 5061   3.548   6.626  12.631 -0.4164  0.4526  0.1740
   40DOPE   C31 5062   3.604   6.738  12.660  0.0344 -0.6007  0.4651
   40DOPE   O32 5063   3.681   6.801  12.589  0.1237  0.5130 -0.0950
   40DOPE   C32 5064   3.555   6.790  12.796  0.0063  0.2580  0.7311
   40DOPE   H2X 5065   3.528   6.697  12.851 -0.5564  0.6846  1.1778
   40DOPE   H2Y 5066   3.645   6.835  12.843  1.8089  0.0657 -2.2523
   40DOPE   C23 5067   3.202   6.149  12.673 -0.0569  0.8565  0.2263
   40DOPE   H3R 5068   3.214   6.208  12.767 -0.0505  0.9173  0.1871
   40DOPE   H3S 5069   3.271   6.063  12.663 -1.0842 -0.1741  1.5828
   40DOPE   C24 5070   3.060   6.089  12.670  0.3018  0.6570 -0.0611
   40DOPE   H4R 5071   3.058   6.023  12.580 -0.1027  1.0254 -0.3258
   40DOPE   H4S 5072   2.989   6.174  12.657 -0.4834  0.6768  3.4520
   40DOPE   C25 5073   3.022   5.997  12.788 -0.3072 -0.6640  0.3158
   40DOPE   H5R 5074   3.093   5.916  12.814  1.1506  0.0245 -1.3306
   40DOPE   H5S 5075   2.923   5.951  12.767 -0.6465  0.2180 -0.0910
   40DOPE   C26 5076   3.023   6.076  12.917 -0.4480  0.6470 -0.0641
   40DOPE   H6R 5077   2.966   6.170  12.905  1.7295  2.0940  0.3061
   40DOPE   H6S 5078   3.131   6.095  12.937 -0.8131  2.0692  0.6889
   40DOPE   C27 5079   2.949   5.988  13.022 -0.1883  0.3427  0.3053
   40DOPE   H7R 5080   3.001   5.890  13.015 -0.3218  0.3176 -0.3571
   40DOPE   H7S 5081   2.840   5.985  12.998  0.0231  2.0643 -1.0100
   40DOPE   C28 5082   2.958   6.059  13.164 -0.7622 -0.4320 -0.3910
   40DOPE   H8R 5083   2.893   6.008  13.238  2.5862 -0.2964  2.9473
   40DOPE   H8S 5084   2.925   6.163  13.145 -0.4026 -0.6886 -2.6881
   40DOPE   C29 5085   3.102   6.037  13.206 -0.2686  0.0824 -0.6241
   40DOPE   H9R 5086   3.176   6.066  13.131 -0.7885  0.0472 -1.1615
   40DOPE  C210 5087   3.155   6.005  13.329 -0.0654  0.4111 -0.3279
   40DOPE  H10R 5088   3.259   5.972  13.335 -0.4883 -0.6445  2.4926
   40DOPE  C211 5089   3.061   5.967  13.439  0.2084 -0.6049 -0.0768
   40DOPE  H11R 5090   3.052   5.857  13.427  1.8211 -0.6239 -1.3865
   40DOPE  H11S 5091   2.964   6.021  13.433  0.6339  0.0553 -1.6125
   40DOPE  C212 5092   3.121   6.006  13.576  0.5203 -0.4658 -0.2221
   40DOPE  H12R 5093   3.132   6.116  13.578 -1.7161 -0.1693 -1.3153
   40DOPE  H12S 5094   3.225   5.966  13.585  1.0098  0.8364  0.0598
   40DOPE  C213 5095   3.038   5.962  13.700 -0.4220 -0.2589  0.6237
   40DOPE  H13R 5096   3.020   5.852  13.704 -2.2315  0.0075  0.9040
   40DOPE  H13S 5097   2.934   6.002  13.700 -0.0166  0.8230 -0.1412
   40DOPE  C214 5098   3.103   6.016  13.824 -0.0011 -0.2126 -0.2477
   40DOPE  H14R 5099   3.095   6.127  13.818  0.9600 -0.1106  0.1941
   40DOPE  H14S 5100   3.212   6.002  13.839  0.9535  2.6723 -3.2986
   40DOPE  C215 5101   3.016   5.981  13.949 -0.9421 -0.0430 -0.3372
   40DOPE  H15R 5102   3.019   5.870  13.961  1.2200 -0.2366 -1.9090
   40DOPE  H15S 5103   2.915   6.025  13.959 -0.5789  0.3079  2.5960
   40DOPE  C216 5104   3.081   6.032  14.082 -0.1941 -0.1193  0.0699
   40DOPE  H16R 5105   3.125   6.129  14.053  1.3826 -0.7393  0.3011
   40DOPE  H16S 5106   3.168   5.972  14.117 -1.0388 -0.3289  1.9188
   40DOPE  C217 5107   2.968   6.053  14.190  0.1668 -0.4654  0.2757
   40DOPE  H17R 5108   2.907   5.963  14.210 -1.0973  0.4536  0.6270
   40DOPE  H17S 5109   2.898   6.127  14.146  0.5618 -0.4394 -0.3266
   40DOPE  C218 5110   3.017   6.106  14.322 -0.2986 -0.4461  0.0598
   40DOPE  H18R 5111   3.090   6.188  14.302  0.5593 -1.9993 -4.5021
   40DOPE  H18S 5112   3.070   6.029  14.381  0.3832  0.9268  1.3134
   40DOPE  H18T 5113   2.941   6.137  14.397 -0.6138 -1.8738  0.3588
   40DOPE   C33 5114   3.446   6.891  12.796  0.0231 -0.0931  0.9440
   40DOPE   H3X 5115   3.373   6.868  12.716  1.0894 -0.7657  0.1357
   40DOPE   H3Y 5116   3.483   6.989  12.759  2.9388 -1.9913 -1.7112
   40DOPE   C34 5117   3.373   6.907  12.926  0.4505  0.1463  0.1495
   40DOPE   H4X 5118   3.281   6.968  12.921 -0.1599 -0.8104 -0.8190
   40DOPE   H4Y 5119   3.332   6.805  12.946  0.3739  0.2010  0.2676
   40DOPE   C35 5120   3.455   6.968  13.041  0.6110  0.1759 -0.0815
   40DOPE   H5X 5121   3.489   7.066  12.999 -2.0853  0.2991 -2.3543
   40DOPE   H5Y 5122   3.541   6.906  13.072 -0.2996  0.1545  2.6886
   40DOPE   C36 5123   3.371   7.002  13.161 -0.4913  0.4789  1.2664
   40DOPE   H6X 5124   3.287   7.069  13.131 -0.8303  0.2807  1.7659
   40DOPE   H6Y 5125   3.435   7.067  13.224 -0.1346  1.6141 -0.2153
   40DOPE   C37 5126   3.324   6.887  13.246  0.1809  0.1647 -0.1366
   40DOPE   H7X 5127   3.257   6.814  13.195  1.1642 -2.2949  1.9116
   40DOPE   H7Y 5128   3.416   6.830  13.269 -0.9571 -1.7401 -0.0669
   40DOPE   C38 5129   3.275   6.938  13.378 -0.0486  0.3068 -0.2751
   40DOPE   H8X 5130   3.182   6.997  13.363 -1.8847 -2.3814 -0.1763
   40DOPE   H8Y 5131   3.357   7.002  13.418 -0.6299 -0.6870  2.7551
   40DOPE   C39 5132   3.249   6.818  13.471  0.6401  0.2504  0.4843
   40DOPE   H9X 5133   3.176   6.744  13.434 -1.6872  1.9518  1.4185
   40DOPE  C310 5134   3.305   6.806  13.589  0.5263 -0.7394  0.1125
   40DOPE  H10X 5135   3.270   6.718  13.645 -1.4161 -0.8795 -1.2393
   40DOPE  C311 5136   3.404   6.893  13.670 -0.3122  0.1320 -1.0219
   40DOPE  H11X 5137   3.506   6.850  13.665 -0.4931 -0.3791 -0.5064
   40DOPE  H11Y 5138   3.410   6.995  13.626 -0.8123  0.7395  0.2554
   40DOPE  C312 5139   3.359   6.897  13.818 -0.1702  0.0110  0.0269
   40DOPE  H12X 5140   3.332   6.797  13.858 -1.1408  0.2314 -0.0709
   40DOPE  H12Y 5141   3.260   6.947  13.820 -0.5854 -0.7846 -0.1045
   40DOPE  C313 5142   3.462   6.966  13.912 -0.3163 -0.3562 -0.2972
   40DOPE  H13X 5143   3.565   6.935  13.886  0.0105 -1.7821  2.3607
   40DOPE  H13Y 5144   3.455   7.076  13.899 -1.9653 -0.0040  2.7281
   40DOPE  C314 5145   3.442   6.937  14.062 -0.4540 -0.4138 -0.2525
   40DOPE  H14X 5146   3.403   6.833  14.071 -3.2336  0.5444 -0.2941
   40DOPE  H14Y 5147   3.357   6.992  14.107 -0.4399  0.5372 -1.3407
   40DOPE  C315 5148   3.570   6.975  14.140  0.5283  0.2932 -1.1677
   40DOPE  H15X 5149   3.597   7.081  14.122  1.5016  0.4230  0.7766
   40DOPE  H15Y 5150   3.656   6.908  14.118 -0.2533 -0.6393 -1.4237
   40DOPE  C316 5151   3.545   6.963  14.296 -0.5902  0.3041  0.2874
   40DOPE  H16X 5152   3.523   6.856  14.318  2.2065 -0.2873  0.6102
   40DOPE  H16Y 5153   3.467   7.028  14.343 -0.9552 -0.5531  0.8947
   40DOPE  C317 5154   3.666   7.006  14.379  0.1114  0.1715 -0.2131
   40DOPE  H17X 5155   3.760   6.962  14.340  1.1301  0.4765  1.7471
   40DOPE  H17Y 5156   3.680   7.116  14.383 -1.7421  0.5375 -2.2630
   40DOPE  C318 5157   3.658   6.954  14.530 -0.2352  0.3571 -0.6815
   40DOPE  H18X 5158   3.648   6.844  14.520 -1.6868  0.3758  0.2695
   40DOPE  H18Y 5159   3.756   6.972  14.580  0.0738  0.7626 -1.4267
   40DOPE  H18Z 5160   3.565   6.988  14.581  0.2350 -1.2080  1.3902
   41DOPE     N 5161   2.347   6.087  12.061  0.1949 -0.1396  0.0365
   41DOPE   HN1 5162   2.340   6.025  12.145 -1.5474 -0.5666 -0.3996
   41DOPE   HN2 5163   2.253   6.126  12.043  0.2535  0.8059  1.5857
   41DOPE   HN3 5164   2.381   6.029  11.982  1.9557 -1.1865  1.4656
   41DOPE   C12 5165   2.446   6.195  12.093 -0.3558 -0.0966 -0.1662
   41DOPE  H12A 5166   2.447   6.264  12.006  0.4227 -0.8731 -0.7993
   41DOPE  H12B 5167   2.544   6.147  12.119 -0.8885 -0.5280  1.1328
   41DOPE   C11 5168   2.409   6.270  12.221  0.2663 -0.6464  0.1196
   41DOPE  H11A 5169   2.485   6.345  12.253  0.3231 -0.6743  0.0512
   41DOPE  H11B 5170   2.395   6.198  12.304  0.3588 -1.0274 -0.1897
   41DOPE     P 5171   2.169   6.342  12.301  0.3483 -0.1776 -0.3968
   41DOPE   O13 5172   2.122   6.201  12.328 -0.4649  0.3805 -0.3536
   41DOPE   O14 5173   2.074   6.440  12.243  0.5406 -0.3995 -0.0065
   41DOPE   O11 5174   2.218   6.400  12.444  0.4896  0.0479  0.4079
   41DOPE   O12 5175   2.293   6.343  12.202  0.1022 -0.5820  0.4831
   41DOPE    C1 5176   2.270   6.533  12.443  0.2813 -0.4348 -0.2165
   41DOPE    HA 5177   2.187   6.601  12.413 -1.2951 -1.7652  0.9544
   41DOPE    HB 5178   2.355   6.545  12.373  1.2760 -1.1004  0.8395
   41DOPE    C2 5179   2.312   6.581  12.584 -0.1754 -0.3655  0.1327
   41DOPE    HS 5180   2.331   6.691  12.585 -1.5277 -0.1200  0.7966
   41DOPE   O21 5181   2.408   6.498  12.634 -0.1005 -0.0345  0.0346
   41DOPE   C21 5182   2.494   6.545  12.729  0.1186 -0.1318 -0.4991
   41DOPE   O22 5183   2.487   6.649  12.786 -0.1160 -0.5779 -0.3991
   41DOPE   C22 5184   2.605   6.440  12.731 -0.4240  0.1770  0.3992
   41DOPE   H2R 5185   2.699   6.496  12.752 -0.7235  0.5872  0.6623
   41DOPE   H2S 5186   2.605   6.388  12.633 -1.7998 -1.8963  1.4307
   41DOPE    C3 5187   2.188   6.557  12.670  0.8641 -0.5678 -0.0436
   41DOPE    HX 5188   2.179   6.446  12.672 -1.3414 -0.4557  2.5701
   41DOPE    HY 5189   2.096   6.598  12.623  1.0237 -0.4023 -0.2136
   41DOPE   O31 5190   2.205   6.609  12.802  0.6266 -0.6638  0.0959
   41DOPE   C31 5191   2.185   6.739  12.825  0.6859  0.2169  0.9393
   41DOPE   O32 5192   2.147   6.823  12.747 -0.2105 -0.4923  0.1350
   41DOPE   C32 5193   2.235   6.766  12.962  0.0384 -0.1317  0.4163
   41DOPE   H2X 5194   2.342   6.739  12.968  0.3312  0.4171 -1.5884
   41DOPE   H2Y 5195   2.230   6.876  12.976  2.1683  0.0915 -0.3005
   41DOPE   C23 5196   2.597   6.335  12.851 -0.0095 -0.2677  0.0399
   41DOPE   H3R 5197   2.676   6.258  12.836  1.9800  1.7523 -0.3231
   41DOPE   H3S 5198   2.500   6.280  12.851  0.4994 -1.4349 -3.8757
   41DOPE   C24 5199   2.638   6.411  12.977 -0.7474 -0.7195 -0.3686
   41DOPE   H4R 5200   2.606   6.517  12.985  0.4924 -0.4032  0.6866
   41DOPE   H4S 5201   2.749   6.414  12.984 -0.7498  1.8853 -0.7001
   41DOPE   C25 5202   2.596   6.324  13.105 -0.9861 -0.6036  0.4396
   41DOPE   H5R 5203   2.675   6.245  13.107 -1.1766 -0.8085  0.0631
   41DOPE   H5S 5204   2.498   6.272  13.094 -0.8466 -1.1691  1.6317
   41DOPE   C26 5205   2.606   6.410  13.233  0.4287  0.4326 -0.7114
   41DOPE   H6R 5206   2.518   6.476  13.251  0.2313 -0.2980  1.3601
   41DOPE   H6S 5207   2.697   6.473  13.222 -0.2636  1.7364  0.6301
   41DOPE   C27 5208   2.610   6.331  13.369  0.0703 -0.2694 -0.2747
   41DOPE   H7R 5209   2.517   6.272  13.379  0.3541 -1.0840 -2.1706
   41DOPE   H7S 5210   2.612   6.404  13.453  0.4472  0.1419 -0.6347
   41DOPE   C28 5211   2.714   6.220  13.394 -0.2303 -0.2833  0.4832
   41DOPE   H8R 5212   2.719   6.160  13.301  2.9038  1.2249 -0.4381
   41DOPE   H8S 5213   2.670   6.147  13.466 -0.1124 -0.5307  0.3014
   41DOPE   C29 5214   2.845   6.265  13.436  0.3501 -0.2232  0.5991
   41DOPE   H9R 5215   2.922   6.283  13.360  0.1781  1.3232  0.7652
   41DOPE  C210 5216   2.873   6.306  13.567 -1.2605 -0.1270  0.4943
   41DOPE  H10R 5217   2.967   6.354  13.596 -0.1017 -0.5765 -2.2826
   41DOPE  C211 5218   2.779   6.312  13.683 -0.2472  0.2485 -0.1466
   41DOPE  H11R 5219   2.753   6.212  13.724 -0.7588  0.7088  0.6755
   41DOPE  H11S 5220   2.682   6.359  13.656 -0.9871  0.5166  2.6874
   41DOPE  C212 5221   2.829   6.388  13.812  0.3346 -0.5453  0.6974
   41DOPE  H12R 5222   2.864   6.491  13.790  1.9760 -1.1752  0.1307
   41DOPE  H12S 5223   2.928   6.347  13.842 -0.1692 -0.2098  2.9517
   41DOPE  C213 5224   2.735   6.381  13.930  0.2395  0.8084  0.6868
   41DOPE  H13R 5225   2.722   6.274  13.958  0.0784  0.7654  0.4545
   41DOPE  H13S 5226   2.637   6.426  13.900  0.1849 -0.1361 -0.6165
   41DOPE  C214 5227   2.796   6.452  14.053  0.3722 -0.2406 -0.4959
   41DOPE  H14R 5228   2.794   6.562  14.038 -1.6231  0.0350  1.2890
   41DOPE  H14S 5229   2.899   6.422  14.082  0.3400  0.6217  0.6132
   41DOPE  C215 5230   2.691   6.438  14.171 -0.5525 -0.0097  0.1080
   41DOPE  H15R 5231   2.670   6.332  14.195 -3.2429  0.2760 -0.6925
   41DOPE  H15S 5232   2.596   6.485  14.138 -0.5129 -0.1444 -0.2050
   41DOPE  C216 5233   2.724   6.519  14.295  0.4027 -0.2570 -0.1356
   41DOPE  H16R 5234   2.738   6.627  14.271 -1.4897  0.0449 -0.0179
   41DOPE  H16S 5235   2.822   6.488  14.338  0.2001  0.0471  0.5652
   41DOPE  C217 5236   2.623   6.519  14.403  0.6768 -1.1398 -0.0777
   41DOPE  H17R 5237   2.614   6.419  14.452 -0.4072 -1.3247 -0.6207
   41DOPE  H17S 5238   2.526   6.523  14.348  1.0881  3.1174 -0.7861
   41DOPE  C218 5239   2.632   6.633  14.513 -0.3693  0.4155  0.1228
   41DOPE  H18R 5240   2.547   6.624  14.583  0.1768  2.3985  1.1325
   41DOPE  H18S 5241   2.639   6.734  14.467  0.1128 -0.4547 -1.8268
   41DOPE  H18T 5242   2.724   6.627  14.575 -0.7356 -2.0390  0.5034
   41DOPE   C33 5243   2.158   6.693  13.075 -1.1925 -0.0992 -0.6020
   41DOPE   H3X 5244   2.199   6.590  13.079 -1.8618 -0.3390  1.3203
   41DOPE   H3Y 5245   2.053   6.674  13.042 -1.4200 -0.8029  0.4606
   41DOPE   C34 5246   2.166   6.754  13.213 -0.5528  0.2659  0.4657
   41DOPE   H4X 5247   2.135   6.860  13.216  0.6002  0.6368 -0.1607
   41DOPE   H4Y 5248   2.084   6.711  13.274 -0.7698  0.1470  0.0996
   41DOPE   C35 5249   2.303   6.737  13.279  0.4726 -0.2487 -0.0956
   41DOPE   H5X 5250   2.331   6.837  13.318 -2.0326  1.6537 -2.6993
   41DOPE   H5Y 5251   2.389   6.701  13.219  2.1937 -0.3366  2.2727
   41DOPE   C36 5252   2.288   6.635  13.390  0.1114  0.3318  0.7862
   41DOPE   H6X 5253   2.306   6.533  13.348 -0.3880  0.4748  0.2101
   41DOPE   H6Y 5254   2.183   6.623  13.426  0.3099  0.9101  1.5675
   41DOPE   C37 5255   2.378   6.667  13.507 -0.8696  0.3376  0.0274
   41DOPE   H7X 5256   2.478   6.635  13.470 -0.9692 -2.5092  1.9564
   41DOPE   H7Y 5257   2.368   6.773  13.538 -0.9360  0.0694  0.9495
   41DOPE   C38 5258   2.333   6.583  13.629 -0.4479  0.2418 -0.7693
   41DOPE   H8X 5259   2.311   6.481  13.591  1.6454  0.2105 -2.0646
   41DOPE   H8Y 5260   2.246   6.640  13.667  0.7361  0.8218  1.1858
   41DOPE   C39 5261   2.441   6.562  13.729 -0.0392 -0.0014 -0.0198
   41DOPE   H9X 5262   2.503   6.472  13.717  0.4296  0.3164 -0.0074
   41DOPE  C310 5263   2.461   6.638  13.833 -0.5901  0.3420 -0.5800
   41DOPE  H10X 5264   2.551   6.611  13.889 -0.3438  0.4413 -0.9265
   41DOPE  C311 5265   2.386   6.763  13.882 -0.0876  0.0766  0.1607
   41DOPE  H11X 5266   2.309   6.804  13.813  0.1733  0.5420  0.1456
   41DOPE  H11Y 5267   2.322   6.732  13.967 -1.3870 -0.9215 -1.1158
   41DOPE  C312 5268   2.478   6.887  13.914  0.3315  0.6535  0.3712
   41DOPE  H12X 5269   2.418   6.980  13.910 -1.4350 -0.4298  0.4892
   41DOPE  H12Y 5270   2.562   6.897  13.841  2.2634  1.2998  2.5340
   41DOPE  C313 5271   2.554   6.878  14.048  0.1414  0.5403 -1.3690
   41DOPE  H13X 5272   2.589   6.772  14.051  0.0603  0.5432  0.6019
   41DOPE  H13Y 5273   2.638   6.951  14.047  0.6119  0.1350  1.6060
   41DOPE  C314 5274   2.458   6.920  14.164 -0.3548 -0.3745 -0.1825
   41DOPE  H14X 5275   2.375   6.846  14.169 -0.5958 -0.0298  2.6634
   41DOPE  H14Y 5276   2.405   7.014  14.140 -3.4115 -2.0151 -0.3093
   41DOPE  C315 5277   2.540   6.944  14.289 -0.5409  0.2186  0.5244
   41DOPE  H15X 5278   2.607   7.031  14.272 -2.1212  0.9594 -2.5970
   41DOPE  H15Y 5279   2.607   6.859  14.312 -0.6156  0.7464  3.0027
   41DOPE  C316 5280   2.456   6.974  14.405 -0.5503 -0.6915 -0.1230
   41DOPE  H16X 5281   2.427   6.873  14.440 -0.7652 -1.2544 -1.8305
   41DOPE  H16Y 5282   2.364   7.032  14.378  0.3663  0.0580 -1.7452
   41DOPE  C317 5283   2.525   7.050  14.515  0.1071 -0.4262 -0.0200
   41DOPE  H17X 5284   2.624   7.000  14.525 -0.5092 -1.2683  3.3543
   41DOPE  H17Y 5285   2.524   7.158  14.490 -0.7977 -0.8915 -2.1406
   41DOPE  C318 5286   2.445   7.032  14.651 -0.0511 -0.2161  0.7153
   41DOPE  H18X 5287   2.449   6.924  14.676 -0.7390 -0.5647 -0.5711
   41DOPE  H18Y 5288   2.483   7.102  14.728 -0.5595  2.0853 -1.0336
   41DOPE  H18Z 5289   2.337   7.056  14.637 -0.5631 -1.8752  1.5576
   42DOPE     N 5290   0.746   5.543  12.739 -0.1221 -0.1637 -0.1120
   42DOPE   HN1 5291   0.798   5.595  12.812  0.8682 -2.9731  1.3192
   42DOPE   HN2 5292   0.650   5.583  12.744  0.1660  0.4377  0.8245
   42DOPE   HN3 5293   0.736   5.445  12.771  0.1538 -0.2752 -0.3636
   42DOPE   C12 5294   0.819   5.553  12.608 -0.5330  0.1010 -0.1998
   42DOPE  H12A 5295   0.809   5.659  12.574 -0.9278  0.1464  0.0408
   42DOPE  H12B 5296   0.770   5.488  12.532  1.2299 -0.6979 -0.6835
   42DOPE   C11 5297   0.967   5.520  12.633  0.3395  0.0365  0.1769
   42DOPE  H11A 5298   1.016   5.504  12.534 -1.1288  1.8277 -0.8957
   42DOPE  H11B 5299   0.971   5.421  12.684 -3.0368 -0.3143 -0.0128
   42DOPE     P 5300   1.165   5.681  12.682 -0.3585  0.3204 -0.3336
   42DOPE   O13 5301   1.132   5.774  12.571  0.1013 -0.4743  0.1045
   42DOPE   O14 5302   1.266   5.572  12.662  0.3585  0.0364 -0.0621
   42DOPE   O11 5303   1.200   5.760  12.819 -0.3513  0.0239  0.2084
   42DOPE   O12 5304   1.028   5.620  12.720  0.7456 -0.1364  0.0809
   42DOPE    C1 5305   1.306   5.721  12.910 -0.3943 -0.2043 -0.4005
   42DOPE    HA 5306   1.321   5.802  12.984  1.2624  0.0944 -1.0065
   42DOPE    HB 5307   1.402   5.714  12.854  0.2055 -1.4665  0.7257
   42DOPE    C2 5308   1.279   5.589  12.989  0.1784 -0.2399  0.5989
   42DOPE    HS 5309   1.272   5.512  12.909  0.5529  1.5716 -1.2634
   42DOPE   O21 5310   1.155   5.597  13.060  0.3924 -0.1869  0.2664
   42DOPE   C21 5311   1.071   5.496  13.035  0.2921  0.3594 -0.1683
   42DOPE   O22 5312   1.097   5.395  12.968  0.3050 -0.2923 -0.7421
   42DOPE   C22 5313   0.935   5.523  13.101 -0.1340  0.5959  0.1725
   42DOPE   H2R 5314   0.887   5.430  13.141 -0.3032  1.1875  1.4072
   42DOPE   H2S 5315   0.877   5.548  13.010  1.0813  0.6269 -0.6091
   42DOPE    C3 5316   1.398   5.553  13.076 -0.4336  0.5067  0.9601
   42DOPE    HX 5317   1.476   5.528  13.002 -2.4667 -0.1444 -1.0626
   42DOPE    HY 5318   1.376   5.461  13.135  2.4426 -1.4945 -0.8333
   42DOPE   O31 5319   1.440   5.661  13.158  0.1548 -0.1300  0.1100
   42DOPE   C31 5320   1.419   5.657  13.291 -0.0096 -0.0487 -0.1559
   42DOPE   O32 5321   1.363   5.571  13.354  0.0837  0.2826 -0.3166
   42DOPE   C32 5322   1.506   5.768  13.356 -0.0009  0.8419 -0.3487
   42DOPE   H2X 5323   1.607   5.724  13.362 -0.1698  0.2574 -1.5144
   42DOPE   H2Y 5324   1.505   5.868  13.308 -2.1930  1.8398  1.5445
   42DOPE   C23 5325   0.938   5.627  13.212  0.1979 -0.1048  0.1881
   42DOPE   H3R 5326   0.831   5.647  13.237 -1.0218 -3.2473 -1.8559
   42DOPE   H3S 5327   0.984   5.723  13.181  0.5628 -0.8020 -1.5575
   42DOPE   C24 5328   1.006   5.584  13.341 -0.4410  0.9138 -0.4735
   42DOPE   H4R 5329   1.097   5.524  13.319 -1.9040 -1.7552  0.4146
   42DOPE   H4S 5330   0.934   5.518  13.392  0.4587 -0.3144 -0.7539
   42DOPE   C25 5331   1.045   5.688  13.437 -1.0647  0.9627 -0.5244
   42DOPE   H5R 5332   0.967   5.766  13.449 -1.8789  0.3760 -1.7645
   42DOPE   H5S 5333   1.133   5.743  13.397  1.9182 -0.0075  3.8700
   42DOPE   C26 5334   1.100   5.630  13.577  0.5481  0.0043  0.5392
   42DOPE   H6R 5335   1.189   5.565  13.565  0.4289 -0.0340 -0.1710
   42DOPE   H6S 5336   1.020   5.559  13.608  0.2464 -1.2064 -2.6168
   42DOPE   C27 5337   1.122   5.738  13.672  0.8973  0.9751 -0.2112
   42DOPE   H7R 5338   1.031   5.801  13.671  0.0230 -0.1874  1.2829
   42DOPE   H7S 5339   1.207   5.802  13.641  0.5106  1.4200 -0.3711
   42DOPE   C28 5340   1.140   5.689  13.822 -0.4686  0.4820 -0.1144
   42DOPE   H8R 5341   1.069   5.610  13.855  1.2221 -1.2705 -0.4171
   42DOPE   H8S 5342   1.124   5.775  13.889 -0.3387 -0.2166  0.8283
   42DOPE   C29 5343   1.266   5.613  13.846 -0.3493 -0.7000  0.0456
   42DOPE   H9R 5344   1.293   5.535  13.774  1.1098 -2.3604  2.2435
   42DOPE  C210 5345   1.362   5.633  13.937 -0.1699 -0.2685 -0.5979
   42DOPE  H10R 5346   1.451   5.568  13.938 -1.8892 -2.8641  2.9025
   42DOPE  C211 5347   1.369   5.748  14.037  0.2598  0.9736 -0.2138
   42DOPE  H11R 5348   1.269   5.796  14.038 -1.4020 -2.1958  0.6270
   42DOPE  H11S 5349   1.448   5.822  14.014  1.7100  0.5051  2.7677
   42DOPE  C212 5350   1.416   5.687  14.176  0.6842 -0.3026  0.5942
   42DOPE  H12R 5351   1.519   5.649  14.161  1.8371  2.4166  0.9045
   42DOPE  H12S 5352   1.349   5.602  14.201 -0.2752  0.3250  0.1988
   42DOPE  C213 5353   1.427   5.791  14.283  0.1001  0.0302 -0.0981
   42DOPE  H13R 5354   1.326   5.834  14.298  0.5228  1.1066 -0.2233
   42DOPE  H13S 5355   1.492   5.873  14.244 -0.0153 -0.2623 -0.9415
   42DOPE  C214 5356   1.476   5.736  14.409  0.0664  0.3921 -0.2908
   42DOPE  H14R 5357   1.576   5.687  14.399  0.8345  2.1118 -1.6250
   42DOPE  H14S 5358   1.405   5.667  14.459 -0.2648  0.8921 -0.0745
   42DOPE  C215 5359   1.480   5.846  14.509 -0.1419  0.1887 -0.9326
   42DOPE  H15R 5360   1.383   5.900  14.510  0.8399  2.0517  0.4882
   42DOPE  H15S 5361   1.542   5.934  14.484 -2.5594  2.2376 -0.2114
   42DOPE  C216 5362   1.515   5.781  14.652  0.0221  0.6972  0.0644
   42DOPE  H16R 5363   1.626   5.777  14.649  0.2511 -0.6015  4.1463
   42DOPE  H16S 5364   1.479   5.676  14.662  0.7820  0.3842 -0.3487
   42DOPE  C217 5365   1.485   5.878  14.769  0.1875  0.2766 -0.2192
   42DOPE  H17R 5366   1.377   5.903  14.765  0.3719  1.2351  0.3762
   42DOPE  H17S 5367   1.548   5.970  14.768 -0.0350  0.4399  0.3173
   42DOPE  C218 5368   1.508   5.807  14.906 -0.0161  0.4844  0.6092
   42DOPE  H18R 5369   1.610   5.765  14.919 -1.9959 -4.5809  2.4192
   42DOPE  H18S 5370   1.438   5.722  14.916  0.5074  0.0413  0.5650
   42DOPE  H18T 5371   1.494   5.888  14.981  1.4923 -1.4709  3.1433
   42DOPE   C33 5372   1.445   5.795  13.496  0.3573  0.2825 -0.3511
   42DOPE   H3X 5373   1.432   5.704  13.559  1.4766  3.7437  5.6864
   42DOPE   H3Y 5374   1.344   5.837  13.478 -1.0120 -2.2156  0.9085
   42DOPE   C34 5375   1.532   5.876  13.579 -0.5199 -0.4057 -0.1243
   42DOPE   H4X 5376   1.624   5.823  13.610  1.6556  1.8378 -2.3864
   42DOPE   H4Y 5377   1.572   5.964  13.526 -0.1729  0.1844  1.0930
   42DOPE   C35 5378   1.453   5.919  13.701 -0.5292 -0.0052  0.5615
   42DOPE   H5X 5379   1.457   5.834  13.773 -2.2468  0.2181  0.9582
   42DOPE   H5Y 5380   1.347   5.933  13.671 -0.1739 -1.6508 -1.7565
   42DOPE   C36 5381   1.518   6.043  13.766  0.4576 -0.2741 -0.5456
   42DOPE   H6X 5382   1.462   6.071  13.858 -0.4107 -0.9215 -0.8637
   42DOPE   H6Y 5383   1.511   6.132  13.701  0.4966 -1.6145 -2.4666
   42DOPE   C37 5384   1.666   6.026  13.811 -0.8491  0.4033  0.3316
   42DOPE   H7X 5385   1.670   5.932  13.869  1.6212  0.9384  1.1543
   42DOPE   H7Y 5386   1.735   6.012  13.725  0.9875  0.3648  1.7603
   42DOPE   C38 5387   1.726   6.152  13.882  0.6686 -0.1514  0.2931
   42DOPE   H8X 5388   1.660   6.193  13.962  1.0165  3.3222 -1.0327
   42DOPE   H8Y 5389   1.724   6.232  13.806 -0.4193  1.5856  2.0509
   42DOPE   C39 5390   1.861   6.133  13.938 -0.0089  0.0407  0.2778
   42DOPE   H9X 5391   1.938   6.131  13.859 -0.9086  0.7037 -0.6455
   42DOPE  C310 5392   1.895   6.128  14.069 -0.1349  0.4886 -0.2621
   42DOPE  H10X 5393   2.002   6.118  14.094 -0.3501 -0.4219  0.3633
   42DOPE  C311 5394   1.805   6.162  14.185  0.6259  0.0277  0.0073
   42DOPE  H11X 5395   1.837   6.248  14.248  1.8185 -1.1528  1.0565
   42DOPE  H11Y 5396   1.700   6.187  14.159 -0.0205 -1.0144  1.5256
   42DOPE  C312 5397   1.776   6.042  14.283 -0.2807 -0.0525 -0.4754
   42DOPE  H12X 5398   1.720   5.959  14.235 -0.7542 -0.9763  1.5867
   42DOPE  H12Y 5399   1.704   6.083  14.357 -1.7809 -1.1699 -1.2611
   42DOPE  C313 5400   1.895   5.998  14.364 -0.7555 -0.6365  0.0243
   42DOPE  H13X 5401   1.971   5.946  14.302 -1.7233  0.9026 -2.5938
   42DOPE  H13Y 5402   1.944   6.083  14.417 -1.5801  0.5880 -1.1160
   42DOPE  C314 5403   1.855   5.894  14.475  0.5106 -0.1200 -0.4900
   42DOPE  H14X 5404   1.838   5.797  14.425  3.0687 -1.1308  0.4052
   42DOPE  H14Y 5405   1.758   5.928  14.517  0.8636  0.5813 -0.2057
   42DOPE  C315 5406   1.966   5.879  14.585 -0.2059  0.1541  0.2489
   42DOPE  H15X 5407   2.002   5.984  14.585  1.3886 -0.3700 -0.3330
   42DOPE  H15Y 5408   2.040   5.808  14.541 -1.8957 -2.4253  1.3061
   42DOPE  C316 5409   1.926   5.835  14.726 -0.2140 -0.1433  0.0952
   42DOPE  H16X 5410   1.889   5.730  14.725 -1.9269  0.4282 -0.9085
   42DOPE  H16Y 5411   1.833   5.888  14.757 -0.8411 -1.3755  0.4134
   42DOPE  C317 5412   2.024   5.835  14.842 -0.1159  0.2620  0.2505
   42DOPE  H17X 5413   2.045   5.937  14.881 -0.4604 -0.2535  1.8399
   42DOPE  H17Y 5414   1.972   5.778  14.921 -0.1804  1.3709  1.0243
   42DOPE  C318 5415   2.142   5.746  14.796 -0.4043  0.5131 -0.0158
   42DOPE  H18X 5416   2.239   5.763  14.849 -0.3561  0.7242 -0.1695
   42DOPE  H18Y 5417   2.112   5.639  14.804 -1.5689  0.7513 -0.9885
   42DOPE  H18Z 5418   2.158   5.760  14.687  0.0135 -1.7361 -0.3026
   43DOPE     N 5419   0.873   4.173  13.110 -0.2788 -0.5344  0.3715
   43DOPE   HN1 5420   0.919   4.089  13.069  0.5448 -0.6794  1.5201
   43DOPE   HN2 5421   0.778   4.148  13.145 -0.8564  2.1432  0.9560
   43DOPE   HN3 5422   0.862   4.245  13.037 -0.0869  0.3970  1.2323
   43DOPE   C12 5423   0.953   4.235  13.213 -0.0319 -0.3816 -0.8721
   43DOPE  H12A 5424   1.003   4.157  13.274 -1.6242  0.8713  2.2873
   43DOPE  H12B 5425   0.889   4.298  13.278 -0.2815 -1.5942  0.0923
   43DOPE   C11 5426   1.055   4.331  13.163  0.0983  0.5096 -1.0085
   43DOPE  H11A 5427   1.099   4.375  13.255 -1.9814 -0.1665  0.3845
   43DOPE  H11B 5428   0.996   4.416  13.122 -0.3551  0.8931  0.3663
   43DOPE     P 5429   1.281   4.349  13.029 -0.1529 -0.1842  0.3773
   43DOPE   O13 5430   1.242   4.485  12.991  0.8268 -0.3159  0.0614
   43DOPE   O14 5431   1.360   4.269  12.929  0.1086 -0.2968  0.1211
   43DOPE   O11 5432   1.356   4.357  13.164  0.1766  0.5259  0.2686
   43DOPE   O12 5433   1.147   4.273  13.068 -0.1597  0.1494 -0.3625
   43DOPE    C1 5434   1.386   4.228  13.219 -0.5620  0.2862 -0.2626
   43DOPE    HA 5435   1.457   4.168  13.158 -1.2329 -1.4960  0.6515
   43DOPE    HB 5436   1.289   4.174  13.231 -0.5350  0.1373 -0.6826
   43DOPE    C2 5437   1.451   4.233  13.360 -0.7498  0.4462 -0.1285
   43DOPE    HS 5438   1.538   4.302  13.358 -0.3354  0.0848  2.4493
   43DOPE   O21 5439   1.484   4.095  13.399 -0.2524 -0.2949 -0.2201
   43DOPE   C21 5440   1.594   4.090  13.480 -0.2923  0.2342 -0.1638
   43DOPE   O22 5441   1.674   4.182  13.497  0.3259 -0.9262  0.0777
   43DOPE   C22 5442   1.598   3.949  13.537 -0.7367 -0.1314  0.9387
   43DOPE   H2R 5443   1.594   3.877  13.453  1.8154  1.1771 -0.4327
   43DOPE   H2S 5444   1.505   3.944  13.597 -1.5998  0.2525 -0.3190
   43DOPE    C3 5445   1.357   4.300  13.463 -0.7017  0.9315  0.4351
   43DOPE    HX 5446   1.270   4.235  13.483 -0.5381  0.4963 -0.2164
   43DOPE    HY 5447   1.322   4.395  13.418 -0.5691  1.1433  0.7740
   43DOPE   O31 5448   1.424   4.317  13.590  0.2593  0.2316 -0.0987
   43DOPE   C31 5449   1.337   4.382  13.671  0.3695 -0.5786 -0.0043
   43DOPE   O32 5450   1.230   4.420  13.631  0.1526  0.5331 -0.1683
   43DOPE   C32 5451   1.384   4.408  13.812  0.0412 -0.2724 -0.2800
   43DOPE   H2X 5452   1.414   4.515  13.806 -0.0940 -0.3361 -3.2006
   43DOPE   H2Y 5453   1.296   4.404  13.880  0.9196  2.1571  1.1410
   43DOPE   C23 5454   1.722   3.917  13.634  0.4518  0.4243  0.1542
   43DOPE   H3R 5455   1.813   3.934  13.572 -0.3813 -1.7700 -1.8353
   43DOPE   H3S 5456   1.717   3.812  13.672 -0.6469  0.7330  0.8955
   43DOPE   C24 5457   1.702   3.990  13.765  0.6030 -0.0495 -0.0595
   43DOPE   H4R 5458   1.602   3.967  13.806  0.1823  1.0486 -0.4286
   43DOPE   H4S 5459   1.713   4.100  13.754  1.7485  0.7760  5.6739
   43DOPE   C25 5460   1.807   3.960  13.876 -0.6851  1.1146  0.3834
   43DOPE   H5R 5461   1.908   3.982  13.834 -0.2652 -2.6839 -1.0299
   43DOPE   H5S 5462   1.813   3.852  13.901 -0.6270  0.8396 -0.7635
   43DOPE   C26 5463   1.804   4.045  14.000  0.7634 -0.0472 -0.5018
   43DOPE   H6R 5464   1.798   4.154  13.979  1.3538  0.5735  2.1658
   43DOPE   H6S 5465   1.901   4.033  14.053  1.3645  1.3174 -1.2481
   43DOPE   C27 5466   1.685   4.023  14.097  0.0278  0.4695 -0.2181
   43DOPE   H7R 5467   1.661   3.915  14.104  2.5253 -0.3955 -2.7844
   43DOPE   H7S 5468   1.594   4.053  14.041 -1.2170 -3.2217 -0.4397
   43DOPE   C28 5469   1.707   4.087  14.231 -0.1144  0.1784  0.5999
   43DOPE   H8R 5470   1.608   4.093  14.280 -0.8278  3.5386 -0.9598
   43DOPE   H8S 5471   1.730   4.194  14.213 -0.1015 -0.2275 -2.2849
   43DOPE   C29 5472   1.813   4.009  14.309 -0.1139 -0.3109  0.3638
   43DOPE   H9R 5473   1.916   4.043  14.290 -0.5656  1.4547  0.8856
   43DOPE  C210 5474   1.793   3.915  14.400  0.5815  0.0562  0.0864
   43DOPE  H10R 5475   1.881   3.873  14.450  1.0671 -0.4773 -1.1795
   43DOPE  C211 5476   1.658   3.855  14.429 -0.2853  0.0437  0.4153
   43DOPE  H11R 5477   1.607   3.821  14.336  0.0173 -0.5656  0.4635
   43DOPE  H11S 5478   1.599   3.930  14.486  2.1700  1.3360  1.4039
   43DOPE  C212 5479   1.685   3.733  14.520 -0.6921  0.1726  0.3490
   43DOPE  H12R 5480   1.756   3.668  14.466  2.2903  2.7780  0.8456
   43DOPE  H12S 5481   1.596   3.669  14.502  1.0349 -2.2031 -0.2513
   43DOPE  C213 5482   1.735   3.766  14.657  0.2570  0.1534  0.0284
   43DOPE  H13R 5483   1.686   3.861  14.687 -0.9279 -0.7664  1.0936
   43DOPE  H13S 5484   1.843   3.783  14.676  0.0669 -0.3441  1.6971
   43DOPE  C214 5485   1.699   3.664  14.766  0.0669 -0.9208  0.4461
   43DOPE  H14R 5486   1.774   3.582  14.763  0.9785 -0.2163  2.4563
   43DOPE  H14S 5487   1.596   3.622  14.764  0.2589 -1.6092  2.6309
   43DOPE  C215 5488   1.709   3.725  14.908 -0.8055  0.0722  0.4378
   43DOPE  H15R 5489   1.648   3.818  14.908  0.5951  1.0321  1.1982
   43DOPE  H15S 5490   1.813   3.754  14.936 -0.6089  0.2410 -0.4221
   43DOPE  C216 5491   1.654   3.631  15.013  0.6160 -0.4157  0.7410
   43DOPE  H16R 5492   1.575   3.561  14.978  0.9407 -1.0669  1.2775
   43DOPE  H16S 5493   1.608   3.687  15.098 -1.9367  1.1505 -1.5201
   43DOPE  C217 5494   1.761   3.539  15.072 -0.0368 -0.2370 -0.6438
   43DOPE  H17R 5495   1.847   3.599  15.110  1.0741 -0.9449 -1.9258
   43DOPE  H17S 5496   1.802   3.475  14.991 -1.7274  1.6212 -3.1099
   43DOPE  C218 5497   1.720   3.449  15.185  0.5459 -0.3864  0.0268
   43DOPE  H18R 5498   1.667   3.355  15.157  0.8926 -0.5488 -0.0858
   43DOPE  H18S 5499   1.646   3.502  15.249  1.5355 -2.9199  3.5611
   43DOPE  H18T 5500   1.801   3.411  15.251 -0.8616  0.5919  2.4680
   43DOPE   C33 5501   1.515   4.330  13.857  0.0573  0.2097  0.4287
   43DOPE   H3X 5502   1.593   4.347  13.779  0.7401  2.9324  1.5743
   43DOPE   H3Y 5503   1.497   4.222  13.871 -2.5168  0.6726  1.1617
   43DOPE   C34 5504   1.576   4.387  13.993 -0.7686  0.4441  0.8878
   43DOPE   H4X 5505   1.679   4.346  14.002 -1.2765 -1.0931  0.1365
   43DOPE   H4Y 5506   1.595   4.497  13.996  0.2495  0.3193 -0.2980
   43DOPE   C35 5507   1.490   4.345  14.112  0.8374 -0.9253 -0.8280
   43DOPE   H5X 5508   1.489   4.234  14.116 -0.3646 -0.9150 -0.4923
   43DOPE   H5Y 5509   1.385   4.377  14.092  1.4859  1.9922 -0.0122
   43DOPE   C36 5510   1.527   4.406  14.248 -0.6937 -0.6836 -0.0220
   43DOPE   H6X 5511   1.534   4.516  14.243  0.4307 -0.8080 -2.1050
   43DOPE   H6Y 5512   1.634   4.375  14.256  0.1532  2.2351  1.1636
   43DOPE   C37 5513   1.449   4.351  14.369 -0.7502  0.3154  0.5062
   43DOPE   H7X 5514   1.343   4.384  14.365 -0.3547  1.5870 -0.0948
   43DOPE   H7Y 5515   1.454   4.240  14.373  0.0905  0.3241  0.0040
   43DOPE   C38 5516   1.498   4.403  14.501  0.2376 -0.2223  0.2573
   43DOPE   H8X 5517   1.486   4.513  14.509  0.8655 -0.1123 -0.3053
   43DOPE   H8Y 5518   1.607   4.390  14.516  0.7139  1.4543 -1.4109
   43DOPE   C39 5519   1.405   4.351  14.609  0.1166  0.0404  0.3043
   43DOPE   H9X 5520   1.301   4.327  14.582  0.7371 -1.3437 -0.9806
   43DOPE  C310 5521   1.442   4.363  14.738  0.1330  0.3797  0.4081
   43DOPE  H10X 5522   1.370   4.329  14.813 -2.2265  2.3417 -0.8221
   43DOPE  C311 5523   1.586   4.395  14.782  0.2697  0.3307  0.1651
   43DOPE  H11X 5524   1.639   4.463  14.712  1.8937 -1.3315 -0.3040
   43DOPE  H11Y 5525   1.588   4.457  14.874 -1.0872  0.3243  0.2171
   43DOPE  C312 5526   1.675   4.279  14.813 -0.4508  0.2646  0.5263
   43DOPE  H12X 5527   1.655   4.201  14.737 -0.6923  1.5171 -0.7406
   43DOPE  H12Y 5528   1.644   4.232  14.909  0.9554  0.1236  0.9477
   43DOPE  C313 5529   1.828   4.314  14.801  0.9656 -0.4915  1.1751
   43DOPE  H13X 5530   1.843   4.341  14.694 -0.1158  0.3896  1.2320
   43DOPE  H13Y 5531   1.848   4.392  14.878 -3.3982  2.4748 -0.3483
   43DOPE  C314 5532   1.908   4.192  14.827  0.0911 -0.8722  0.6407
   43DOPE  H14X 5533   1.857   4.096  14.802  1.4283 -1.9148  1.6977
   43DOPE  H14Y 5534   1.912   4.183  14.937 -0.4469 -2.5575  0.5514
   43DOPE  C315 5535   2.050   4.206  14.762  0.2448 -0.3775 -0.0365
   43DOPE  H15X 5536   2.095   4.305  14.782 -2.6913  1.4109 -1.6617
   43DOPE  H15Y 5537   2.041   4.192  14.652  1.4798 -2.4464  0.0681
   43DOPE  C316 5538   2.128   4.086  14.811 -0.7667 -0.6500  0.3800
   43DOPE  H16X 5539   2.076   3.990  14.790 -0.9552 -0.1283 -1.7501
   43DOPE  H16Y 5540   2.154   4.094  14.918  1.1931  1.0713 -0.1642
   43DOPE  C317 5541   2.268   4.076  14.740  0.1601  0.2352 -0.1253
   43DOPE  H17X 5542   2.269   4.065  14.630  0.5443  1.3492 -0.2450
   43DOPE  H17Y 5543   2.325   4.169  14.759  0.1130  0.2379  0.0062
   43DOPE  C318 5544   2.349   3.952  14.789  0.3453  0.3709 -0.2527
   43DOPE  H18X 5545   2.444   3.937  14.733 -0.2805 -0.5963 -1.0752
   43DOPE  H18Y 5546   2.372   3.965  14.897 -0.9009  0.1258  0.0570
   43DOPE  H18Z 5547   2.290   3.858  14.791  0.1785  0.4856  1.1672
   44DOPE     N 5548   2.504   3.267  12.515  0.4781  0.3510 -0.0210
   44DOPE   HN1 5549   2.598   3.228  12.494 -0.3200 -1.8378  0.1663
   44DOPE   HN2 5550   2.512   3.348  12.579 -0.8579  0.3951  0.1216
   44DOPE   HN3 5551   2.447   3.200  12.571  0.4245  1.5795  1.4624
   44DOPE   C12 5552   2.435   3.315  12.391 -0.3938 -0.3054  0.5053
   44DOPE  H12A 5553   2.338   3.358  12.425 -0.2076  0.6620 -0.1568
   44DOPE  H12B 5554   2.414   3.232  12.320 -0.9693  0.1474  0.1425
   44DOPE   C11 5555   2.517   3.425  12.324 -0.2593 -0.4610 -0.1144
   44DOPE  H11A 5556   2.505   3.514  12.389  1.3076  2.9252 -3.9812
   44DOPE  H11B 5557   2.476   3.449  12.224 -0.8461  0.9582  0.4375
   44DOPE     P 5558   2.762   3.487  12.261  0.0747  0.0492 -0.2135
   44DOPE   O13 5559   2.715   3.551  12.139 -0.4294  0.2070 -0.0711
   44DOPE   O14 5560   2.893   3.416  12.258 -0.5830  0.0691 -0.6871
   44DOPE   O11 5561   2.769   3.601  12.384  0.1476 -0.2669  0.2460
   44DOPE   O12 5562   2.652   3.385  12.317 -0.8755 -0.4315  0.3876
   44DOPE    C1 5563   2.907   3.638  12.417  0.1399  0.0988 -0.1624
   44DOPE    HA 5564   2.901   3.737  12.466  0.6750 -0.0320  0.1791
   44DOPE    HB 5565   2.968   3.647  12.324  0.8199  2.7192  0.4654
   44DOPE    C2 5566   2.970   3.542  12.519 -0.2634  0.4470 -0.1652
   44DOPE    HS 5567   3.003   3.447  12.472  2.9530  0.9797  0.7168
   44DOPE   O21 5568   2.884   3.518  12.629 -0.4724 -0.0431 -0.5430
   44DOPE   C21 5569   2.895   3.396  12.688 -0.2295  0.1883  0.7794
   44DOPE   O22 5570   2.976   3.312  12.647  0.1733  0.1835  0.9341
   44DOPE   C22 5571   2.806   3.381  12.814  0.3028 -0.5224  0.2754
   44DOPE   H2R 5572   2.723   3.320  12.774 -1.0886  2.1149 -1.0821
   44DOPE   H2S 5573   2.777   3.484  12.844  0.1012  0.1327 -2.0493
   44DOPE    C3 5574   3.111   3.595  12.576 -0.0067 -0.2641  0.1982
   44DOPE    HX 5575   3.168   3.631  12.488 -0.4052 -0.7303 -0.2611
   44DOPE    HY 5576   3.170   3.509  12.617  2.5047  0.3191 -1.9099
   44DOPE   O31 5577   3.101   3.711  12.654  0.1948  0.3191  0.5400
   44DOPE   C31 5578   3.083   3.691  12.788 -0.1383 -0.1049 -0.0202
   44DOPE   O32 5579   3.077   3.586  12.846 -0.2778 -0.8953 -0.4957
   44DOPE   C32 5580   3.069   3.829  12.857 -0.1180 -0.7108 -0.1059
   44DOPE   H2X 5581   3.161   3.890  12.842 -0.1116 -0.4147  1.0613
   44DOPE   H2Y 5582   2.982   3.886  12.819  0.0061  0.7968  1.7718
   44DOPE   C23 5583   2.857   3.303  12.936  0.3807  0.0263 -0.0748
   44DOPE   H3R 5584   2.966   3.321  12.953  0.8280 -2.0298 -0.5154
   44DOPE   H3S 5585   2.831   3.197  12.914  0.5611  0.3820 -2.1628
   44DOPE   C24 5586   2.779   3.355  13.061  0.1367 -0.2222 -1.0950
   44DOPE   H4R 5587   2.674   3.320  13.058 -0.6524  1.5924  1.7134
   44DOPE   H4S 5588   2.774   3.466  13.057 -3.4582 -0.2248  0.2563
   44DOPE   C25 5589   2.845   3.300  13.188  0.6648 -0.1597 -0.3499
   44DOPE   H5R 5590   2.842   3.371  13.274  0.5418 -0.5334 -0.0442
   44DOPE   H5S 5591   2.952   3.289  13.159  0.3957 -0.4985 -1.2365
   44DOPE   C26 5592   2.782   3.165  13.225  0.0797 -0.1605  0.2674
   44DOPE   H6R 5593   2.769   3.109  13.129 -1.3231 -0.7129  0.7464
   44DOPE   H6S 5594   2.683   3.169  13.275 -0.9758  1.8356 -1.8098
   44DOPE   C27 5595   2.884   3.083  13.303 -0.6975  0.1090  0.1136
   44DOPE   H7R 5596   2.927   3.149  13.380  1.4562 -3.1741  1.9848
   44DOPE   H7S 5597   2.968   3.046  13.239  0.0460  1.2726  0.3863
   44DOPE   C28 5598   2.823   2.958  13.356 -0.1836  0.1191 -0.4490
   44DOPE   H8R 5599   2.795   2.891  13.272 -0.1793 -1.2282  0.6018
   44DOPE   H8S 5600   2.730   2.990  13.409 -0.4016 -1.2402  0.0382
   44DOPE   C29 5601   2.912   2.885  13.452 -0.3148  0.2757  0.3578
   44DOPE   H9R 5602   2.985   2.818  13.404  1.1634  1.5634  0.7438
   44DOPE  C210 5603   2.919   2.892  13.588  0.3913 -0.1648 -0.0005
   44DOPE  H10R 5604   2.985   2.826  13.647 -1.2856 -2.9878 -1.0594
   44DOPE  C211 5605   2.822   2.974  13.673 -0.0615 -0.3620 -0.4483
   44DOPE  H11R 5606   2.778   2.900  13.744  0.8660 -0.7099 -0.2169
   44DOPE  H11S 5607   2.737   3.013  13.614  0.6083 -0.5198 -1.5604
   44DOPE  C212 5608   2.884   3.091  13.756  0.2282 -0.4105 -0.3020
   44DOPE  H12R 5609   2.906   3.176  13.688 -2.5799  0.9083  0.2702
   44DOPE  H12S 5610   2.978   3.050  13.797 -0.0907 -1.6237 -0.7272
   44DOPE  C213 5611   2.785   3.132  13.863 -0.6338  0.2736  0.3383
   44DOPE  H13R 5612   2.677   3.135  13.835 -0.2298  2.7366 -1.1713
   44DOPE  H13S 5613   2.808   3.235  13.895  1.1635  0.4832 -1.4533
   44DOPE  C214 5614   2.801   3.043  13.987 -0.6134 -0.0943 -0.3974
   44DOPE  H14R 5615   2.906   3.009  13.997  0.2874  2.5012 -0.2853
   44DOPE  H14S 5616   2.731   2.957  13.984 -0.2907 -0.3431 -0.9463
   44DOPE  C215 5617   2.768   3.113  14.125  0.7437 -0.2009  0.1127
   44DOPE  H15R 5618   2.676   3.171  14.102  0.1915 -1.8719 -2.1948
   44DOPE  H15S 5619   2.845   3.190  14.147  0.3593  0.2827 -0.2023
   44DOPE  C216 5620   2.749   3.015  14.240 -0.5538  0.7503 -0.3037
   44DOPE  H16R 5621   2.691   2.923  14.218  1.7152 -0.7612 -0.3615
   44DOPE  H16S 5622   2.697   3.080  14.314  0.3174  1.3060 -0.1617
   44DOPE  C217 5623   2.891   2.967  14.296  0.0887 -0.3296  0.2833
   44DOPE  H17R 5624   2.931   3.045  14.364  2.0987  0.0210 -1.1990
   44DOPE  H17S 5625   2.955   2.964  14.205 -0.6520  1.6868 -0.3779
   44DOPE  C218 5626   2.888   2.831  14.364  0.0002 -0.4497 -0.2014
   44DOPE  H18R 5627   2.885   2.738  14.304 -0.1209 -1.6004  1.5202
   44DOPE  H18S 5628   2.801   2.814  14.432 -0.3057 -0.3135 -0.5560
   44DOPE  H18T 5629   2.981   2.814  14.423 -0.6333  1.5631  1.5203
   44DOPE   C33 5630   3.045   3.818  13.007 -1.1199 -0.7039 -0.5103
   44DOPE   H3X 5631   3.056   3.918  13.056  0.9196 -1.3093  0.3491
   44DOPE   H3Y 5632   3.121   3.755  13.058  0.7411  0.6491 -1.4683
   44DOPE   C34 5633   2.906   3.777  13.042 -0.0129 -0.2802  0.1334
   44DOPE   H4X 5634   2.839   3.829  12.970 -2.9548  1.4362  3.7274
   44DOPE   H4Y 5635   2.897   3.669  13.017 -0.1520 -0.4561  0.8995
   44DOPE   C35 5636   2.866   3.823  13.181 -0.4039  0.2181  0.8264
   44DOPE   H5X 5637   2.760   3.799  13.203 -0.5485 -1.1585 -1.1365
   44DOPE   H5Y 5638   2.893   3.930  13.196  0.1486  0.1304  0.4990
   44DOPE   C36 5639   2.941   3.735  13.278 -1.0999 -0.0486 -0.5178
   44DOPE   H6X 5640   3.051   3.752  13.278 -1.3226  2.4026  2.4000
   44DOPE   H6Y 5641   2.935   3.630  13.243  2.2496 -0.4462 -0.2833
   44DOPE   C37 5642   2.904   3.749  13.429  0.2690  0.2887  0.2543
   44DOPE   H7X 5643   2.794   3.736  13.436  0.1075  1.1867 -0.5797
   44DOPE   H7Y 5644   2.950   3.662  13.482  0.7766  1.2194  1.3728
   44DOPE   C38 5645   2.943   3.880  13.500  0.1452 -0.2115 -0.0352
   44DOPE   H8X 5646   2.896   3.866  13.599  0.6854  0.4416  0.3233
   44DOPE   H8Y 5647   2.890   3.960  13.444  0.2334 -0.3039 -0.2556
   44DOPE   C39 5648   3.087   3.912  13.512 -0.4131  0.4640 -0.2921
   44DOPE   H9X 5649   3.149   3.855  13.442 -0.7496  0.0616 -0.2632
   44DOPE  C310 5650   3.139   3.990  13.608  0.1045 -0.6216  0.3097
   44DOPE  H10X 5651   3.248   4.001  13.614 -0.0426  0.4380  1.3193
   44DOPE  C311 5652   3.059   4.057  13.722 -0.1443 -0.6459 -0.2584
   44DOPE  H11X 5653   3.072   4.167  13.730 -1.5370 -0.5342  0.8935
   44DOPE  H11Y 5654   2.948   4.047  13.719 -0.4821  1.9845  0.3477
   44DOPE  C312 5655   3.097   4.010  13.862  0.2667 -0.1554 -0.7619
   44DOPE  H12X 5656   3.208   4.000  13.870  0.2020 -0.4546 -0.1837
   44DOPE  H12Y 5657   3.054   3.909  13.882 -2.5798  0.4399 -3.2423
   44DOPE  C313 5658   3.046   4.093  13.982 -0.8489 -0.2012 -0.1657
   44DOPE  H13X 5659   3.098   4.191  13.985 -2.6334  0.7896 -0.1875
   44DOPE  H13Y 5660   2.938   4.112  13.965 -0.4310  2.2812 -0.4140
   44DOPE  C314 5661   3.056   4.015  14.117 -0.2595 -0.1514 -0.3871
   44DOPE  H14X 5662   3.005   3.917  14.106 -0.5127  0.2239 -3.7436
   44DOPE  H14Y 5663   2.999   4.080  14.187  0.4946  0.1512 -0.0501
   44DOPE  C315 5664   3.201   3.977  14.155  0.7176 -0.1675  0.4201
   44DOPE  H15X 5665   3.250   4.072  14.187 -1.5081  0.8828  0.8926
   44DOPE  H15Y 5666   3.252   3.934  14.066  1.0775  0.1534  0.4659
   44DOPE  C316 5667   3.202   3.876  14.266 -0.6244 -0.5132  0.1589
   44DOPE  H16X 5668   3.300   3.824  14.256  0.8724  2.4488 -2.1716
   44DOPE  H16Y 5669   3.126   3.797  14.247 -1.4017 -0.1978  1.7425
   44DOPE  C317 5670   3.178   3.952  14.398  0.1243  0.6276 -0.0142
   44DOPE  H17X 5671   3.272   4.008  14.419 -0.5695  1.8290  0.0165
   44DOPE  H17Y 5672   3.095   4.023  14.377  1.0170  1.6688 -0.1118
   44DOPE  C318 5673   3.167   3.846  14.512  0.4002  0.5501 -0.7820
   44DOPE  H18X 5674   3.088   3.771  14.492  1.9751 -1.1716 -0.7949
   44DOPE  H18Y 5675   3.262   3.791  14.532  0.2992  0.2137 -1.2229
   44DOPE  H18Z 5676   3.146   3.908  14.602  0.2540 -0.7962  0.1391
   45DOPE     N 5677   3.561   1.285  12.510  0.2939  0.2442  0.1442
   45DOPE   HN1 5678   3.559   1.184  12.535 -0.9814  0.6396  1.8298
   45DOPE   HN2 5679   3.507   1.303  12.423 -2.4881 -1.5849  1.3685
   45DOPE   HN3 5680   3.662   1.304  12.491  0.6153 -2.6284 -1.6520
   45DOPE   C12 5681   3.498   1.362  12.616 -0.3928  0.2882 -0.4774
   45DOPE  H12A 5682   3.557   1.342  12.708 -0.4019 -1.6291 -0.8401
   45DOPE  H12B 5683   3.395   1.320  12.623 -0.5442 -0.0250 -3.2366
   45DOPE   C11 5684   3.488   1.518  12.591 -0.5296  0.4684 -0.8942
   45DOPE  H11A 5685   3.590   1.560  12.597  0.5596 -2.1294  0.3612
   45DOPE  H11B 5686   3.419   1.544  12.674 -1.5348 -2.6108 -0.6167
   45DOPE     P 5687   3.293   1.625  12.447  0.0075  0.2238 -0.3071
   45DOPE   O13 5688   3.177   1.544  12.485  0.3987 -0.2519 -0.4059
   45DOPE   O14 5689   3.285   1.683  12.314  0.2679 -0.5090 -0.9318
   45DOPE   O11 5690   3.320   1.742  12.541  0.1186  0.5216 -0.3610
   45DOPE   O12 5691   3.425   1.542  12.461 -0.0007  0.0638 -0.0142
   45DOPE    C1 5692   3.220   1.829  12.601 -0.7031 -0.4004 -0.0407
   45DOPE    HA 5693   3.144   1.765  12.653 -1.3726  0.8892  0.6203
   45DOPE    HB 5694   3.171   1.885  12.519  0.6938  1.2395  0.1880
   45DOPE    C2 5695   3.277   1.943  12.687  0.3151  0.2885  0.3347
   45DOPE    HS 5696   3.338   1.996  12.611 -1.0935 -0.5855 -1.4811
   45DOPE   O21 5697   3.355   1.891  12.793 -0.2837  0.1449  0.0020
   45DOPE   C21 5698   3.426   1.979  12.863 -0.0452  0.2481  0.3566
   45DOPE   O22 5699   3.471   2.085  12.820  0.1265  0.0376 -0.5043
   45DOPE   C22 5700   3.461   1.919  13.001  0.2528  0.0736  0.6275
   45DOPE   H2R 5701   3.522   1.829  12.979 -1.6647 -1.0925 -0.2323
   45DOPE   H2S 5702   3.366   1.889  13.051 -0.2391  0.9157  0.2282
   45DOPE    C3 5703   3.169   2.054  12.730  0.4715 -0.1578  1.1564
   45DOPE    HX 5704   3.114   2.079  12.637 -0.8899 -3.0308  1.0989
   45DOPE    HY 5705   3.221   2.146  12.763  0.3823  0.3644 -0.0928
   45DOPE   O31 5706   3.075   2.002  12.820  0.9545 -0.2120 -0.3689
   45DOPE   C31 5707   3.083   2.011  12.946 -0.3049 -0.5443  0.2340
   45DOPE   O32 5708   3.171   2.071  13.006  0.5892 -0.3353  0.6119
   45DOPE   C32 5709   2.971   1.933  13.003  0.3166 -0.3600  0.0665
   45DOPE   H2X 5710   2.880   1.969  12.950 -0.5612  1.3006  2.5397
   45DOPE   H2Y 5711   2.990   1.824  12.995 -0.2427 -0.4509 -0.0992
   45DOPE   C23 5712   3.542   2.018  13.093 -0.5136  0.2899 -0.8993
   45DOPE   H3R 5713   3.501   2.118  13.068  0.1767  0.4826 -1.2998
   45DOPE   H3S 5714   3.647   2.017  13.058 -0.6177  0.2760 -1.2069
   45DOPE   C24 5715   3.526   1.998  13.245 -0.1016  0.0823  0.4945
   45DOPE   H4R 5716   3.596   2.071  13.292 -0.3391  1.1665 -0.7492
   45DOPE   H4S 5717   3.573   1.908  13.289  0.9385  0.5930  0.4567
   45DOPE   C25 5718   3.386   2.024  13.300 -0.2658 -0.4111 -0.6620
   45DOPE   H5R 5719   3.319   1.936  13.285 -1.1856  0.2451 -0.5399
   45DOPE   H5S 5720   3.330   2.108  13.253 -0.9805  0.0128  0.8870
   45DOPE   C26 5721   3.394   2.075  13.447 -0.2717  0.1710  0.4405
   45DOPE   H6R 5722   3.453   2.169  13.440  0.8112 -0.4899  0.4589
   45DOPE   H6S 5723   3.449   2.004  13.512 -2.1030  0.7917  2.7974
   45DOPE   C27 5724   3.257   2.100  13.509  0.4357 -0.4947  0.1341
   45DOPE   H7R 5725   3.188   2.015  13.488  2.5179 -2.0530 -0.6961
   45DOPE   H7S 5726   3.215   2.189  13.459  0.7610 -1.0435 -1.1539
   45DOPE   C28 5727   3.246   2.129  13.654 -0.2338 -0.1873 -0.4028
   45DOPE   H8R 5728   3.141   2.163  13.667  0.6138  1.5402  2.9365
   45DOPE   H8S 5729   3.300   2.221  13.683 -0.9220  1.4477 -3.7999
   45DOPE   C29 5730   3.260   2.013  13.750 -0.0268 -0.1507  0.5525
   45DOPE   H9R 5731   3.212   1.917  13.725 -0.0000 -0.1304  0.4183
   45DOPE  C210 5732   3.319   2.009  13.865  0.5130  0.2383 -0.0524
   45DOPE  H10R 5733   3.326   1.918  13.926 -1.1087  0.1298  0.0159
   45DOPE  C211 5734   3.393   2.113  13.936  0.8872 -0.7719  0.1676
   45DOPE  H11R 5735   3.348   2.126  14.037  0.8201 -1.9981  0.3044
   45DOPE  H11S 5736   3.380   2.209  13.882 -1.7733 -0.8859  0.4673
   45DOPE  C212 5737   3.537   2.084  13.971  0.2163 -0.0207  0.5536
   45DOPE  H12R 5738   3.528   1.997  14.039 -1.3910  0.0711  0.5036
   45DOPE  H12S 5739   3.583   2.169  14.026  0.3735  1.6644 -2.0487
   45DOPE  C213 5740   3.630   2.066  13.854 -0.2260  0.2344 -0.8852
   45DOPE  H13R 5741   3.578   1.994  13.787 -2.7098 -0.6146  1.7885
   45DOPE  H13S 5742   3.720   2.006  13.880  0.9350  1.5813 -1.6542
   45DOPE  C214 5743   3.666   2.188  13.780  1.0605  0.1052 -0.0225
   45DOPE  H14R 5744   3.733   2.252  13.843 -0.7879  1.9370  0.2012
   45DOPE  H14S 5745   3.587   2.265  13.772  3.1208  2.2508 -1.1411
   45DOPE  C215 5746   3.722   2.164  13.641 -0.1592  0.6515 -0.2659
   45DOPE  H15R 5747   3.663   2.101  13.572  0.7810 -0.3338 -0.2024
   45DOPE  H15S 5748   3.817   2.107  13.650  0.7721  2.0740 -0.6711
   45DOPE  C216 5749   3.758   2.304  13.578 -0.0209  0.7316 -0.5349
   45DOPE  H16R 5750   3.797   2.368  13.659  1.0132 -0.7373  0.1780
   45DOPE  H16S 5751   3.660   2.345  13.543 -0.2044  1.4953  0.8271
   45DOPE  C217 5752   3.858   2.303  13.461 -0.3782  0.2438  0.0767
   45DOPE  H17R 5753   3.958   2.270  13.494 -0.6954 -0.7960  0.0457
   45DOPE  H17S 5754   3.866   2.410  13.432 -3.1316 -0.0348 -2.0911
   45DOPE  C218 5755   3.805   2.230  13.343  0.7782 -0.1219  0.1427
   45DOPE  H18R 5756   3.860   2.250  13.249 -0.3392 -0.3434 -0.5901
   45DOPE  H18S 5757   3.704   2.270  13.316  0.2822 -0.5611  1.2730
   45DOPE  H18T 5758   3.807   2.120  13.356  0.5110 -0.0462  0.9082
   45DOPE   C33 5759   2.956   1.982  13.147  0.5523 -0.4172 -0.3558
   45DOPE   H3X 5760   2.934   2.091  13.148 -1.3684 -0.7613  1.0136
   45DOPE   H3Y 5761   3.048   1.969  13.209  1.3094  1.6609 -0.9557
   45DOPE   C34 5762   2.842   1.906  13.224  0.1898 -0.1478  0.0362
   45DOPE   H4X 5763   2.759   1.877  13.156 -0.5547  1.6542  0.1325
   45DOPE   H4Y 5764   2.881   1.812  13.269  0.2503  0.8211  2.1001
   45DOPE   C35 5765   2.790   1.983  13.344 -0.9766 -1.1247 -0.0413
   45DOPE   H5X 5766   2.699   1.934  13.386 -0.8593 -0.3520  1.1620
   45DOPE   H5Y 5767   2.769   2.086  13.308  0.1690 -1.2273 -1.0921
   45DOPE   C36 5768   2.885   1.990  13.461 -0.4720  0.2330 -0.2547
   45DOPE   H6X 5769   2.912   2.096  13.480 -2.5712  0.4891  1.7383
   45DOPE   H6Y 5770   2.984   1.944  13.438 -0.0360  0.4528  1.0689
   45DOPE   C37 5771   2.831   1.923  13.584 -0.5966  0.6475 -0.2057
   45DOPE   H7X 5772   2.725   1.957  13.594 -0.0020  2.4851  0.2191
   45DOPE   H7Y 5773   2.820   1.813  13.571  1.2688  0.1374  1.8613
   45DOPE   C38 5774   2.918   1.944  13.709 -0.3107  0.0878 -0.0180
   45DOPE   H8X 5775   2.945   2.051  13.712 -0.2963  0.2117 -2.4107
   45DOPE   H8Y 5776   3.008   1.879  13.700 -1.5998 -1.6340 -0.9992
   45DOPE   C39 5777   2.848   1.906  13.841 -0.0779  0.1378  0.3892
   45DOPE   H9X 5778   2.826   1.799  13.844  0.8662 -0.0450  1.3510
   45DOPE  C310 5779   2.813   1.988  13.943 -0.2776 -1.0461 -0.2636
   45DOPE  H10X 5780   2.776   1.935  14.032  1.0047 -1.6508 -0.0707
   45DOPE  C311 5781   2.841   2.140  13.958  0.1625  0.6204  0.2263
   45DOPE  H11X 5782   2.848   2.187  13.857 -0.3019 -0.9598 -0.5822
   45DOPE  H11Y 5783   2.751   2.180  14.008 -0.2013 -0.0373  0.1065
   45DOPE  C312 5784   2.961   2.159  14.053  0.5738 -0.0925  0.4364
   45DOPE  H12X 5785   2.978   2.268  14.064 -1.7783  0.5040 -1.2596
   45DOPE  H12Y 5786   3.049   2.105  14.010  0.4001  1.2647 -1.7789
   45DOPE  C313 5787   2.937   2.107  14.198 -0.5533  0.0129  0.0956
   45DOPE  H13X 5788   2.848   2.160  14.238  1.2741  2.7338  0.7814
   45DOPE  H13Y 5789   2.917   1.999  14.183 -0.9829 -0.0389  0.9849
   45DOPE  C314 5790   3.055   2.125  14.297  0.0163  0.9291  0.4595
   45DOPE  H14X 5791   3.014   2.130  14.400 -1.0247  0.4043  0.0783
   45DOPE  H14Y 5792   3.109   2.219  14.270 -0.2012  0.9846  0.2249
   45DOPE  C315 5793   3.165   2.014  14.278 -0.6223  0.1828  0.4919
   45DOPE  H15X 5794   3.189   2.001  14.170 -1.6642  2.4821 -0.0789
   45DOPE  H15Y 5795   3.128   1.923  14.330 -0.4250  1.0857  2.2778
   45DOPE  C316 5796   3.297   2.045  14.358  0.1636 -0.5162 -0.3698
   45DOPE  H16X 5797   3.346   2.143  14.336  3.1182 -1.5496  1.0719
   45DOPE  H16Y 5798   3.372   1.967  14.331  0.8706 -0.2292  0.6944
   45DOPE  C317 5799   3.286   2.039  14.517 -0.0233  0.6151 -0.6731
   45DOPE  H17X 5800   3.216   2.119  14.549 -0.3499  0.1150 -0.1276
   45DOPE  H17Y 5801   3.233   1.942  14.525 -1.8613  1.6186  0.0767
   45DOPE  C318 5802   3.422   2.046  14.578  0.2557  0.6425 -0.0487
   45DOPE  H18X 5803   3.418   2.044  14.689 -1.3143 -1.8176 -0.0762
   45DOPE  H18Y 5804   3.479   1.958  14.540 -1.8722  0.0134 -2.0230
   45DOPE  H18Z 5805   3.463   2.146  14.555  2.6398 -0.2203  0.1713
   46DOPE     N 5806   2.999   0.680  11.898  0.0801 -0.0594 -0.5495
   46DOPE   HN1 5807   3.034   0.695  11.995  0.0483  2.6089 -0.8624
   46DOPE   HN2 5808   3.074   0.656  11.830  0.4511 -1.2970  0.2646
   46DOPE   HN3 5809   2.946   0.763  11.866  1.7211  0.2987 -2.5467
   46DOPE   C12 5810   2.893   0.572  11.905  1.2855  0.1667 -0.3097
   46DOPE  H12A 5811   2.851   0.565  11.802 -0.6255  2.9727  0.1776
   46DOPE  H12B 5812   2.812   0.608  11.971  0.6406 -0.0033 -0.9954
   46DOPE   C11 5813   2.964   0.444  11.960  0.1972 -0.8220 -0.2091
   46DOPE  H11A 5814   3.024   0.399  11.878 -1.4397  1.0992 -2.5971
   46DOPE  H11B 5815   2.882   0.370  11.977 -3.0433  1.9595 -2.4101
   46DOPE     P 5816   3.138   0.385  12.143 -0.1671  0.1276 -0.1390
   46DOPE   O13 5817   3.208   0.454  12.251  0.2200 -0.6072 -0.1591
   46DOPE   O14 5818   3.217   0.323  12.030  0.0449  0.3573 -0.1440
   46DOPE   O11 5819   3.051   0.267  12.203  0.3932  0.2781 -0.2198
   46DOPE   O12 5820   3.025   0.482  12.085 -0.3345  0.0780  0.3698
   46DOPE    C1 5821   2.925   0.293  12.266  0.1610  0.2135 -0.0780
   46DOPE    HA 5822   2.880   0.195  12.295 -0.6010  1.0545  1.7784
   46DOPE    HB 5823   2.856   0.342  12.194 -0.3446 -1.6746 -0.9450
   46DOPE    C2 5824   2.917   0.395  12.391  0.6452  0.3191 -0.4892
   46DOPE    HS 5825   2.950   0.490  12.344 -0.1717 -0.1135 -1.9920
   46DOPE   O21 5826   3.010   0.353  12.497 -0.2458  0.1967  0.0775
   46DOPE   C21 5827   3.037   0.436  12.595 -1.0212 -0.1416 -0.5725
   46DOPE   O22 5828   2.984   0.547  12.601  0.1391  0.2121  0.6231
   46DOPE   C22 5829   3.142   0.382  12.684  0.0997  0.3862 -0.3690
   46DOPE   H2R 5830   3.242   0.362  12.638  0.6005 -0.5513  1.0623
   46DOPE   H2S 5831   3.111   0.285  12.729 -1.8580  0.5537 -1.2511
   46DOPE    C3 5832   2.770   0.414  12.441  0.2532 -0.3737 -0.5508
   46DOPE    HX 5833   2.703   0.453  12.361  0.5649 -0.6032 -0.9292
   46DOPE    HY 5834   2.777   0.503  12.507 -0.1017 -0.3497 -0.5470
   46DOPE   O31 5835   2.725   0.296  12.503 -0.0587  0.7485  0.2648
   46DOPE   C31 5836   2.620   0.326  12.579 -0.5461  0.6252  0.2436
   46DOPE   O32 5837   2.571   0.438  12.590 -0.4531  0.0221 -0.4282
   46DOPE   C32 5838   2.554   0.211  12.644 -0.6481  0.4443 -0.4021
   46DOPE   H2X 5839   2.455   0.199  12.595  0.1567  0.8399 -2.2241
   46DOPE   H2Y 5840   2.614   0.119  12.622  0.2314  1.3026 -1.7120
   46DOPE   C23 5841   3.174   0.486  12.795 -0.2850  0.7474  0.2145
   46DOPE   H3R 5842   3.181   0.592  12.760  0.6312  0.8109  0.5406
   46DOPE   H3S 5843   3.271   0.451  12.838  1.2063  1.7006 -2.1606
   46DOPE   C24 5844   3.071   0.490  12.905  0.2706 -0.1481  0.1101
   46DOPE   H4R 5845   3.074   0.395  12.961 -1.4179 -0.6526 -0.5944
   46DOPE   H4S 5846   2.969   0.501  12.862 -0.2805  0.5929  1.5599
   46DOPE   C25 5847   3.079   0.619  12.988  0.6873 -0.2554 -0.1438
   46DOPE   H5R 5848   3.049   0.701  12.919 -0.7187 -1.7165 -1.3426
   46DOPE   H5S 5849   3.183   0.629  13.027  1.3781 -0.3930 -1.8807
   46DOPE   C26 5850   2.982   0.615  13.111 -0.4958 -0.0922  0.7360
   46DOPE   H6R 5851   2.878   0.588  13.081 -1.2792  3.6747 -0.5361
   46DOPE   H6S 5852   2.977   0.718  13.154  0.9446  0.9845 -1.4898
   46DOPE   C27 5853   3.031   0.515  13.216  0.8230 -0.0592  0.1604
   46DOPE   H7R 5854   3.142   0.520  13.220  0.8666  0.9512 -1.3343
   46DOPE   H7S 5855   3.004   0.412  13.186  1.3809 -0.1461 -0.0633
   46DOPE   C28 5856   2.978   0.542  13.362 -0.0131  0.2050 -0.1153
   46DOPE   H8R 5857   3.006   0.452  13.419 -2.3031  1.0962  2.6768
   46DOPE   H8S 5858   2.867   0.541  13.363 -0.0194 -0.5316  1.8576
   46DOPE   C29 5859   3.045   0.669  13.418  0.1397  0.2057 -0.0204
   46DOPE   H9R 5860   3.024   0.755  13.353 -0.9522 -0.5349 -0.6789
   46DOPE  C210 5861   3.102   0.682  13.541 -1.0451  0.1405  0.3970
   46DOPE  H10R 5862   3.126   0.783  13.576  2.1996 -0.2358 -0.3877
   46DOPE  C211 5863   3.130   0.567  13.639  0.0196  0.1893 -0.0825
   46DOPE  H11R 5864   3.211   0.505  13.596  0.3038  1.1927 -1.0588
   46DOPE  H11S 5865   3.035   0.511  13.655 -0.1766 -0.4158 -2.8711
   46DOPE  C212 5866   3.180   0.621  13.776 -0.1434  0.3364  0.1072
   46DOPE  H12R 5867   3.100   0.687  13.815  0.4827  1.4647 -0.4931
   46DOPE  H12S 5868   3.273   0.677  13.752  1.7422 -2.4718  0.3604
   46DOPE  C213 5869   3.213   0.502  13.868  0.0211  0.0490  0.0674
   46DOPE  H13R 5870   3.274   0.435  13.805  0.2951 -0.4620  0.8667
   46DOPE  H13S 5871   3.122   0.448  13.900  0.0239  0.9276  1.6593
   46DOPE  C214 5872   3.295   0.548  13.989  0.1621  0.6079  0.6957
   46DOPE  H14R 5873   3.381   0.615  13.965  1.1797 -1.1829 -0.9138
   46DOPE  H14S 5874   3.339   0.461  14.041  2.2918 -0.2813 -2.3030
   46DOPE  C215 5875   3.204   0.614  14.094  1.1325 -0.5755 -0.1512
   46DOPE  H15R 5876   3.130   0.538  14.126  0.9178 -0.4175 -0.2699
   46DOPE  H15S 5877   3.146   0.697  14.048 -1.8971 -3.3697 -1.8443
   46DOPE  C216 5878   3.280   0.678  14.210  0.0248  0.6698  0.2075
   46DOPE  H16R 5879   3.211   0.739  14.271  0.6227  1.2330  0.3316
   46DOPE  H16S 5880   3.340   0.753  14.154  0.0351  0.8704  0.4900
   46DOPE  C217 5881   3.367   0.575  14.284  0.5364 -0.1336 -0.3269
   46DOPE  H17R 5882   3.451   0.538  14.220 -0.3339 -1.6624 -0.6375
   46DOPE  H17S 5883   3.305   0.490  14.319 -0.7197  0.9112  0.0299
   46DOPE  C218 5884   3.429   0.627  14.414 -0.6682  0.0695 -0.1482
   46DOPE  H18R 5885   3.339   0.657  14.472 -0.1555 -0.0391  0.7318
   46DOPE  H18S 5886   3.487   0.717  14.386 -0.6401  0.1039  0.0144
   46DOPE  H18T 5887   3.497   0.557  14.466  0.2362  0.9547 -0.1038
   46DOPE   C33 5888   2.552   0.248  12.793  0.2702 -0.1023  0.8174
   46DOPE   H3X 5889   2.489   0.176  12.849 -1.0585  0.0059 -0.4682
   46DOPE   H3Y 5890   2.506   0.348  12.809  1.3087  0.1375  2.5971
   46DOPE   C34 5891   2.686   0.229  12.860  0.4609 -0.5053 -0.6633
   46DOPE   H4X 5892   2.730   0.134  12.824 -0.9610 -1.8904  1.0926
   46DOPE   H4Y 5893   2.757   0.311  12.832  0.3614 -0.8003 -1.8415
   46DOPE   C35 5894   2.673   0.215  13.010  0.5044 -0.5055 -0.0933
   46DOPE   H5X 5895   2.601   0.131  13.016 -1.1181  0.1687 -5.1854
   46DOPE   H5Y 5896   2.631   0.315  13.036  0.8425 -0.1351 -0.9469
   46DOPE   C36 5897   2.803   0.198  13.089  0.3061  0.1287 -0.2758
   46DOPE   H6X 5898   2.861   0.280  13.043 -0.5726 -0.1196 -1.8767
   46DOPE   H6Y 5899   2.833   0.093  13.068  0.6133  0.0414  0.5286
   46DOPE   C37 5900   2.774   0.205  13.240  0.7580 -0.3410 -0.8383
   46DOPE   H7X 5901   2.768   0.314  13.263  0.7178 -0.4664 -0.2405
   46DOPE   H7Y 5902   2.675   0.155  13.242 -0.7803  2.4002 -2.5553
   46DOPE   C38 5903   2.874   0.156  13.341 -0.6610 -0.4924  0.0487
   46DOPE   H8X 5904   2.857   0.204  13.440  1.3021  3.0544 -1.1574
   46DOPE   H8Y 5905   2.969   0.199  13.304 -0.5727 -1.5176 -0.9446
   46DOPE   C39 5906   2.875   0.008  13.342 -0.5731 -0.2584  0.8521
   46DOPE   H9X 5907   2.905  -0.043  13.249 -1.9461  0.5130 -0.0489
   46DOPE  C310 5908   2.847  -0.068  13.446 -0.2902  0.3200  0.4800
   46DOPE  H10X 5909   2.871  -0.170  13.413 -0.9356  0.5019 -0.6069
   46DOPE  C311 5910   2.811  -0.034  13.589  0.6612 -0.5075 -0.5926
   46DOPE  H11X 5911   2.717   0.025  13.582 -1.9248 -4.1854  0.3916
   46DOPE  H11Y 5912   2.779  -0.123  13.646  0.7244 -0.3980 -0.3845
   46DOPE  C312 5913   2.919   0.028  13.664  0.4621 -0.4154  0.0646
   46DOPE  H12X 5914   2.947   0.123  13.613 -2.6130  0.7603  0.3252
   46DOPE  H12Y 5915   3.001  -0.047  13.672  0.4237 -0.5851 -1.0185
   46DOPE  C313 5916   2.867   0.066  13.805 -1.2947  0.8947  0.0708
   46DOPE  H13X 5917   2.786   0.141  13.794 -0.4533  1.4941 -3.0404
   46DOPE  H13Y 5918   2.835  -0.023  13.864 -0.0625  1.0484  1.0140
   46DOPE  C314 5919   2.981   0.114  13.893  0.4280  0.2418  0.6539
   46DOPE  H14X 5920   3.039   0.192  13.840  0.8303  0.5308  1.4956
   46DOPE  H14Y 5921   3.052   0.031  13.914  0.1497 -0.1712 -0.0084
   46DOPE  C315 5922   2.941   0.164  14.026  0.3047  0.5947  0.2549
   46DOPE  H15X 5923   2.896   0.082  14.086  0.3529  0.2860 -0.1297
   46DOPE  H15Y 5924   2.877   0.253  14.006  0.0467  0.5006  0.6526
   46DOPE  C316 5925   3.055   0.223  14.108  0.6248 -0.1047 -0.4737
   46DOPE  H16X 5926   3.089   0.318  14.061 -0.1237  0.6763  0.5095
   46DOPE  H16Y 5927   3.149   0.165  14.100  0.6244 -0.2018  0.1927
   46DOPE  C317 5928   3.026   0.229  14.252 -0.4034  0.0140 -0.5546
   46DOPE  H17X 5929   3.066   0.321  14.300 -0.0561  0.3746 -1.5053
   46DOPE  H17Y 5930   2.916   0.229  14.267 -0.2832 -1.6770  0.5666
   46DOPE  C318 5931   3.083   0.103  14.326 -0.4597  0.0135 -0.2493
   46DOPE  H18X 5932   3.066   0.117  14.435 -0.9644 -1.0343 -0.1828
   46DOPE  H18Y 5933   3.038   0.009  14.287 -1.3643  0.2946  0.0884
   46DOPE  H18Z 5934   3.194   0.095  14.317 -0.5935 -0.9930 -1.1038
   47DOPE     N 5935   0.903   6.595  12.790 -0.5480  0.7466  0.2776
   47DOPE   HN1 5936   0.808   6.561  12.812 -1.0791  1.8119 -0.2782
   47DOPE   HN2 5937   0.976   6.534  12.832  0.7543  1.6799 -0.5512
   47DOPE   HN3 5938   0.906   6.691  12.831 -0.3974  1.6770 -1.7599
   47DOPE   C12 5939   0.913   6.588  12.636  0.1038 -0.7600 -0.1805
   47DOPE  H12A 5940   0.988   6.665  12.607 -0.6118 -0.2265 -0.6384
   47DOPE  H12B 5941   0.810   6.607  12.601  0.5417 -0.2985 -1.2671
   47DOPE   C11 5942   0.948   6.441  12.603 -0.6373  0.1920  0.0215
   47DOPE  H11A 5943   1.057   6.426  12.623 -0.9047  0.9803  2.3182
   47DOPE  H11B 5944   0.948   6.431  12.492 -0.3454  2.2007 -0.2045
   47DOPE     P 5945   0.838   6.200  12.616  0.0324 -0.0952 -0.7199
   47DOPE   O13 5946   0.961   6.144  12.553 -0.8885  0.0072 -0.0626
   47DOPE   O14 5947   0.713   6.201  12.538 -0.5910  0.8781  0.3983
   47DOPE   O11 5948   0.811   6.112  12.744 -0.3507 -0.4235 -0.1602
   47DOPE   O12 5949   0.866   6.344  12.669  0.2176 -0.5455 -0.2705
   47DOPE    C1 5950   0.741   6.173  12.851  0.0012 -0.0979 -0.1005
   47DOPE    HA 5951   0.670   6.100  12.896 -0.5012 -1.0822 -2.3335
   47DOPE    HB 5952   0.667   6.251  12.824 -2.3887 -2.4920 -0.9671
   47DOPE    C2 5953   0.836   6.229  12.968  0.3627  0.0183 -0.0450
   47DOPE    HS 5954   0.905   6.300  12.917  0.4505  0.0613  0.1346
   47DOPE   O21 5955   0.895   6.118  13.033  0.5586  0.3389 -0.6736
   47DOPE   C21 5956   1.023   6.121  13.055 -0.6848 -0.3484  0.2036
   47DOPE   O22 5957   1.096   6.221  13.046 -0.0708  0.2055  0.4365
   47DOPE   C22 5958   1.077   5.988  13.105 -1.0515  0.2443 -0.6888
   47DOPE   H2R 5959   1.096   5.926  13.015  0.8250  1.1015 -0.9339
   47DOPE   H2S 5960   1.005   5.939  13.174 -1.0393  1.9709  0.6111
   47DOPE    C3 5961   0.754   6.321  13.075 -0.2387  0.3226  0.2982
   47DOPE    HX 5962   0.728   6.244  13.151  1.4929  0.6915  1.2942
   47DOPE    HY 5963   0.658   6.360  13.035  0.5258  0.3150 -1.6341
   47DOPE   O31 5964   0.839   6.431  13.118 -0.5022  0.6418  0.0280
   47DOPE   C31 5965   0.906   6.409  13.234 -0.1589  1.1758  0.3638
   47DOPE   O32 5966   0.892   6.309  13.302 -0.0347  0.9470  0.1435
   47DOPE   C32 5967   0.998   6.527  13.273  0.1679 -0.3015 -0.2765
   47DOPE   H2X 5968   1.104   6.494  13.275  1.2059  2.6100 -1.5475
   47DOPE   H2Y 5969   0.982   6.601  13.191 -1.0436  1.1426  1.1887
   47DOPE   C23 5970   1.223   6.000  13.170  0.6815  0.0847  0.4043
   47DOPE   H3R 5971   1.302   6.039  13.102 -0.2454  1.3354 -0.0016
   47DOPE   H3S 5972   1.244   5.896  13.202 -4.3484 -1.4405 -0.2745
   47DOPE   C24 5973   1.223   6.083  13.302  0.7310 -0.2126  0.0739
   47DOPE   H4R 5974   1.213   6.191  13.276  1.0463 -0.0253  0.6944
   47DOPE   H4S 5975   1.325   6.064  13.341 -0.0891 -0.3840  2.2618
   47DOPE   C25 5976   1.122   6.048  13.414  0.3160  0.3752 -0.6940
   47DOPE   H5R 5977   1.134   5.941  13.441 -1.4055  0.0082 -1.2367
   47DOPE   H5S 5978   1.016   6.048  13.382 -0.2561 -2.1555  0.9510
   47DOPE   C26 5979   1.132   6.142  13.530 -0.8943  0.1238  0.3905
   47DOPE   H6R 5980   1.139   6.241  13.480 -2.9019 -0.0334 -0.3016
   47DOPE   H6S 5981   1.220   6.120  13.594 -0.5778 -0.7967 -0.3475
   47DOPE   C27 5982   1.011   6.143  13.628  0.9861  0.7193 -0.1051
   47DOPE   H7R 5983   0.980   6.040  13.657  2.6866  0.0546 -0.5198
   47DOPE   H7S 5984   0.925   6.187  13.575  0.6060 -2.2228 -2.2123
   47DOPE   C28 5985   1.040   6.212  13.764  0.2259  0.4411  1.5174
   47DOPE   H8R 5986   0.937   6.229  13.801 -1.1946 -2.0574 -0.9159
   47DOPE   H8S 5987   1.076   6.314  13.740  0.0273  0.3704  0.9068
   47DOPE   C29 5988   1.130   6.130  13.849  0.0283  0.3331  0.1580
   47DOPE   H9R 5989   1.230   6.122  13.803 -0.0815  0.0787 -0.0470
   47DOPE  C210 5990   1.099   6.082  13.971  0.4049 -0.0880 -0.2619
   47DOPE  H10R 5991   1.175   6.017  14.018  0.3226  1.0123  1.4735
   47DOPE  C211 5992   0.965   6.083  14.030  0.1432 -0.2503  0.3260
   47DOPE  H11R 5993   0.910   5.988  14.012  1.9472 -1.2815 -0.0586
   47DOPE  H11S 5994   0.893   6.151  13.980  0.4522 -0.2878 -0.1722
   47DOPE  C212 5995   0.968   6.114  14.183 -0.0462 -0.3724  0.3347
   47DOPE  H12R 5996   0.993   6.017  14.230  2.9285  0.7679  1.3326
   47DOPE  H12S 5997   0.866   6.138  14.221  1.1232  2.7382  1.8726
   47DOPE  C213 5998   1.065   6.225  14.236  0.1520  0.3261  0.0911
   47DOPE  H13R 5999   1.042   6.313  14.173 -1.1232  0.3896  0.6272
   47DOPE  H13S 6000   1.168   6.183  14.233  0.1676  0.1034  2.4357
   47DOPE  C214 6001   1.039   6.261  14.387 -0.2617 -0.5447  0.2144
   47DOPE  H14R 6002   0.933   6.277  14.415  0.0137  0.1713  0.8990
   47DOPE  H14S 6003   1.094   6.358  14.392 -1.0290 -0.1395  0.9187
   47DOPE  C215 6004   1.098   6.158  14.486 -0.7509 -0.2542 -0.1821
   47DOPE  H15R 6005   1.196   6.119  14.451 -0.2681  0.1067  0.7304
   47DOPE  H15S 6006   1.030   6.071  14.494  0.3073 -1.2101 -1.1093
   47DOPE  C216 6007   1.126   6.222  14.620 -0.1726  0.6652  0.0679
   47DOPE  H16R 6008   1.050   6.301  14.636  0.1731  0.9290  0.4183
   47DOPE  H16S 6009   1.225   6.272  14.618  0.2658  0.0717  2.9023
   47DOPE  C217 6010   1.131   6.109  14.729  0.0462  0.2045  0.9650
   47DOPE  H17R 6011   1.215   6.041  14.702  0.1024  0.3768  0.6924
   47DOPE  H17S 6012   1.039   6.048  14.724 -0.3919  0.9459 -1.9069
   47DOPE  C218 6013   1.147   6.169  14.867  0.8122 -0.6943 -0.1000
   47DOPE  H18R 6014   1.049   6.203  14.907  1.0527 -1.0896  0.8475
   47DOPE  H18S 6015   1.220   6.252  14.871  0.0468  0.0289 -0.6383
   47DOPE  H18T 6016   1.183   6.097  14.943 -0.5570 -0.3634  0.9028
   47DOPE   C33 6017   0.960   6.602  13.409  0.0118 -0.2538 -0.4311
   47DOPE   H3X 6018   0.955   6.520  13.484 -0.8430 -1.4476 -1.7557
   47DOPE   H3Y 6019   0.856   6.640  13.399 -0.4813 -0.7670  1.9236
   47DOPE   C34 6020   1.057   6.717  13.446 -0.2213  0.3419 -0.3667
   47DOPE   H4X 6021   1.162   6.681  13.446 -1.0776 -2.5204  1.8515
   47DOPE   H4Y 6022   1.047   6.795  13.367  1.1163  1.3505  0.4251
   47DOPE   C35 6023   1.043   6.792  13.580 -0.1247  0.2621  0.5108
   47DOPE   H5X 6024   0.946   6.844  13.597  0.9988  2.1169  1.6357
   47DOPE   H5Y 6025   1.124   6.868  13.576  1.2272 -1.1155  0.7756
   47DOPE   C36 6026   1.080   6.698  13.695  0.1324  0.7526 -1.1331
   47DOPE   H6X 6027   1.169   6.632  13.689  0.4398  0.3125  3.8043
   47DOPE   H6Y 6028   1.000   6.621  13.704  1.9891 -1.0606  1.3893
   47DOPE   C37 6029   1.092   6.770  13.825 -0.2635  0.0460 -0.1057
   47DOPE   H7X 6030   1.170   6.848  13.817  0.0468 -0.2583 -0.0824
   47DOPE   H7Y 6031   1.000   6.831  13.842 -0.1998  0.3875 -0.9308
   47DOPE   C38 6032   1.133   6.679  13.945  0.5471 -0.5563  0.1301
   47DOPE   H8X 6033   1.128   6.743  14.035 -3.0033  1.1156 -1.0591
   47DOPE   H8Y 6034   1.239   6.653  13.927  1.0336  0.0336  2.0030
   47DOPE   C39 6035   1.053   6.555  13.974 -0.0929 -0.0012  0.3303
   47DOPE   H9X 6036   1.086   6.466  13.919 -0.3469 -0.5561  1.0503
   47DOPE  C310 6037   0.951   6.553  14.063  0.2040 -0.3850 -0.5938
   47DOPE  H10X 6038   0.908   6.453  14.076 -1.0447  0.2827  0.6221
   47DOPE  C311 6039   0.901   6.653  14.163 -0.8108 -0.2653  0.1934
   47DOPE  H11X 6040   0.959   6.747  14.152  0.6315 -1.2195 -0.8543
   47DOPE  H11Y 6041   0.795   6.670  14.138 -0.4947  0.0991 -0.9797
   47DOPE  C312 6042   0.940   6.607  14.301  0.2395 -0.3469 -0.1581
   47DOPE  H12X 6043   0.932   6.496  14.310  1.8577 -0.6865 -2.0417
   47DOPE  H12Y 6044   0.878   6.659  14.376 -0.1636  1.1918 -1.4924
   47DOPE  C313 6045   1.087   6.650  14.327  0.4723  0.0533  0.2752
   47DOPE  H13X 6046   1.148   6.593  14.254 -1.2246 -0.3029 -0.9328
   47DOPE  H13Y 6047   1.113   6.755  14.304 -0.1678  0.3276  0.7751
   47DOPE  C314 6048   1.131   6.629  14.471 -0.2910 -0.3591  0.1957
   47DOPE  H14X 6049   1.241   6.633  14.480 -0.3635  4.0408  1.3710
   47DOPE  H14Y 6050   1.085   6.532  14.501  0.6973 -1.4079 -1.5041
   47DOPE  C315 6051   1.074   6.736  14.563  1.5714  0.3546  0.5640
   47DOPE  H15X 6052   0.967   6.708  14.577  1.8909 -0.9254  0.5360
   47DOPE  H15Y 6053   1.070   6.834  14.510  1.2592 -0.1268 -0.3205
   47DOPE  C316 6054   1.132   6.746  14.699 -0.6450  0.0541  0.1270
   47DOPE  H16X 6055   1.070   6.804  14.771  0.4137  1.2342  0.1208
   47DOPE  H16Y 6056   1.232   6.791  14.685 -0.3747 -0.1761  1.2373
   47DOPE  C317 6057   1.153   6.608  14.761 -0.2160  0.2807 -0.0542
   47DOPE  H17X 6058   1.217   6.537  14.703 -1.0610 -1.5206  1.1120
   47DOPE  H17Y 6059   1.207   6.613  14.858 -0.7715 -0.4987  0.3034
   47DOPE  C318 6060   1.015   6.548  14.796 -0.0748  0.2904  0.0451
   47DOPE  H18X 6061   0.945   6.626  14.831 -0.5328  0.7442 -1.8056
   47DOPE  H18Y 6062   0.964   6.504  14.708  2.2758 -1.1301 -0.7172
   47DOPE  H18Z 6063   1.018   6.478  14.883  0.9898 -0.7970 -0.8247
   48DOPE     N 6064   5.936   1.885  12.701 -0.4359 -0.1558  0.1158
   48DOPE   HN1 6065   5.872   1.949  12.752 -0.7830 -0.4771  0.0854
   48DOPE   HN2 6066   5.887   1.797  12.676  1.2781 -0.6210 -1.9600
   48DOPE   HN3 6067   6.018   1.859  12.759 -1.4446 -0.1775  1.5776
   48DOPE   C12 6068   5.969   1.945  12.565 -0.0860 -0.1933 -0.2805
   48DOPE  H12A 6069   5.875   1.971  12.512 -1.0629 -1.6284  0.6591
   48DOPE  H12B 6070   6.028   1.872  12.506 -0.5148 -0.9980  0.2667
   48DOPE   C11 6071   6.064   2.062  12.586 -0.0697 -0.4063 -0.0640
   48DOPE  H11A 6072   6.010   2.153  12.621  0.3971 -0.4661  0.8636
   48DOPE  H11B 6073   6.096   2.091  12.484 -3.2149  0.2488 -0.9729
   48DOPE     P 6074   6.323   2.040  12.635 -0.4279  0.0273 -0.1932
   48DOPE   O13 6075   6.331   2.129  12.521 -0.2715 -0.5058  0.0120
   48DOPE   O14 6076   6.378   1.903  12.609 -0.1498 -0.0199  0.0711
   48DOPE   O11 6077   6.398   2.104  12.753 -0.7708  0.2243  0.0132
   48DOPE   O12 6078   6.172   2.033  12.681 -0.3569  0.3299  0.1969
   48DOPE    C1 6079   6.337   2.190  12.852  1.0971 -0.4762  1.0410
   48DOPE    HA 6080   6.249   2.245  12.811  1.8500 -0.1527 -0.1826
   48DOPE    HB 6081   6.405   2.273  12.884 -0.1889  0.7418  0.7194
   48DOPE    C2 6082   6.298   2.123  12.984  0.1317  0.0647  0.4844
   48DOPE    HS 6083   6.192   2.092  12.972  0.1488  0.1093  0.2243
   48DOPE   O21 6084   6.324   2.203  13.102  0.2756 -0.1969 -0.3049
   48DOPE   C21 6085   6.213   2.263  13.148  0.8459 -0.2153 -0.5865
   48DOPE   O22 6086   6.105   2.256  13.100 -0.6526  0.6635 -0.0578
   48DOPE   C22 6087   6.252   2.326  13.289 -0.4986  0.5490  0.5045
   48DOPE   H2R 6088   6.344   2.387  13.270 -0.3827 -0.1506 -1.4129
   48DOPE   H2S 6089   6.265   2.242  13.360  0.5878  0.6671  0.4669
   48DOPE    C3 6090   6.382   1.987  12.998 -0.0113 -0.6579 -0.2504
   48DOPE    HX 6091   6.487   2.021  12.982 -0.2978  0.9140  0.9507
   48DOPE    HY 6092   6.357   1.911  12.921  0.4798 -1.0710 -0.0116
   48DOPE   O31 6093   6.382   1.930  13.137  0.9156 -0.0314  0.2794
   48DOPE   C31 6094   6.271   1.851  13.152  0.6617 -0.0197 -0.9905
   48DOPE   O32 6095   6.194   1.827  13.061  0.2324  0.5237 -0.2927
   48DOPE   C32 6096   6.248   1.818  13.306 -0.6895 -1.0002  0.4731
   48DOPE   H2X 6097   6.177   1.883  13.361  0.9349  0.3950  0.9901
   48DOPE   H2Y 6098   6.202   1.717  13.307  0.0373 -1.3466 -0.0133
   48DOPE   C23 6099   6.156   2.431  13.352  0.2272 -0.1598 -0.0020
   48DOPE   H3R 6100   6.054   2.389  13.360 -1.1329  2.9125  0.2721
   48DOPE   H3S 6101   6.138   2.522  13.291  1.6598 -0.9410 -1.6902
   48DOPE   C24 6102   6.208   2.476  13.491  0.5353 -0.3994 -0.4330
   48DOPE   H4R 6103   6.290   2.549  13.474 -0.0656 -0.2196 -3.0611
   48DOPE   H4S 6104   6.258   2.389  13.539 -0.6219  0.0469  1.6678
   48DOPE   C25 6105   6.093   2.525  13.578 -0.2269 -0.1344  0.6496
   48DOPE   H5R 6106   6.011   2.452  13.596 -0.7303 -0.6474 -3.0023
   48DOPE   H5S 6107   6.050   2.618  13.535 -0.8283  0.1780  1.8786
   48DOPE   C26 6108   6.145   2.581  13.707  0.0963 -0.7527 -0.3236
   48DOPE   H6R 6109   6.210   2.671  13.703 -1.3076  0.4460  2.0205
   48DOPE   H6S 6110   6.197   2.495  13.755 -0.7206 -1.6186 -0.9407
   48DOPE   C27 6111   6.022   2.621  13.795  0.2170 -0.5111  0.5173
   48DOPE   H7R 6112   5.949   2.538  13.786 -1.1865  0.9152 -2.4933
   48DOPE   H7S 6113   5.976   2.712  13.751  0.1476 -0.2957  1.0308
   48DOPE   C28 6114   6.046   2.634  13.944  0.3674 -0.1520  0.1870
   48DOPE   H8R 6115   6.138   2.697  13.955  1.1297 -1.3012  0.5183
   48DOPE   H8S 6116   6.082   2.531  13.962  0.8118 -0.0735 -0.2049
   48DOPE   C29 6117   5.930   2.674  14.035  0.6150  0.1775 -0.1251
   48DOPE   H9R 6118   5.870   2.758  13.998 -0.3633 -0.0373  0.9010
   48DOPE  C210 6119   5.876   2.616  14.149 -0.3137  0.6160 -0.1280
   48DOPE  H10R 6120   5.795   2.662  14.207  1.9235  2.3396  1.8184
   48DOPE  C211 6121   5.945   2.498  14.212  0.9360  0.7422 -0.7177
   48DOPE  H11R 6122   6.005   2.445  14.136  1.9112  0.6713  0.0907
   48DOPE  H11S 6123   5.863   2.434  14.252  1.9941 -1.4536 -1.9166
   48DOPE  C212 6124   6.049   2.520  14.323 -0.0326  0.3703  0.2209
   48DOPE  H12R 6125   6.126   2.591  14.286 -0.8791  1.5604  0.7036
   48DOPE  H12S 6126   6.089   2.418  14.342  1.5636  1.2189  1.5981
   48DOPE  C213 6127   6.009   2.554  14.465 -0.4975 -0.0275  0.3741
   48DOPE  H13R 6128   5.976   2.660  14.469 -0.6626 -0.0482 -0.4181
   48DOPE  H13S 6129   6.102   2.555  14.526  2.1666  4.6077 -3.0679
   48DOPE  C214 6130   5.885   2.480  14.515 -0.5726 -0.8481 -0.0704
   48DOPE  H14R 6131   5.887   2.376  14.475  0.7099 -0.8602 -0.0355
   48DOPE  H14S 6132   5.794   2.540  14.496 -0.4394  0.2254  2.3706
   48DOPE  C215 6133   5.893   2.468  14.669  0.3992 -0.5654 -0.9940
   48DOPE  H15R 6134   5.891   2.574  14.705 -0.5881 -1.4004  1.6721
   48DOPE  H15S 6135   5.987   2.416  14.698  0.3966 -0.5970 -1.0439
   48DOPE  C216 6136   5.775   2.387  14.719  0.7309 -0.5813 -0.2358
   48DOPE  H16R 6137   5.783   2.284  14.676 -2.5609 -0.3426 -1.6794
   48DOPE  H16S 6138   5.688   2.434  14.670  1.0696 -1.3333 -1.6077
   48DOPE  C217 6139   5.774   2.376  14.873 -0.3867 -0.2941  0.3158
   48DOPE  H17R 6140   5.872   2.338  14.908  0.0114  1.2165  0.8777
   48DOPE  H17S 6141   5.696   2.303  14.907 -0.0149  0.0017  1.8740
   48DOPE  C218 6142   5.759   2.515  14.937 -0.2963  0.4039 -0.1676
   48DOPE  H18R 6143   5.670   2.580  14.925  0.1633  1.3380  1.2234
   48DOPE  H18S 6144   5.849   2.579  14.925  0.6401 -0.5512  1.3845
   48DOPE  H18T 6145   5.766   2.496  15.046 -0.4431 -1.6021 -0.4792
   48DOPE   C33 6146   6.378   1.809  13.387 -0.0438 -0.2049 -0.1158
   48DOPE   H3X 6147   6.407   1.904  13.437  2.0613 -2.2683  2.9757
   48DOPE   H3Y 6148   6.451   1.772  13.312 -0.6645 -0.7555 -0.4588
   48DOPE   C34 6149   6.372   1.712  13.508  0.2884 -0.5053 -0.6381
   48DOPE   H4X 6150   6.375   1.604  13.480 -1.0965 -1.2300  1.7216
   48DOPE   H4Y 6151   6.462   1.731  13.571 -0.6974  1.2245  0.3077
   48DOPE   C35 6152   6.256   1.740  13.607 -0.2028 -0.6910  0.0702
   48DOPE   H5X 6153   6.151   1.726  13.573 -0.6066  0.8597  0.6007
   48DOPE   H5Y 6154   6.267   1.849  13.628 -1.8686 -0.0390 -2.0892
   48DOPE   C36 6155   6.280   1.668  13.742 -0.3365 -0.0546 -0.0540
   48DOPE   H6X 6156   6.387   1.673  13.773 -0.7335  0.4230  1.3369
   48DOPE   H6Y 6157   6.248   1.563  13.729  0.9862 -0.4291 -0.4040
   48DOPE   C37 6158   6.196   1.738  13.850 -0.7519  0.1336  0.0763
   48DOPE   H7X 6159   6.214   1.847  13.843 -1.2666  0.1019 -2.3100
   48DOPE   H7Y 6160   6.088   1.714  13.833 -0.7674  0.3920 -0.1804
   48DOPE   C38 6161   6.240   1.699  13.999 -0.2737  0.1794  0.2849
   48DOPE   H8X 6162   6.193   1.774  14.067 -0.7992  1.3577 -1.3325
   48DOPE   H8Y 6163   6.351   1.708  13.994 -0.0957 -2.1029 -3.1261
   48DOPE   C39 6164   6.192   1.562  14.033 -0.2230 -0.0855  0.4005
   48DOPE   H9X 6165   6.088   1.541  14.006 -0.7191  1.9637  0.5932
   48DOPE  C310 6166   6.254   1.456  14.082  0.1280  0.7453 -0.4469
   48DOPE  H10X 6167   6.217   1.353  14.090  2.6583 -0.4980 -3.0122
   48DOPE  C311 6168   6.401   1.462  14.105 -0.6473 -0.3020  0.6908
   48DOPE  H11X 6169   6.442   1.362  14.079 -2.8581 -0.8828 -0.7859
   48DOPE  H11Y 6170   6.458   1.524  14.033 -0.4992 -1.7286 -0.4619
   48DOPE  C312 6171   6.446   1.485  14.252  0.0326 -0.2025 -0.1825
   48DOPE  H12X 6172   6.394   1.575  14.293 -0.5967 -1.3137  1.6019
   48DOPE  H12Y 6173   6.555   1.507  14.258 -0.5488  3.0949  0.3978
   48DOPE  C313 6174   6.407   1.363  14.339  0.2535 -0.5389  0.4711
   48DOPE  H13X 6175   6.323   1.390  14.406  0.6998  1.3625  0.3138
   48DOPE  H13Y 6176   6.391   1.267  14.284  2.6559 -0.2159 -0.9047
   48DOPE  C314 6177   6.519   1.319  14.441  0.1381 -0.0048  0.1219
   48DOPE  H14X 6178   6.542   1.402  14.511  0.1197  1.1954 -1.2314
   48DOPE  H14Y 6179   6.611   1.287  14.387  0.6941  1.1569  0.3347
   48DOPE  C315 6180   6.468   1.201  14.521  0.6898  0.3742 -0.2487
   48DOPE  H15X 6181   6.461   1.118  14.448  1.8708  0.7207 -0.7692
   48DOPE  H15Y 6182   6.363   1.226  14.551 -1.0398 -2.0101 -3.6685
   48DOPE  C316 6183   6.559   1.160  14.641 -0.0620 -0.2955 -0.1674
   48DOPE  H16X 6184   6.618   1.246  14.680  0.8048 -0.7360 -0.4646
   48DOPE  H16Y 6185   6.645   1.098  14.608 -0.0653  0.0164 -0.7799
   48DOPE  C317 6186   6.478   1.097  14.755  0.0773  0.2850  0.1556
   48DOPE  H17X 6187   6.409   1.176  14.790  0.9244  0.8964  0.4861
   48DOPE  H17Y 6188   6.409   1.012  14.734 -1.4956  1.2529  1.2013
   48DOPE  C318 6189   6.561   1.050  14.874  0.3265  0.4153  0.3098
   48DOPE  H18X 6190   6.502   0.989  14.946 -0.3185 -1.0662 -1.3843
   48DOPE  H18Y 6191   6.645   0.980  14.853  1.2509  1.2346  1.1511
   48DOPE  H18Z 6192   6.596   1.139  14.930 -1.3457 -0.6652  3.2962
   49DOPE     N 6193   1.233   0.839  12.513  0.1875 -0.4529 -0.2344
   49DOPE   HN1 6194   1.135   0.862  12.487  0.2729 -1.0536 -1.1431
   49DOPE   HN2 6195   1.233   0.736  12.521 -0.6681 -0.3664  1.1858
   49DOPE   HN3 6196   1.263   0.877  12.605  1.5339  1.4873 -1.4085
   49DOPE   C12 6197   1.328   0.894  12.410  0.3755 -0.2181  0.5480
   49DOPE  H12A 6198   1.279   0.983  12.365  1.4478  1.3168  2.2871
   49DOPE  H12B 6199   1.352   0.821  12.329  0.6653  0.0585  0.3805
   49DOPE   C11 6200   1.467   0.918  12.470 -0.3140 -0.2903  0.2433
   49DOPE  H11A 6201   1.461   0.997  12.547  3.1327  0.9348 -0.5532
   49DOPE  H11B 6202   1.533   0.959  12.390  1.7992 -2.5339  0.7015
   49DOPE     P 6203   1.657   0.804  12.607 -0.1234  0.1701 -0.1965
   49DOPE   O13 6204   1.655   0.912  12.713 -0.3902 -0.3832 -0.0567
   49DOPE   O14 6205   1.759   0.808  12.502 -0.6787  0.1641 -0.5471
   49DOPE   O11 6206   1.676   0.664  12.673  0.1457 -0.0346  0.0586
   49DOPE   O12 6207   1.517   0.801  12.531  0.2471 -0.4624 -0.5514
   49DOPE    C1 6208   1.567   0.595  12.731  0.1751 -0.3303 -0.6235
   49DOPE    HA 6209   1.604   0.497  12.767  0.2799  0.0778  0.4013
   49DOPE    HB 6210   1.490   0.573  12.654  0.4874 -0.3495 -0.9340
   49DOPE    C2 6211   1.509   0.654  12.856  1.0361  0.1672  0.5902
   49DOPE    HS 6212   1.461   0.748  12.822  2.5871  1.0363  0.6791
   49DOPE   O21 6213   1.615   0.694  12.949  0.3416  0.0780  0.1633
   49DOPE   C21 6214   1.577   0.771  13.052 -1.1596  0.0530 -0.0644
   49DOPE   O22 6215   1.495   0.860  13.050 -0.3062  0.0191 -0.0121
   49DOPE   C22 6216   1.658   0.737  13.178  0.6242 -0.3168  0.3076
   49DOPE   H2R 6217   1.763   0.772  13.167  0.5113 -0.5543 -2.1115
   49DOPE   H2S 6218   1.657   0.626  13.188 -1.6422 -0.1561  3.0696
   49DOPE    C3 6219   1.402   0.547  12.904  0.6748  0.1269  0.2861
   49DOPE    HX 6220   1.450   0.449  12.923  1.5693  0.7996  1.7100
   49DOPE    HY 6221   1.336   0.531  12.817  1.0842 -1.0242  0.1700
   49DOPE   O31 6222   1.323   0.588  13.018 -0.0943  0.2600 -0.4412
   49DOPE   C31 6223   1.236   0.690  12.998  0.1182 -0.1274 -0.1735
   49DOPE   O32 6224   1.214   0.744  12.891  0.2165 -0.0878  0.3404
   49DOPE   C32 6225   1.150   0.724  13.121 -0.4438  0.1327  0.9919
   49DOPE   H2X 6226   1.071   0.797  13.095 -0.1483  1.2750  3.0670
   49DOPE   H2Y 6227   1.092   0.633  13.147  0.2114 -0.7019 -0.3592
   49DOPE   C23 6228   1.600   0.800  13.302 -0.0874 -0.0180  0.4061
   49DOPE   H3R 6229   1.492   0.782  13.317  0.3308 -2.0035  1.3964
   49DOPE   H3S 6230   1.603   0.911  13.294  0.0423 -0.0708 -0.3509
   49DOPE   C24 6231   1.686   0.789  13.428  0.0300  0.1298  0.1150
   49DOPE   H4R 6232   1.743   0.884  13.434 -0.6710  0.4985  1.1201
   49DOPE   H4S 6233   1.762   0.709  13.442  2.3129  2.2838  0.6749
   49DOPE   C25 6234   1.602   0.780  13.551 -0.1148  0.2946 -0.2500
   49DOPE   H5R 6235   1.533   0.695  13.528 -2.2076  1.8173  0.0608
   49DOPE   H5S 6236   1.539   0.870  13.567  0.5533  0.7616 -0.2191
   49DOPE   C26 6237   1.666   0.756  13.685 -0.4467  0.0083  0.5096
   49DOPE   H6R 6238   1.716   0.658  13.691 -0.9845 -0.4454 -1.6682
   49DOPE   H6S 6239   1.593   0.756  13.769 -1.6562  2.5303 -0.4287
   49DOPE   C27 6240   1.765   0.867  13.734 -0.1685  0.4650  0.2871
   49DOPE   H7R 6241   1.744   0.955  13.670  1.5086  1.2834  0.8167
   49DOPE   H7S 6242   1.861   0.825  13.698 -0.8437 -0.4103 -0.5602
   49DOPE   C28 6243   1.744   0.907  13.884 -0.2791 -0.0767  0.2511
   49DOPE   H8R 6244   1.634   0.911  13.895 -0.7231  2.0097 -3.2630
   49DOPE   H8S 6245   1.789   1.008  13.895 -0.1398  0.2924 -2.8365
   49DOPE   C29 6246   1.808   0.805  13.974  0.2652  1.3410  0.8821
   49DOPE   H9R 6247   1.914   0.782  13.955 -0.4049  0.1921 -2.0175
   49DOPE  C210 6248   1.748   0.738  14.070 -0.7013  0.1695 -0.3743
   49DOPE  H10R 6249   1.808   0.679  14.141 -1.2023 -0.3765 -0.3917
   49DOPE  C211 6250   1.605   0.746  14.112 -0.3914 -0.0069  0.1836
   49DOPE  H11R 6251   1.578   0.656  14.172 -2.5422  0.8798  0.6424
   49DOPE  H11S 6252   1.539   0.734  14.023 -0.0507  0.6925 -0.1665
   49DOPE  C212 6253   1.555   0.867  14.195 -0.1652 -0.1937  0.9827
   49DOPE  H12R 6254   1.445   0.862  14.185 -0.0508  0.1235 -0.6005
   49DOPE  H12S 6255   1.583   0.958  14.138 -0.2118 -0.7407  0.0728
   49DOPE  C213 6256   1.580   0.870  14.343  0.6322 -0.5727 -0.3312
   49DOPE  H13R 6257   1.683   0.828  14.350  0.6827 -0.4274 -0.1741
   49DOPE  H13S 6258   1.514   0.792  14.385  1.2101 -2.0655 -2.0891
   49DOPE  C214 6259   1.563   1.011  14.405  0.4520 -0.3358 -0.0349
   49DOPE  H14R 6260   1.464   1.058  14.387  1.6098  1.1681 -3.1974
   49DOPE  H14S 6261   1.636   1.075  14.350 -1.2582  1.0168 -0.8250
   49DOPE  C215 6262   1.583   1.008  14.559  0.0702  0.4564 -0.3301
   49DOPE  H15R 6263   1.599   1.109  14.600  0.2811  0.7174 -1.0430
   49DOPE  H15S 6264   1.672   0.951  14.594 -0.3998  0.0378  0.2184
   49DOPE  C216 6265   1.470   0.932  14.631 -0.5017  0.1842  0.6107
   49DOPE  H16R 6266   1.507   0.920  14.735  0.3689  0.5901  0.3586
   49DOPE  H16S 6267   1.437   0.834  14.591 -2.0352  1.1137 -0.5445
   49DOPE  C217 6268   1.342   1.023  14.637  0.2752 -0.1867  0.4619
   49DOPE  H17R 6269   1.297   1.022  14.535 -0.2456 -0.4160  0.6893
   49DOPE  H17S 6270   1.377   1.125  14.662 -0.5823 -0.1637  1.6917
   49DOPE  C218 6271   1.245   0.971  14.739  0.1369 -0.2443 -0.3989
   49DOPE  H18R 6272   1.307   0.950  14.829  0.7383 -2.2697 -1.2192
   49DOPE  H18S 6273   1.217   0.868  14.707 -0.2065 -0.3169  0.1239
   49DOPE  H18T 6274   1.156   1.036  14.746  0.7965  0.4828  2.3388
   49DOPE   C33 6275   1.236   0.776  13.236  1.1255  0.0548  0.5465
   49DOPE   H3X 6276   1.272   0.879  13.216  0.4350  1.0706  3.7881
   49DOPE   H3Y 6277   1.325   0.711  13.251  1.9950  1.0712 -0.0883
   49DOPE   C34 6278   1.157   0.779  13.372  0.0535  0.6822  0.2622
   49DOPE   H4X 6279   1.065   0.838  13.352 -0.5732 -0.5643 -0.7004
   49DOPE   H4Y 6280   1.120   0.676  13.393  1.7355  0.2103  1.0879
   49DOPE   C35 6281   1.235   0.834  13.486  0.0674 -0.2350 -0.6978
   49DOPE   H5X 6282   1.252   0.941  13.462  0.5664  0.0174  0.7235
   49DOPE   H5Y 6283   1.336   0.790  13.494  0.2682 -0.1737 -2.4134
   49DOPE   C36 6284   1.169   0.824  13.623  0.6131 -0.0221 -0.4713
   49DOPE   H6X 6285   1.165   0.718  13.655 -0.3359  0.0596 -0.2775
   49DOPE   H6Y 6286   1.063   0.856  13.618  0.9752  1.9725  2.3569
   49DOPE   C37 6287   1.254   0.900  13.722  0.8343  0.2255 -1.0874
   49DOPE   H7X 6288   1.347   0.845  13.747 -0.7690 -2.6101 -1.0047
   49DOPE   H7Y 6289   1.291   0.998  13.684  0.0535  1.1594  0.4374
   49DOPE   C38 6290   1.196   0.919  13.866 -0.3956 -0.0568 -0.8631
   49DOPE   H8X 6291   1.120   1.000  13.861 -0.8358 -0.3372  0.6208
   49DOPE   H8Y 6292   1.277   0.952  13.935 -2.3338  0.3295  1.3753
   49DOPE   C39 6293   1.127   0.799  13.927  0.2028  0.5899  0.0549
   49DOPE   H9X 6294   1.101   0.722  13.853 -1.0686  0.9129  0.1500
   49DOPE  C310 6295   1.107   0.783  14.059  0.2122  0.2792  0.4426
   49DOPE  H10X 6296   1.067   0.690  14.101 -1.8742  0.8372 -0.2077
   49DOPE  C311 6297   1.131   0.878  14.172 -0.0580 -0.2055 -0.7891
   49DOPE  H11X 6298   1.240   0.898  14.178  0.2654 -2.2424  2.1840
   49DOPE  H11Y 6299   1.077   0.974  14.156 -3.6256 -1.7384  0.9269
   49DOPE  C312 6300   1.080   0.828  14.306  0.5094 -0.0810  0.8213
   49DOPE  H12X 6301   0.971   0.805  14.300  0.6485 -0.3264 -2.1417
   49DOPE  H12Y 6302   1.097   0.905  14.385 -0.5685 -1.0819  2.0822
   49DOPE  C313 6303   1.158   0.698  14.352  0.0686 -0.0283 -0.6070
   49DOPE  H13X 6304   1.144   0.622  14.272  2.8720 -0.2565 -0.9803
   49DOPE  H13Y 6305   1.266   0.713  14.370 -0.3736  0.1756  2.4112
   49DOPE  C314 6306   1.098   0.632  14.481 -1.1585  0.2134  0.0601
   49DOPE  H14X 6307   0.993   0.597  14.464 -1.8841  1.9678  0.7581
   49DOPE  H14Y 6308   1.083   0.714  14.554 -0.7918  1.1932 -0.9376
   49DOPE  C315 6309   1.188   0.520  14.530 -0.5571 -0.5930  0.2178
   49DOPE  H15X 6310   1.285   0.568  14.553 -0.3208  0.5375 -2.6976
   49DOPE  H15Y 6311   1.195   0.445  14.448 -2.1716  1.0613 -1.5547
   49DOPE  C316 6312   1.134   0.455  14.654 -0.1893  0.9330  0.5971
   49DOPE  H16X 6313   1.186   0.356  14.660 -0.4117  0.8271  0.8208
   49DOPE  H16Y 6314   1.025   0.437  14.641  0.1018 -1.8212  1.2276
   49DOPE  C317 6315   1.162   0.533  14.781  0.0573  0.0769  0.0732
   49DOPE  H17X 6316   1.271   0.526  14.802 -0.4479 -0.9036  2.7234
   49DOPE  H17Y 6317   1.135   0.639  14.765 -1.2916 -0.2603 -0.0126
   49DOPE  C318 6318   1.098   0.482  14.914  0.5289 -0.6124 -0.2390
   49DOPE  H18X 6319   0.987   0.475  14.912  0.3838  0.9211  0.7740
   49DOPE  H18Y 6320   1.139   0.383  14.943  0.1832 -0.6202  0.2147
   49DOPE  H18Z 6321   1.124   0.549  14.999 -0.5686  2.4519 -2.1221
   50DOPE     N 6322   0.211   5.056  12.665 -0.4851 -0.3640  0.1669
   50DOPE   HN1 6323   0.142   4.985  12.698  1.2339 -1.3310  1.9451
   50DOPE   HN2 6324   0.189   5.085  12.568 -1.5045  0.2984  0.5873
   50DOPE   HN3 6325   0.305   5.010  12.659  0.2800  1.1128  0.2354
   50DOPE   C12 6326   0.200   5.171  12.761 -0.5347 -0.4599 -0.7873
   50DOPE  H12A 6327   0.119   5.157  12.835 -0.7536 -1.4357 -1.1941
   50DOPE  H12B 6328   0.183   5.266  12.706 -0.1200 -0.5198 -1.0247
   50DOPE   C11 6329   0.336   5.194  12.834 -0.1693 -0.4037 -0.5200
   50DOPE  H11A 6330   0.341   5.272  12.912  3.4340 -1.1736  0.1969
   50DOPE  H11B 6331   0.391   5.242  12.750  1.0367 -1.7461 -0.5316
   50DOPE     P 6332   0.503   4.988  12.823 -0.4486 -0.4359  0.6577
   50DOPE   O13 6333   0.618   5.076  12.790  0.3927 -0.2976  0.4270
   50DOPE   O14 6334   0.445   4.919  12.707  0.3523  0.4049 -0.4060
   50DOPE   O11 6335   0.546   4.889  12.939  0.1974 -0.4582  0.3276
   50DOPE   O12 6336   0.392   5.072  12.892  0.4269 -0.1653  0.2785
   50DOPE    C1 6337   0.512   4.920  13.071  0.4070 -0.4612 -0.8277
   50DOPE    HA 6338   0.499   4.829  13.133 -0.1505 -0.9284 -1.5987
   50DOPE    HB 6339   0.407   4.957  13.082  0.3655 -0.8415  0.1634
   50DOPE    C2 6340   0.620   5.006  13.139 -0.9585 -0.1762 -0.3771
   50DOPE    HS 6341   0.604   5.112  13.108 -1.9701 -0.0366  0.5491
   50DOPE   O21 6342   0.753   4.962  13.092 -0.0441  0.0875  0.1744
   50DOPE   C21 6343   0.854   5.060  13.107  0.6786  0.0032  0.0265
   50DOPE   O22 6344   0.831   5.178  13.126 -0.5595  0.4795 -0.0069
   50DOPE   C22 6345   0.988   4.989  13.106 -0.0568 -0.2017  0.9038
   50DOPE   H2R 6346   1.022   4.975  13.001  1.4651  1.8700  1.0438
   50DOPE   H2S 6347   0.979   4.887  13.149 -1.1159 -1.1203 -1.3070
   50DOPE    C3 6348   0.622   5.006  13.302  0.4665 -0.4904 -0.1302
   50DOPE    HX 6349   0.701   5.078  13.329 -0.3107  1.7684 -3.2698
   50DOPE    HY 6350   0.659   4.908  13.341 -0.3964 -0.5977  0.4466
   50DOPE   O31 6351   0.491   5.045  13.346  0.0240 -0.0080 -0.4497
   50DOPE   C31 6352   0.471   5.019  13.479  0.0871  0.2587 -0.8374
   50DOPE   O32 6353   0.559   4.973  13.555  0.2523  0.1145  0.2789
   50DOPE   C32 6354   0.328   5.073  13.512  0.2342 -0.6760  0.2546
   50DOPE   H2X 6355   0.321   5.170  13.459  3.1777 -0.2135  0.5372
   50DOPE   H2Y 6356   0.255   4.997  13.475  0.8016 -0.9731 -0.2734
   50DOPE   C23 6357   1.094   5.073  13.171 -0.4153 -0.1095  0.0736
   50DOPE   H3R 6358   1.112   5.171  13.122 -0.8872  0.4865  1.0547
   50DOPE   H3S 6359   1.189   5.019  13.152 -0.1020  0.7698 -0.9505
   50DOPE   C24 6360   1.070   5.108  13.312  0.2788 -0.5920  0.0448
   50DOPE   H4R 6361   1.031   5.020  13.368  2.2560 -2.5734 -1.5302
   50DOPE   H4S 6362   0.995   5.190  13.319  1.0184 -0.0136  1.6719
   50DOPE   C25 6363   1.189   5.165  13.387 -0.1377 -0.1298 -0.5176
   50DOPE   H5R 6364   1.226   5.257  13.338  1.8377  0.4812  1.8862
   50DOPE   H5S 6365   1.280   5.101  13.389  0.4336  0.6795  0.7224
   50DOPE   C26 6366   1.173   5.198  13.536 -0.0953 -0.2830 -0.8102
   50DOPE   H6R 6367   1.151   5.109  13.599  0.6866  0.0066 -0.1162
   50DOPE   H6S 6368   1.086   5.265  13.550 -0.9638 -1.2047 -1.6760
   50DOPE   C27 6369   1.298   5.273  13.585  0.1382  0.4330 -0.2316
   50DOPE   H7R 6370   1.259   5.350  13.654 -2.2100  0.9290 -1.9772
   50DOPE   H7S 6371   1.354   5.306  13.494  2.2115  1.8238  1.4533
   50DOPE   C28 6372   1.405   5.174  13.656  0.4007 -0.6898 -0.5840
   50DOPE   H8R 6373   1.434   5.091  13.589 -1.2065  0.9100 -3.4390
   50DOPE   H8S 6374   1.362   5.135  13.751  1.6376 -0.6379  0.0255
   50DOPE   C29 6375   1.528   5.255  13.701 -0.5542 -0.8596  0.1585
   50DOPE   H9R 6376   1.581   5.320  13.629 -0.4090  0.4911  1.4150
   50DOPE  C210 6377   1.570   5.286  13.830 -0.0422 -0.0301  0.1958
   50DOPE  H10R 6378   1.665   5.336  13.853 -0.4197  0.5028  0.6055
   50DOPE  C211 6379   1.503   5.227  13.955 -0.0256  0.0080 -0.0333
   50DOPE  H11R 6380   1.461   5.125  13.946 -0.2319  0.0420  0.5290
   50DOPE  H11S 6381   1.420   5.294  13.985  1.8415  2.2668  0.4360
   50DOPE  C212 6382   1.598   5.230  14.074 -0.0753  0.6716  0.0274
   50DOPE  H12R 6383   1.651   5.327  14.081  1.4792 -0.0772 -0.6889
   50DOPE  H12S 6384   1.673   5.151  14.051  0.6506  1.0260  1.1106
   50DOPE  C213 6385   1.521   5.216  14.208  0.5607  0.0413  0.6901
   50DOPE  H13R 6386   1.453   5.129  14.199 -0.8996  1.2756 -1.1820
   50DOPE  H13S 6387   1.447   5.299  14.210 -0.7215 -1.0260 -0.3058
   50DOPE  C214 6388   1.608   5.215  14.327 -0.4428  0.5759  0.4801
   50DOPE  H14R 6389   1.688   5.141  14.302  0.4500  2.1214 -1.6236
   50DOPE  H14S 6390   1.544   5.177  14.409 -0.1560  3.4606  2.1507
   50DOPE  C215 6391   1.662   5.347  14.354 -0.2973 -0.2874 -1.1484
   50DOPE  H15R 6392   1.571   5.396  14.393 -0.1801 -1.0634  0.1655
   50DOPE  H15S 6393   1.703   5.400  14.266  2.9561 -0.3775  0.1560
   50DOPE  C216 6394   1.770   5.334  14.465 -0.1225  0.1561  0.1456
   50DOPE  H16R 6395   1.853   5.268  14.430 -0.2421  1.2738 -2.4218
   50DOPE  H16S 6396   1.723   5.282  14.551  0.6196 -1.5458 -0.4287
   50DOPE  C217 6397   1.836   5.467  14.494 -0.1350  0.3574  0.6927
   50DOPE  H17R 6398   1.762   5.536  14.541 -1.7065 -0.5682 -0.3597
   50DOPE  H17S 6399   1.869   5.522  14.403  1.4227 -1.4015  0.1296
   50DOPE  C218 6400   1.959   5.437  14.582  0.7271  0.3788 -0.1634
   50DOPE  H18R 6401   2.001   5.530  14.626  0.2022 -0.7735  2.9693
   50DOPE  H18S 6402   2.044   5.400  14.521  0.1533 -1.6215  0.1926
   50DOPE  H18T 6403   1.934   5.355  14.652  1.6435 -2.1473 -2.5797
   50DOPE   C33 6404   0.302   5.092  13.663 -0.6191 -0.9155  0.7560
   50DOPE   H3X 6405   0.197   5.127  13.677 -0.7529 -0.8983 -0.2153
   50DOPE   H3Y 6406   0.386   5.155  13.698  0.7278 -0.1845 -3.2274
   50DOPE   C34 6407   0.308   4.956  13.741  0.4411  0.0151 -0.1679
   50DOPE   H4X 6408   0.247   4.888  13.678  1.3591  0.6298 -1.8059
   50DOPE   H4Y 6409   0.406   4.904  13.743 -1.5403 -4.1107 -0.8077
   50DOPE   C35 6410   0.260   4.963  13.887  0.1975  0.2607  0.0634
   50DOPE   H5X 6411   0.226   4.866  13.928  0.6434  0.8140  1.8498
   50DOPE   H5Y 6412   0.169   5.027  13.896 -1.2352 -1.8711  1.7989
   50DOPE   C36 6413   0.374   5.004  13.985 -0.2061  1.0741  0.1703
   50DOPE   H6X 6414   0.338   5.009  14.089 -0.6416  1.0149  0.0250
   50DOPE   H6Y 6415   0.416   5.105  13.969 -0.4841  1.2881  0.7750
   50DOPE   C37 6416   0.497   4.906  13.991 -0.0867  0.4906  0.3179
   50DOPE   H7X 6417   0.456   4.803  13.990  1.0987  0.0049 -1.2394
   50DOPE   H7Y 6418   0.563   4.916  13.903  0.9881  2.4073  1.2610
   50DOPE   C38 6419   0.582   4.937  14.114  0.9416 -0.5870 -0.0614
   50DOPE   H8X 6420   0.648   4.849  14.128  0.3069 -1.2883 -1.3241
   50DOPE   H8Y 6421   0.524   4.951  14.208  1.4823  1.5316 -0.0025
   50DOPE   C39 6422   0.673   5.057  14.091  0.1230  0.0828  0.8876
   50DOPE   H9X 6423   0.738   5.039  14.004  0.9354 -4.2360  2.1272
   50DOPE  C310 6424   0.699   5.164  14.164  0.2160  0.5239  0.1214
   50DOPE  H10X 6425   0.767   5.241  14.125 -0.2841  0.8469 -0.1177
   50DOPE  C311 6426   0.614   5.204  14.283 -0.4327 -0.3085  0.3370
   50DOPE  H11X 6427   0.595   5.314  14.277  1.7913  0.2665  2.2750
   50DOPE  H11Y 6428   0.515   5.155  14.274 -0.4286 -0.0158 -1.6693
   50DOPE  C312 6429   0.669   5.187  14.425 -0.1830  0.7150 -0.1647
   50DOPE  H12X 6430   0.710   5.085  14.444  1.1535  1.5997  2.0699
   50DOPE  H12Y 6431   0.581   5.199  14.492 -1.6776 -1.6470 -1.5345
   50DOPE  C313 6432   0.791   5.280  14.462 -0.1034  0.5039 -0.4750
   50DOPE  H13X 6433   0.864   5.268  14.379 -0.5675 -1.4464 -0.6555
   50DOPE  H13Y 6434   0.752   5.384  14.453 -0.8227  0.1603 -1.4849
   50DOPE  C314 6435   0.864   5.252  14.602 -0.4042  0.2633 -0.1805
   50DOPE  H14X 6436   0.949   5.324  14.607 -1.4065  1.4425  0.6751
   50DOPE  H14Y 6437   0.909   5.150  14.608 -3.0949 -0.9097  2.3854
   50DOPE  C315 6438   0.774   5.256  14.721  0.3769 -0.4370 -1.0395
   50DOPE  H15X 6439   0.690   5.187  14.698  0.3088  0.3520 -3.4505
   50DOPE  H15Y 6440   0.727   5.357  14.721  0.1277 -0.5497 -1.6597
   50DOPE  C316 6441   0.832   5.216  14.857  0.5362  0.4277  0.0705
   50DOPE  H16X 6442   0.899   5.129  14.846 -0.3818 -0.1722 -0.9187
   50DOPE  H16Y 6443   0.749   5.195  14.928  0.2597  2.3009  0.3722
   50DOPE  C317 6444   0.907   5.332  14.937  0.5348  0.1275  0.0732
   50DOPE  H17X 6445   0.984   5.376  14.869 -1.0975  3.0661 -0.0422
   50DOPE  H17Y 6446   0.827   5.408  14.950 -1.6801 -1.9240 -0.8478
   50DOPE  C318 6447   0.966   5.279  15.066 -0.0964  1.0764  0.3212
   50DOPE  H18X 6448   1.040   5.198  15.048 -2.3727 -0.9020 -0.6602
   50DOPE  H18Y 6449   1.022   5.363  15.111  2.0521  0.3414 -0.8203
   50DOPE  H18Z 6450   0.894   5.232  15.136 -1.1407 -0.8718 -1.9243
   51DOPE     N 6451   3.256   0.683  12.354 -0.4026  0.3762  0.5384
   51DOPE   HN1 6452   3.230   0.613  12.281  2.0784  0.1455 -0.1996
   51DOPE   HN2 6453   3.326   0.744  12.307  0.2345  0.3725  1.4610
   51DOPE   HN3 6454   3.304   0.634  12.432 -0.2653  2.4172  1.8035
   51DOPE   C12 6455   3.149   0.777  12.399  0.2608  0.5139 -0.2684
   51DOPE  H12A 6456   3.055   0.721  12.418  0.5911  0.7404  2.3946
   51DOPE  H12B 6457   3.138   0.862  12.329 -0.2604 -1.7139 -3.0950
   51DOPE   C11 6458   3.190   0.832  12.538  0.7139  0.9169 -0.1820
   51DOPE  H11A 6459   3.189   0.746  12.608  0.9581 -0.1173 -1.3996
   51DOPE  H11B 6460   3.113   0.903  12.575 -0.9939 -1.0560  0.2696
   51DOPE     P 6461   3.405   0.918  12.667  0.3933 -0.1456  0.0201
   51DOPE   O13 6462   3.482   1.047  12.654  0.4091 -0.2173 -0.1177
   51DOPE   O14 6463   3.489   0.799  12.701 -0.3480 -0.2816  0.4283
   51DOPE   O11 6464   3.294   0.928  12.777  0.2730 -0.3174 -0.4053
   51DOPE   O12 6465   3.312   0.900  12.540 -0.2084  0.0003 -0.5815
   51DOPE    C1 6466   3.306   0.883  12.915  0.4553 -0.1518  0.2091
   51DOPE    HA 6467   3.365   0.789  12.916 -0.0151 -0.4498  0.0491
   51DOPE    HB 6468   3.207   0.862  12.958  0.4318 -3.4076 -1.1398
   51DOPE    C2 6469   3.375   0.988  12.999 -0.0080 -0.6431 -0.0644
   51DOPE    HS 6470   3.486   0.979  12.991  0.2123  0.2151  1.6452
   51DOPE   O21 6471   3.333   0.944  13.127 -0.0265  0.1301  0.3909
   51DOPE   C21 6472   3.400   0.984  13.229 -0.4713 -0.3340  0.2630
   51DOPE   O22 6473   3.502   1.053  13.232  0.2141 -0.1194  0.1548
   51DOPE   C22 6474   3.306   0.957  13.353 -0.8945 -0.6701  0.5073
   51DOPE   H2R 6475   3.332   0.864  13.407 -0.2711  0.5518  2.4141
   51DOPE   H2S 6476   3.198   0.959  13.327 -0.5629  0.7455 -0.9181
   51DOPE    C3 6477   3.328   1.126  12.948  0.1628 -0.1227 -0.4329
   51DOPE    HX 6478   3.220   1.112  12.926  0.1522 -1.6686  0.4440
   51DOPE    HY 6479   3.365   1.150  12.846  2.8150 -0.5469  0.3353
   51DOPE   O31 6480   3.359   1.236  13.043 -0.0209  0.0834 -0.3306
   51DOPE   C31 6481   3.487   1.272  13.040 -0.6010 -0.3313 -0.1239
   51DOPE   O32 6482   3.573   1.222  12.968  0.2170 -0.0621  0.0511
   51DOPE   C32 6483   3.492   1.403  13.132  0.4651  0.5906  0.4427
   51DOPE   H2X 6484   3.422   1.474  13.084 -1.8224 -1.9296 -0.2095
   51DOPE   H2Y 6485   3.465   1.361  13.231  0.8482  1.3223  0.8677
   51DOPE   C23 6486   3.329   1.065  13.463 -0.6581  0.2470 -0.2876
   51DOPE   H3R 6487   3.326   1.170  13.427 -2.3235  0.5769  0.6889
   51DOPE   H3S 6488   3.431   1.045  13.502 -0.3427 -1.0199 -1.6827
   51DOPE   C24 6489   3.249   1.049  13.593 -0.0566  0.4546  0.5339
   51DOPE   H4R 6490   3.275   0.952  13.641  1.9792  0.5755 -0.2245
   51DOPE   H4S 6491   3.141   1.050  13.565 -0.2290 -1.3650  1.0066
   51DOPE   C25 6492   3.289   1.152  13.701 -0.4120 -0.2845  0.7330
   51DOPE   H5R 6493   3.248   1.254  13.684  3.3377  0.8970 -2.8741
   51DOPE   H5S 6494   3.398   1.175  13.696 -1.0332  2.9293 -0.4949
   51DOPE   C26 6495   3.254   1.107  13.845 -0.3876  0.2395  0.1587
   51DOPE   H6R 6496   3.324   1.151  13.919 -1.7498 -1.2137  2.4272
   51DOPE   H6S 6497   3.265   0.997  13.853  0.2042  0.3938  2.0328
   51DOPE   C27 6498   3.121   1.141  13.903 -0.2427 -0.0746 -0.1238
   51DOPE   H7R 6499   3.054   1.150  13.815  2.7813 -1.3234 -2.7330
   51DOPE   H7S 6500   3.135   1.242  13.948  2.7916 -0.9471  1.1554
   51DOPE   C28 6501   3.061   1.036  14.003 -0.1805  0.2257  0.6178
   51DOPE   H8R 6502   3.064   0.942  13.942  3.8166 -0.2134  1.2057
   51DOPE   H8S 6503   2.952   1.056  13.997 -0.3290 -0.8045 -0.6568
   51DOPE   C29 6504   3.117   1.032  14.136  0.7282  0.2602 -0.3111
   51DOPE   H9R 6505   3.205   0.969  14.156 -1.2585 -2.5164  0.2485
   51DOPE  C210 6506   3.052   1.081  14.242 -0.6123 -0.0644 -0.2703
   51DOPE  H10R 6507   3.099   1.077  14.342  0.5512  1.3682 -0.7379
   51DOPE  C211 6508   2.919   1.149  14.247  0.4810 -0.0578  0.0345
   51DOPE  H11R 6509   2.844   1.091  14.306  1.1528  2.6887  3.9748
   51DOPE  H11S 6510   2.874   1.169  14.148  0.7311 -1.4681 -0.3903
   51DOPE  C212 6511   2.929   1.302  14.295  0.0875  0.7309 -0.3141
   51DOPE  H12R 6512   2.841   1.358  14.258  1.5154  2.4151 -1.3221
   51DOPE  H12S 6513   3.004   1.345  14.225 -0.8670  0.3229 -1.6305
   51DOPE  C213 6514   2.975   1.330  14.439 -0.3720 -0.7996  0.5193
   51DOPE  H13R 6515   2.986   1.440  14.452  0.1287 -0.7493 -0.2365
   51DOPE  H13S 6516   3.078   1.289  14.450  0.5609 -0.1577 -3.8241
   51DOPE  C214 6517   2.877   1.271  14.536  0.3375 -0.2607  0.4547
   51DOPE  H14R 6518   2.871   1.161  14.525 -0.1281  0.0035 -2.8110
   51DOPE  H14S 6519   2.780   1.318  14.507  0.5214 -1.2004 -1.8988
   51DOPE  C215 6520   2.911   1.301  14.679 -0.3561  0.8129  0.6159
   51DOPE  H15R 6521   2.921   1.405  14.717 -1.8357  0.9179  0.8024
   51DOPE  H15S 6522   3.013   1.260  14.691 -0.5718  0.9404  3.7279
   51DOPE  C216 6523   2.817   1.225  14.778 -0.1469 -0.4003 -0.0991
   51DOPE  H16R 6524   2.835   1.116  14.775  0.7591 -0.2537 -0.4225
   51DOPE  H16S 6525   2.713   1.240  14.743 -0.1695 -0.4584 -0.0564
   51DOPE  C217 6526   2.829   1.272  14.925  0.3004 -0.0202  0.6549
   51DOPE  H17R 6527   2.772   1.199  14.986 -1.3519 -0.1000 -0.9020
   51DOPE  H17S 6528   2.779   1.371  14.917  2.2256  0.8769 -4.3946
   51DOPE  C218 6529   2.980   1.287  14.975  0.3536  0.1337  0.0839
   51DOPE  H18R 6530   2.988   1.326  15.079 -1.3128 -0.0141  0.3055
   51DOPE  H18S 6531   3.033   1.351  14.901 -2.5454  2.2378 -0.3865
   51DOPE  H18T 6532   3.018   1.183  14.976  1.2898  0.4612 -0.2655
   51DOPE   C33 6533   3.637   1.451  13.138 -0.1530  0.1847  0.3162
   51DOPE   H3X 6534   3.673   1.499  13.045 -1.8001 -0.3038 -0.6262
   51DOPE   H3Y 6535   3.706   1.365  13.148  0.1724  0.5466  1.3179
   51DOPE   C34 6536   3.659   1.553  13.255  0.0352 -0.3389  0.4568
   51DOPE   H4X 6537   3.582   1.631  13.237 -1.0984 -1.9884 -2.5662
   51DOPE   H4Y 6538   3.635   1.495  13.346  0.6310 -2.8477 -0.9100
   51DOPE   C35 6539   3.793   1.625  13.252 -0.1837  0.7957  0.2864
   51DOPE   H5X 6540   3.800   1.673  13.151  3.1420  0.2054  0.1089
   51DOPE   H5Y 6541   3.887   1.566  13.261  0.5648  1.7100 -1.0592
   51DOPE   C36 6542   3.804   1.730  13.363  0.0714 -0.3271  0.1958
   51DOPE   H6X 6543   3.720   1.802  13.354  0.8046  0.6339  0.8506
   51DOPE   H6Y 6544   3.891   1.798  13.349 -0.3366  0.2291  0.3049
   51DOPE   C37 6545   3.806   1.674  13.501  0.4868  0.1838  0.1229
   51DOPE   H7X 6546   3.852   1.573  13.502  1.9306  0.8102 -0.5507
   51DOPE   H7Y 6547   3.870   1.740  13.563 -0.3466  0.2038  0.9957
   51DOPE   C38 6548   3.676   1.667  13.579  0.0964 -0.3379 -0.4291
   51DOPE   H8X 6549   3.586   1.681  13.515  1.0995  1.2381 -1.5813
   51DOPE   H8Y 6550   3.674   1.744  13.659  0.3127 -1.5128  0.7388
   51DOPE   C39 6551   3.652   1.540  13.656  0.0989  0.0145  0.1352
   51DOPE   H9X 6552   3.591   1.466  13.601 -1.9012  1.4586  0.2735
   51DOPE  C310 6553   3.680   1.525  13.785 -0.3373  0.1884 -0.1021
   51DOPE  H10X 6554   3.647   1.437  13.842  2.2583 -0.8035  0.0167
   51DOPE  C311 6555   3.740   1.634  13.880  0.0309 -0.3196  0.3130
   51DOPE  H11X 6556   3.831   1.603  13.936 -0.0048 -0.2271  0.4213
   51DOPE  H11Y 6557   3.764   1.728  13.825 -0.8898 -1.3094 -1.9108
   51DOPE  C312 6558   3.645   1.680  13.992  0.1063  0.4740 -0.0096
   51DOPE  H12X 6559   3.553   1.719  13.944 -0.4873  1.8110  2.0735
   51DOPE  H12Y 6560   3.693   1.766  14.043 -1.2621  0.3957  1.5124
   51DOPE  C313 6561   3.615   1.565  14.092 -0.5380 -0.2277 -0.3598
   51DOPE  H13X 6562   3.529   1.607  14.149  0.8499  0.8544  1.0117
   51DOPE  H13Y 6563   3.579   1.475  14.037 -0.8569 -0.9819  1.0531
   51DOPE  C314 6564   3.730   1.534  14.186  0.2462 -0.8233  0.2565
   51DOPE  H14X 6565   3.785   1.628  14.206  1.1018 -0.9338 -1.3897
   51DOPE  H14Y 6566   3.807   1.480  14.127  0.4839  1.7172 -1.9501
   51DOPE  C315 6567   3.674   1.467  14.316 -0.5189 -0.1053  0.4251
   51DOPE  H15X 6568   3.631   1.370  14.284 -0.8666 -0.0577  0.7421
   51DOPE  H15Y 6569   3.593   1.529  14.360 -0.2936  0.3290  0.2331
   51DOPE  C316 6570   3.792   1.432  14.409 -0.1632 -0.1638 -0.2242
   51DOPE  H16X 6571   3.841   1.531  14.424 -1.1920  0.0553  2.2198
   51DOPE  H16Y 6572   3.860   1.362  14.357 -1.2100 -1.1729 -0.2656
   51DOPE  C317 6573   3.739   1.379  14.544  0.2734  0.3068  0.0187
   51DOPE  H17X 6574   3.650   1.440  14.570  0.0005  0.4149 -1.1156
   51DOPE  H17Y 6575   3.701   1.277  14.521  0.9480  0.2810 -1.0219
   51DOPE  C318 6576   3.836   1.394  14.654 -0.4833  0.6718  0.8733
   51DOPE  H18X 6577   3.817   1.340  14.748  1.7649 -2.0490 -0.1109
   51DOPE  H18Y 6578   3.933   1.349  14.622  0.2367  1.6015  1.6769
   51DOPE  H18Z 6579   3.841   1.503  14.678  0.4585  0.7199  0.5112
   52DOPE     N 6580   0.091   4.485  13.074  0.2659  0.3584  0.0273
   52DOPE   HN1 6581   0.156   4.565  13.060 -0.6638  1.1588  0.1586
   52DOPE   HN2 6582   0.138   4.416  13.136  0.9107  0.3456 -0.4674
   52DOPE   HN3 6583   0.071   4.441  12.982 -0.1719  0.3467  0.1263
   52DOPE   C12 6584  -0.034   4.532  13.132  0.9734  0.4962  0.2684
   52DOPE  H12A 6585  -0.019   4.599  13.219  0.2618 -1.1731  1.7414
   52DOPE  H12B 6586  -0.094   4.443  13.161 -0.7107  1.1077 -1.1225
   52DOPE   C11 6587  -0.103   4.614  13.019  0.6362 -0.4910  0.2197
   52DOPE  H11A 6588  -0.172   4.682  13.073 -0.4579 -1.0376 -0.4426
   52DOPE  H11B 6589  -0.150   4.540  12.949 -0.5500 -0.5369  1.0337
   52DOPE     P 6590  -0.047   4.836  12.880 -0.0438 -0.1463 -0.3749
   52DOPE   O13 6591  -0.187   4.838  12.837 -0.2864  0.2633  0.3296
   52DOPE   O14 6592   0.057   4.872  12.782  0.7938  0.4657  0.5849
   52DOPE   O11 6593  -0.035   4.915  13.018  0.5187  0.2355 -0.1811
   52DOPE   O12 6594  -0.015   4.691  12.939  0.4755 -0.1225  0.1703
   52DOPE    C1 6595   0.083   4.895  13.094  0.0976  0.0097 -0.1065
   52DOPE    HA 6596   0.174   4.903  13.030  0.3126  1.2726  0.3344
   52DOPE    HB 6597   0.095   4.797  13.145  1.8317  1.4522  2.4367
   52DOPE    C2 6598   0.101   5.010  13.194  0.6191  0.2868 -0.7767
   52DOPE    HS 6599   0.194   4.992  13.252 -0.1192  0.2102  0.4155
   52DOPE   O21 6600  -0.018   4.996  13.280 -0.3850 -0.0759  0.4328
   52DOPE   C21 6601  -0.018   4.908  13.373 -0.2475  0.1516 -0.5548
   52DOPE   O22 6602   0.080   4.840  13.406  0.1201 -0.3089  0.4341
   52DOPE   C22 6603  -0.166   4.878  13.401 -0.0995  0.4226  0.0617
   52DOPE   H2R 6604  -0.227   4.892  13.310 -0.6459  0.8307  0.4794
   52DOPE   H2S 6605  -0.205   4.960  13.466  0.2956  2.8185 -2.4990
   52DOPE    C3 6606   0.115   5.153  13.132  0.6871 -0.5840 -0.1325
   52DOPE    HX 6607   0.033   5.172  13.060  0.7463  1.0432  0.1887
   52DOPE    HY 6608   0.200   5.130  13.065  0.9872  0.6337 -0.2045
   52DOPE   O31 6609   0.146   5.269  13.212  0.2920  0.2478  0.2440
   52DOPE   C31 6610   0.091   5.384  13.167  0.5835  0.0398 -0.4738
   52DOPE   O32 6611   0.044   5.395  13.055 -0.1454 -0.5050 -0.1044
   52DOPE   C32 6612   0.089   5.487  13.282 -0.6758 -0.1664 -0.3768
   52DOPE   H2X 6613   0.145   5.574  13.241  1.4374 -0.6063  1.3709
   52DOPE   H2Y 6614  -0.018   5.509  13.300  0.0914  1.8477  2.2563
   52DOPE   C23 6615  -0.170   4.742  13.466 -0.9410  0.6510  0.2632
   52DOPE   H3R 6616  -0.117   4.668  13.402 -2.6138 -1.4184  1.1378
   52DOPE   H3S 6617  -0.274   4.704  13.473 -0.0159 -1.9806  1.2313
   52DOPE   C24 6618  -0.110   4.732  13.611  0.0171  0.6840  1.0595
   52DOPE   H4R 6619  -0.007   4.774  13.614 -0.0530  1.1142 -0.9540
   52DOPE   H4S 6620  -0.108   4.627  13.650  1.7452 -0.4198 -1.6805
   52DOPE   C25 6621  -0.187   4.818  13.713  0.0441  0.2500 -1.3765
   52DOPE   H5R 6622  -0.297   4.803  13.720 -0.0142  0.6580 -1.3813
   52DOPE   H5S 6623  -0.169   4.924  13.686 -2.4485  0.8895 -0.7244
   52DOPE   C26 6624  -0.138   4.792  13.856  0.4331  0.1019  0.4204
   52DOPE   H6R 6625  -0.028   4.794  13.838  0.5464  3.4736  0.8494
   52DOPE   H6S 6626  -0.167   4.690  13.889 -2.0667  0.3487 -0.7838
   52DOPE   C27 6627  -0.178   4.908  13.950  0.5250 -0.0823 -0.3479
   52DOPE   H7R 6628  -0.279   4.935  13.913  1.0267 -0.8889 -2.4337
   52DOPE   H7S 6629  -0.112   4.996  13.934  1.6461 -0.0492  3.4048
   52DOPE   C28 6630  -0.171   4.862  14.095  0.4507 -0.2987  0.6096
   52DOPE   H8R 6631  -0.248   4.784  14.113  0.3115  0.2860  2.8701
   52DOPE   H8S 6632  -0.205   4.945  14.160 -2.3927 -0.6043 -0.3631
   52DOPE   C29 6633  -0.033   4.817  14.138  0.1481 -0.0911 -0.3687
   52DOPE   H9R 6634  -0.008   4.713  14.115 -1.8192  0.1905 -4.6724
   52DOPE  C210 6635   0.061   4.885  14.217  0.3648 -0.3223 -0.1706
   52DOPE  H10R 6636   0.164   4.845  14.220  0.9811  1.1842 -0.2528
   52DOPE  C211 6637   0.038   5.020  14.283 -0.4391  1.1701 -0.3984
   52DOPE  H11R 6638  -0.070   5.047  14.275 -0.9660 -0.2972  1.1308
   52DOPE  H11S 6639   0.099   5.099  14.234 -0.0177  0.5834 -0.8221
   52DOPE  C212 6640   0.083   5.011  14.429 -0.2345 -0.4249  0.2215
   52DOPE  H12R 6641   0.036   4.927  14.485 -1.9656  0.5988  0.3511
   52DOPE  H12S 6642   0.034   5.097  14.479 -0.5166  0.4421 -1.4754
   52DOPE  C213 6643   0.233   5.024  14.459 -0.6046  0.2101 -0.4782
   52DOPE  H13R 6644   0.263   5.121  14.412  0.0728 -1.2787 -3.3510
   52DOPE  H13S 6645   0.295   4.950  14.404  0.5814  0.4268  0.5261
   52DOPE  C214 6646   0.265   5.036  14.613 -0.6352 -0.2297  0.1270
   52DOPE  H14R 6647   0.375   5.047  14.617 -0.7502  1.1303 -0.0750
   52DOPE  H14S 6648   0.233   4.946  14.671  2.2822  0.1231  2.5567
   52DOPE  C215 6649   0.210   5.162  14.673 -0.2365  0.4514  0.6210
   52DOPE  H15R 6650   0.099   5.157  14.684 -0.4051 -0.7669 -1.1150
   52DOPE  H15S 6651   0.222   5.247  14.602 -0.8323 -1.3900 -1.8103
   52DOPE  C216 6652   0.262   5.201  14.812 -1.0680  0.2518 -0.2556
   52DOPE  H16R 6653   0.259   5.114  14.880 -1.4470  0.5741  0.1379
   52DOPE  H16S 6654   0.210   5.288  14.856 -0.7753  0.0104  0.5951
   52DOPE  C217 6655   0.413   5.246  14.802 -0.0732 -0.2348 -0.3080
   52DOPE  H17R 6656   0.415   5.324  14.722 -1.5898 -1.3327 -1.4916
   52DOPE  H17S 6657   0.477   5.161  14.771  0.5814  0.1225  0.0539
   52DOPE  C218 6658   0.450   5.307  14.934  0.7768 -0.6567 -0.4825
   52DOPE  H18R 6659   0.378   5.385  14.967  0.0361 -1.2100 -0.7601
   52DOPE  H18S 6660   0.436   5.235  15.017  0.2378  0.2508  0.2294
   52DOPE  H18T 6661   0.553   5.347  14.934  0.2939  0.7133  1.0778
   52DOPE   C33 6662   0.168   5.447  13.413  0.0573  0.2936  0.2146
   52DOPE   H3X 6663   0.273   5.421  13.388  0.0048  0.5095 -0.2501
   52DOPE   H3Y 6664   0.126   5.352  13.453  0.5887  0.4907  1.2458
   52DOPE   C34 6665   0.175   5.547  13.529 -0.4318 -0.3651 -0.5427
   52DOPE   H4X 6666   0.242   5.628  13.492  1.3487 -0.8553  1.4020
   52DOPE   H4Y 6667   0.075   5.590  13.553 -0.8084 -1.1663 -0.6552
   52DOPE   C35 6668   0.248   5.475  13.647  0.1071  0.2727  0.6022
   52DOPE   H5X 6669   0.342   5.431  13.607  0.3617 -0.6482  2.1453
   52DOPE   H5Y 6670   0.188   5.386  13.676 -0.9582 -0.0427 -2.2104
   52DOPE   C36 6671   0.282   5.569  13.755 -0.4243 -0.2436 -0.4090
   52DOPE   H6X 6672   0.195   5.609  13.811  0.2299 -0.8605  1.1237
   52DOPE   H6Y 6673   0.336   5.655  13.710 -0.1965  0.4652  1.1511
   52DOPE   C37 6674   0.355   5.506  13.875  0.4816  0.1051  0.8370
   52DOPE   H7X 6675   0.428   5.426  13.852 -0.9425 -1.8649  2.7550
   52DOPE   H7Y 6676   0.412   5.583  13.932 -0.0592  0.7998  0.4457
   52DOPE   C38 6677   0.261   5.432  13.975  0.7943  0.8091  0.3958
   52DOPE   H8X 6678   0.223   5.340  13.926  1.2292  1.2069 -0.7077
   52DOPE   H8Y 6679   0.174   5.499  13.994 -0.6507 -1.1651  1.1355
   52DOPE   C39 6680   0.322   5.389  14.107 -0.3908 -0.2455  0.2005
   52DOPE   H9X 6681   0.373   5.291  14.101 -0.2668 -0.1858  0.2814
   52DOPE  C310 6682   0.323   5.445  14.225  0.0577 -0.3741 -0.0229
   52DOPE  H10X 6683   0.367   5.399  14.314  0.1780  1.2211  0.7604
   52DOPE  C311 6684   0.275   5.592  14.243  0.1622  0.1987 -0.5968
   52DOPE  H11X 6685   0.249   5.634  14.144 -3.1236 -0.1404 -0.0108
   52DOPE  H11Y 6686   0.178   5.598  14.297 -1.0428 -2.0226 -2.3115
   52DOPE  C312 6687   0.394   5.661  14.318 -0.2776 -1.2135 -0.7431
   52DOPE  H12X 6688   0.370   5.768  14.299  0.3812 -1.3454 -2.4445
   52DOPE  H12Y 6689   0.488   5.644  14.262  0.7297 -0.5606  0.6750
   52DOPE  C313 6690   0.387   5.630  14.469  0.0072 -0.0046 -1.1898
   52DOPE  H13X 6691   0.287   5.672  14.493  0.2970  0.7114 -1.2383
   52DOPE  H13Y 6692   0.381   5.522  14.496 -2.5619  0.0977 -1.0898
   52DOPE  C314 6693   0.487   5.701  14.558  0.6006  0.2630  0.7975
   52DOPE  H14X 6694   0.587   5.657  14.536  0.9824  1.6959 -0.5691
   52DOPE  H14Y 6695   0.459   5.676  14.663 -0.4019 -0.2087  0.4246
   52DOPE  C315 6696   0.497   5.851  14.517  0.7808 -0.1629 -0.3953
   52DOPE  H15X 6697   0.404   5.909  14.499 -0.8774 -1.6324  2.6284
   52DOPE  H15Y 6698   0.561   5.859  14.427  0.5771 -1.7651 -0.7068
   52DOPE  C316 6699   0.574   5.926  14.630  0.4957  0.4313  0.3846
   52DOPE  H16X 6700   0.662   5.870  14.668 -0.4118 -0.6918  0.8735
   52DOPE  H16Y 6701   0.524   5.935  14.729  1.1788 -1.3499  0.9229
   52DOPE  C317 6702   0.627   6.063  14.582 -0.6337  0.2029 -0.0516
   52DOPE  H17X 6703   0.614   6.083  14.473  1.0406  1.0476 -0.1317
   52DOPE  H17Y 6704   0.577   6.141  14.642 -1.3443 -0.0982 -0.2458
   52DOPE  C318 6705   0.780   6.079  14.614 -0.0852  0.2274  0.6696
   52DOPE  H18X 6706   0.818   6.183  14.606  0.0207  0.1347 -0.1853
   52DOPE  H18Y 6707   0.797   6.045  14.718  2.3312  0.5908  0.4512
   52DOPE  H18Z 6708   0.835   6.006  14.550 -1.2347  1.3400 -1.7462
   53DOPE     N 6709   5.195   1.505  12.046  0.6729  0.0148  0.3352
   53DOPE   HN1 6710   5.126   1.569  12.090 -0.7995 -0.0545 -1.7472
   53DOPE   HN2 6711   5.289   1.538  12.074  1.2404 -2.6317  1.9801
   53DOPE   HN3 6712   5.178   1.517  11.944 -0.7676 -1.7962  0.3008
   53DOPE   C12 6713   5.175   1.356  12.068  0.6268 -0.4970 -0.0460
   53DOPE  H12A 6714   5.260   1.312  12.012 -0.1253  1.9504 -3.4256
   53DOPE  H12B 6715   5.082   1.325  12.016 -0.0979  1.5008 -0.0244
   53DOPE   C11 6716   5.181   1.315  12.218  0.4964  0.1920  0.2081
   53DOPE  H11A 6717   5.289   1.315  12.241  0.1110 -0.7858  2.3635
   53DOPE  H11B 6718   5.145   1.211  12.236 -0.5325  0.4804 -0.1036
   53DOPE     P 6719   4.969   1.383  12.343 -0.4696  0.2362 -0.2561
   53DOPE   O13 6720   4.885   1.336  12.231 -0.4771  0.6557  0.2951
   53DOPE   O14 6721   4.927   1.500  12.422  0.1843  0.1958 -0.5661
   53DOPE   O11 6722   4.987   1.266  12.444 -0.5652 -0.1583  0.2661
   53DOPE   O12 6723   5.118   1.413  12.305  0.0336  0.4717  0.2126
   53DOPE    C1 6724   5.088   1.286  12.547  0.3506  0.1166  0.1509
   53DOPE    HA 6725   5.160   1.370  12.536  0.6771 -0.1782  0.0247
   53DOPE    HB 6726   5.148   1.193  12.555  0.3265 -0.0867 -1.5652
   53DOPE    C2 6727   5.020   1.300  12.690  0.1876  0.4212  0.5521
   53DOPE    HS 6728   5.103   1.282  12.763  2.6234  0.3685 -2.0616
   53DOPE   O21 6729   4.915   1.202  12.705  0.1813 -0.6523  0.6942
   53DOPE   C21 6730   4.961   1.086  12.731  0.3356  0.4631 -0.1073
   53DOPE   O22 6731   5.077   1.059  12.756 -0.5356 -0.0871 -0.3677
   53DOPE   C22 6732   4.852   0.981  12.735  0.2289  0.2115 -0.4703
   53DOPE   H2R 6733   4.871   0.901  12.660  0.6412 -0.5502  0.4313
   53DOPE   H2S 6734   4.757   1.034  12.715  0.1303  0.4403  0.5663
   53DOPE    C3 6735   4.965   1.440  12.725 -0.2020  0.3169 -0.4427
   53DOPE    HX 6736   4.880   1.451  12.654 -1.0280 -2.0996  0.0905
   53DOPE    HY 6737   5.043   1.514  12.699  0.0127  1.1875  2.3414
   53DOPE   O31 6738   4.933   1.456  12.868  0.4385 -0.4065  0.7058
   53DOPE   C31 6739   4.824   1.529  12.889 -0.2769 -0.2177 -0.5025
   53DOPE   O32 6740   4.744   1.567  12.810  0.5091 -0.8162  0.5921
   53DOPE   C32 6741   4.813   1.559  13.039 -0.3554  0.3788  0.2925
   53DOPE   H2X 6742   4.829   1.668  13.055 -0.3162  0.1804  1.6946
   53DOPE   H2Y 6743   4.705   1.542  13.059 -0.0614  1.0096  2.7721
   53DOPE   C23 6744   4.824   0.906  12.872 -0.0223 -0.1822  0.1881
   53DOPE   H3R 6745   4.914   0.844  12.889 -0.3102 -1.1644 -1.6048
   53DOPE   H3S 6746   4.727   0.852  12.875  0.0150 -0.3257 -0.8013
   53DOPE   C24 6747   4.825   1.007  12.988 -0.1992  0.1988  0.2911
   53DOPE   H4R 6748   4.742   1.081  12.978  1.0433  1.7974  1.3052
   53DOPE   H4S 6749   4.918   1.067  12.992  0.1255 -0.3875  3.0766
   53DOPE   C25 6750   4.816   0.938  13.127 -0.2028 -0.0242  0.3494
   53DOPE   H5R 6751   4.885   0.852  13.132 -0.5780 -0.3625 -0.1252
   53DOPE   H5S 6752   4.712   0.901  13.138  0.7530 -3.0989 -0.1080
   53DOPE   C26 6753   4.842   1.030  13.247  0.0158 -0.6750  0.1750
   53DOPE   H6R 6754   4.789   1.126  13.231  1.1810 -0.1466 -0.6498
   53DOPE   H6S 6755   4.951   1.048  13.234 -0.3205 -0.1156 -2.4044
   53DOPE   C27 6756   4.799   0.966  13.378 -0.3946 -0.2611 -0.6626
   53DOPE   H7R 6757   4.826   0.859  13.390  1.1446  0.3851  2.8622
   53DOPE   H7S 6758   4.688   0.962  13.380 -0.4981  1.7875  1.3095
   53DOPE   C28 6759   4.835   1.041  13.511 -0.0944  0.0019  0.4488
   53DOPE   H8R 6760   4.776   1.134  13.505 -0.5972 -0.4194 -2.3452
   53DOPE   H8S 6761   4.942   1.070  13.506 -0.2471  0.3287 -1.4659
   53DOPE   C29 6762   4.794   0.948  13.625  0.4288  0.0497  0.1105
   53DOPE   H9R 6763   4.686   0.925  13.621  0.1497  0.5613  2.9898
   53DOPE  C210 6764   4.855   0.913  13.736 -0.7829 -0.4195  0.2511
   53DOPE  H10R 6765   4.796   0.851  13.805 -0.3699  0.2893  1.2598
   53DOPE  C211 6766   5.005   0.923  13.752 -0.0258 -0.4174  0.2399
   53DOPE  H11R 6767   5.068   0.960  13.668  1.3975 -1.4951  0.7957
   53DOPE  H11S 6768   5.047   0.821  13.765  0.9345 -0.2044 -1.0220
   53DOPE  C212 6769   5.062   0.999  13.875 -0.0715 -0.1818 -0.3693
   53DOPE  H12R 6770   5.056   1.110  13.872  2.1167  0.0013  0.6978
   53DOPE  H12S 6771   5.172   0.985  13.877 -0.0410  0.0667  1.6003
   53DOPE  C213 6772   5.010   0.935  14.004 -0.5869  0.1412 -0.1674
   53DOPE  H13R 6773   5.004   0.826  13.986  0.8343  0.4761 -3.2531
   53DOPE  H13S 6774   4.908   0.975  14.024 -0.8174  0.0601 -1.1526
   53DOPE  C214 6775   5.098   0.952  14.128 -0.1258 -0.2188 -0.3443
   53DOPE  H14R 6776   5.205   0.954  14.097 -0.4901 -0.6255 -1.6997
   53DOPE  H14S 6777   5.099   0.858  14.187  0.7467 -1.1697 -1.7997
   53DOPE  C215 6778   5.063   1.071  14.220 -0.0740  0.6579  0.3280
   53DOPE  H15R 6779   4.954   1.062  14.241 -0.1819 -0.0799 -0.4561
   53DOPE  H15S 6780   5.087   1.164  14.164  0.7223  0.4083  0.2426
   53DOPE  C216 6781   5.140   1.078  14.359  0.2199 -0.1279  0.5091
   53DOPE  H16R 6782   5.239   1.029  14.348  0.5483  0.7390 -0.6704
   53DOPE  H16S 6783   5.092   1.020  14.440  0.0516 -1.8739 -0.7816
   53DOPE  C217 6784   5.157   1.221  14.402 -0.4273 -0.5859  0.0227
   53DOPE  H17R 6785   5.055   1.264  14.395 -0.8713 -1.8476 -2.5126
   53DOPE  H17S 6786   5.213   1.276  14.323  2.0063 -2.1778  0.5207
   53DOPE  C218 6787   5.221   1.226  14.540  0.2918 -0.7192  0.4662
   53DOPE  H18R 6788   5.314   1.166  14.537  0.0727 -1.0377 -0.7787
   53DOPE  H18S 6789   5.155   1.173  14.612 -2.0688  1.2317 -0.1070
   53DOPE  H18T 6790   5.240   1.330  14.574 -1.3978 -0.8092  1.8080
   53DOPE   C33 6791   4.906   1.494  13.137 -0.3343  0.0171  0.7986
   53DOPE   H3X 6792   5.012   1.515  13.112 -0.7928 -0.3595 -1.6963
   53DOPE   H3Y 6793   4.900   1.384  13.123  1.5282  0.2398 -2.9556
   53DOPE   C34 6794   4.875   1.537  13.278  0.1772 -0.6069 -0.1321
   53DOPE   H4X 6795   4.914   1.641  13.287  1.2763 -1.1632  2.4268
   53DOPE   H4Y 6796   4.765   1.542  13.295 -0.0427  2.2069 -1.7617
   53DOPE   C35 6797   4.929   1.448  13.389 -0.1930  0.0521 -0.0172
   53DOPE   H5X 6798   5.039   1.443  13.406  0.0002  0.1748 -1.1251
   53DOPE   H5Y 6799   4.902   1.342  13.372  0.9067 -0.4429  1.1512
   53DOPE   C36 6800   4.866   1.488  13.529  0.2401  0.0963  0.3958
   53DOPE   H6X 6801   4.756   1.477  13.512 -0.0357  2.0885  0.5779
   53DOPE   H6Y 6802   4.876   1.596  13.556 -1.0256  0.5403 -0.7704
   53DOPE   C37 6803   4.921   1.405  13.648  0.1148 -0.0987 -0.1920
   53DOPE   H7X 6804   4.892   1.301  13.624 -0.9929  0.0697  0.3423
   53DOPE   H7Y 6805   5.030   1.411  13.671 -0.4677 -1.5208  3.6624
   53DOPE   C38 6806   4.853   1.446  13.786  0.2759  0.4323  0.1653
   53DOPE   H8X 6807   4.747   1.411  13.778  0.4941 -0.0951 -0.5047
   53DOPE   H8Y 6808   4.857   1.557  13.791 -0.2287  0.6301 -2.3165
   53DOPE   C39 6809   4.927   1.374  13.901  0.1054  0.2003  0.5261
   53DOPE   H9X 6810   5.025   1.337  13.866  0.6456  3.0218 -1.2668
   53DOPE  C310 6811   4.915   1.378  14.036 -0.0894  0.0652  0.2957
   53DOPE  H10X 6812   4.980   1.311  14.094 -0.0188  2.9966  3.9995
   53DOPE  C311 6813   4.805   1.441  14.125 -0.6550 -0.1447 -0.1158
   53DOPE  H11X 6814   4.713   1.465  14.068 -0.6515  1.3089  0.4604
   53DOPE  H11Y 6815   4.785   1.369  14.207 -1.1247  2.9973  2.7756
   53DOPE  C312 6816   4.831   1.570  14.211 -0.5631 -0.1402  0.7143
   53DOPE  H12X 6817   4.862   1.650  14.140  0.0145  1.5528  2.7987
   53DOPE  H12Y 6818   4.913   1.559  14.284 -0.6475 -0.9622  0.6923
   53DOPE  C313 6819   4.702   1.615  14.282  0.5244 -0.0265  0.3744
   53DOPE  H13X 6820   4.718   1.716  14.326 -3.2442  0.9548 -0.1943
   53DOPE  H13Y 6821   4.627   1.624  14.201 -0.6315 -0.7488  1.3265
   53DOPE  C314 6822   4.652   1.512  14.388  0.1231  0.2293  0.6739
   53DOPE  H14X 6823   4.655   1.407  14.352  0.0747  0.1675  0.8534
   53DOPE  H14Y 6824   4.547   1.539  14.413  0.2391  1.3861  0.0008
   53DOPE  C315 6825   4.747   1.536  14.513 -0.1313 -0.3783  0.2231
   53DOPE  H15X 6826   4.744   1.642  14.546 -1.0314 -0.1468 -0.5593
   53DOPE  H15Y 6827   4.850   1.504  14.487 -0.8815 -1.7196 -1.3054
   53DOPE  C316 6828   4.687   1.474  14.639  0.1552  0.1016 -0.5047
   53DOPE  H16X 6829   4.580   1.490  14.661  0.2117 -0.2186  0.0115
   53DOPE  H16Y 6830   4.736   1.525  14.725 -0.8604 -0.3608  0.3639
   53DOPE  C317 6831   4.708   1.321  14.641  0.2003  0.7831  0.0877
   53DOPE  H17X 6832   4.645   1.276  14.561  1.0501 -0.4642  0.0885
   53DOPE  H17Y 6833   4.809   1.292  14.604 -0.2402  2.6557 -2.9448
   53DOPE  C318 6834   4.689   1.249  14.774 -0.4281  0.4713  0.0803
   53DOPE  H18X 6835   4.586   1.272  14.808 -0.3661 -1.8226  2.0558
   53DOPE  H18Y 6836   4.687   1.138  14.765  0.2657  0.4589 -0.0210
   53DOPE  H18Z 6837   4.764   1.286  14.848 -1.5302  1.0027  0.9493
   54DOPE     N 6838   0.670   3.683  13.023  0.5948 -0.0554  0.1376
   54DOPE   HN1 6839   0.706   3.586  13.008 -0.6637 -0.2692 -1.9418
   54DOPE   HN2 6840   0.728   3.729  13.095  1.3010  0.8393 -0.9613
   54DOPE   HN3 6841   0.574   3.679  13.064  0.2573  1.4285 -0.4429
   54DOPE   C12 6842   0.665   3.771  12.902  0.3106  0.0204  0.4426
   54DOPE  H12A 6843   0.647   3.709  12.812  2.4962 -1.2118  0.7788
   54DOPE  H12B 6844   0.760   3.827  12.888  1.1333 -1.4057  0.1161
   54DOPE   C11 6845   0.557   3.880  12.928  0.5093  0.4042 -0.9673
   54DOPE  H11A 6846   0.459   3.846  12.968  1.2218  0.1102  0.6168
   54DOPE  H11B 6847   0.520   3.930  12.836  2.1049 -0.1810 -1.9748
   54DOPE     P 6848   0.546   4.013  13.147 -0.1683  0.5298  0.0770
   54DOPE   O13 6849   0.398   4.024  13.121  0.1476  0.0376 -0.4862
   54DOPE   O14 6850   0.632   4.112  13.208 -0.1194  0.2492  0.7544
   54DOPE   O11 6851   0.567   3.880  13.229  0.4199 -0.0548  0.3233
   54DOPE   O12 6852   0.612   3.988  13.008  0.1096  0.1801  0.6814
   54DOPE    C1 6853   0.485   3.849  13.340 -0.5197 -0.4278 -0.4133
   54DOPE    HA 6854   0.434   3.750  13.335  0.2982 -0.9935  1.3155
   54DOPE    HB 6855   0.405   3.923  13.363 -0.0691  0.2433 -0.9925
   54DOPE    C2 6856   0.572   3.836  13.467 -0.5997  0.0742  0.0519
   54DOPE    HS 6857   0.508   3.824  13.557  0.7128  0.3766  1.0612
   54DOPE   O21 6858   0.654   3.953  13.487  0.0711 -0.4341  0.3911
   54DOPE   C21 6859   0.588   4.052  13.554  0.5199  0.7650 -0.4200
   54DOPE   O22 6860   0.468   4.050  13.589 -0.1810 -0.1740  0.2183
   54DOPE   C22 6861   0.684   4.154  13.612 -0.9312 -0.1139 -0.2345
   54DOPE   H2R 6862   0.658   4.157  13.720 -0.6621  4.5024 -0.1037
   54DOPE   H2S 6863   0.670   4.258  13.574  1.4799  0.1316 -0.6244
   54DOPE    C3 6864   0.663   3.706  13.456  0.5341  0.2637 -0.1903
   54DOPE    HX 6865   0.703   3.694  13.559  0.1673 -0.1248 -0.0901
   54DOPE    HY 6866   0.746   3.730  13.387 -0.9301  0.6526 -1.8757
   54DOPE   O31 6867   0.576   3.593  13.441 -0.4913 -0.6316 -0.3048
   54DOPE   C31 6868   0.610   3.493  13.368  0.7783 -0.4035 -0.4862
   54DOPE   O32 6869   0.716   3.478  13.313 -1.0860 -1.0556 -0.1542
   54DOPE   C32 6870   0.506   3.384  13.372  0.5707 -0.1254  0.3543
   54DOPE   H2X 6871   0.426   3.418  13.303  0.2154 -1.6622 -0.0130
   54DOPE   H2Y 6872   0.550   3.288  13.337  1.0039 -0.3878  1.5790
   54DOPE   C23 6873   0.840   4.117  13.602  0.5467  0.5100  0.1647
   54DOPE   H3R 6874   0.867   4.137  13.496  2.0734  0.2698  0.4958
   54DOPE   H3S 6875   0.841   4.007  13.614 -0.9670  0.4457 -0.0088
   54DOPE   C24 6876   0.939   4.200  13.694  0.1885  0.2183  0.3145
   54DOPE   H4R 6877   0.925   4.305  13.662  1.3477  0.9599  2.0394
   54DOPE   H4S 6878   1.041   4.166  13.663 -0.2915 -0.3562 -0.6699
   54DOPE   C25 6879   0.915   4.185  13.851 -0.4284 -0.2935 -0.1810
   54DOPE   H5R 6880   0.920   4.077  13.876  0.4027 -0.0699  0.6494
   54DOPE   H5S 6881   0.813   4.218  13.880  0.6747  2.8850  0.5429
   54DOPE   C26 6882   1.006   4.282  13.937 -0.1527  0.4996  0.1295
   54DOPE   H6R 6883   0.951   4.378  13.940 -0.0624  0.5433  0.3958
   54DOPE   H6S 6884   1.109   4.288  13.897 -0.5965 -2.0649 -1.7019
   54DOPE   C27 6885   1.010   4.243  14.085  0.1359 -0.1956  0.4672
   54DOPE   H7R 6886   1.056   4.141  14.087  0.5958 -0.0098 -0.3004
   54DOPE   H7S 6887   0.911   4.233  14.133  0.0914  0.6214  0.5558
   54DOPE   C28 6888   1.093   4.336  14.178  0.3254  0.4026  0.2885
   54DOPE   H8R 6889   1.196   4.326  14.139 -0.3261 -3.4437 -0.9249
   54DOPE   H8S 6890   1.094   4.297  14.282  0.8219 -1.4748 -0.3724
   54DOPE   C29 6891   1.037   4.481  14.165 -0.0975  0.2581  0.0399
   54DOPE   H9R 6892   1.045   4.539  14.072 -2.6790  3.4745  1.6454
   54DOPE  C210 6893   0.963   4.547  14.257 -0.2354  0.6050 -0.0553
   54DOPE  H10R 6894   0.932   4.647  14.226 -0.7290  0.0986 -1.2529
   54DOPE  C211 6895   0.950   4.506  14.399 -0.5418 -0.4208 -0.2355
   54DOPE  H11R 6896   0.931   4.592  14.467  0.3070 -0.2592 -0.1954
   54DOPE  H11S 6897   1.045   4.459  14.432  0.0563 -0.5322 -2.0136
   54DOPE  C212 6898   0.835   4.399  14.412 -0.1681 -0.4938 -0.8598
   54DOPE  H12R 6899   0.878   4.309  14.363 -0.1778 -0.5495 -0.7664
   54DOPE  H12S 6900   0.744   4.434  14.358  1.1910  1.0523 -2.2815
   54DOPE  C213 6901   0.789   4.361  14.553  0.2071 -0.5196  0.0681
   54DOPE  H13R 6902   0.733   4.268  14.529 -0.0740 -0.2003 -0.5259
   54DOPE  H13S 6903   0.732   4.451  14.587 -2.1544 -1.7282 -0.4693
   54DOPE  C214 6904   0.892   4.345  14.656  0.1249  0.2222  0.4467
   54DOPE  H14R 6905   0.951   4.439  14.666  0.5559 -0.0710  0.7114
   54DOPE  H14S 6906   0.959   4.259  14.633  1.6982  1.7039 -0.8573
   54DOPE  C215 6907   0.823   4.320  14.794 -0.0132 -0.2642 -0.1682
   54DOPE  H15R 6908   0.743   4.244  14.783 -1.3477  1.0881 -0.0390
   54DOPE  H15S 6909   0.787   4.420  14.827  0.5024  0.2624 -1.1662
   54DOPE  C216 6910   0.924   4.273  14.894  0.9631  0.5720  0.2162
   54DOPE  H16R 6911   1.004   4.350  14.897 -1.5780  3.9119 -4.2662
   54DOPE  H16S 6912   0.966   4.180  14.851  1.4497  0.6745  0.4689
   54DOPE  C217 6913   0.856   4.238  15.034  0.2838 -0.1341 -0.1670
   54DOPE  H17R 6914   0.790   4.149  15.028  0.4547 -0.2684 -0.0585
   54DOPE  H17S 6915   0.792   4.321  15.069  1.8117  0.7780  0.5520
   54DOPE  C218 6916   0.959   4.215  15.137  0.6446  0.0147  0.2311
   54DOPE  H18R 6917   0.901   4.176  15.223 -0.8817  1.9096  0.1152
   54DOPE  H18S 6918   1.008   4.303  15.183 -1.2727  0.0405  2.4047
   54DOPE  H18T 6919   1.028   4.128  15.126  1.7426  0.9067 -0.0433
   54DOPE   C33 6920   0.460   3.341  13.517 -0.6029 -0.1490  0.2479
   54DOPE   H3X 6921   0.547   3.340  13.585 -1.2700 -1.2760  1.1166
   54DOPE   H3Y 6922   0.425   3.237  13.528 -4.8562  1.0186 -0.3286
   54DOPE   C34 6923   0.350   3.430  13.574  0.2550  0.0174  0.2449
   54DOPE   H4X 6924   0.364   3.522  13.512  0.2729 -0.5528 -0.6169
   54DOPE   H4Y 6925   0.248   3.389  13.556  0.5777 -0.8780  0.4094
   54DOPE   C35 6926   0.372   3.466  13.722  1.3001  0.4265  0.3718
   54DOPE   H5X 6927   0.371   3.378  13.789 -0.2431 -0.6451 -0.9864
   54DOPE   H5Y 6928   0.285   3.531  13.745  0.1601 -1.2258  0.9179
   54DOPE   C36 6929   0.494   3.548  13.759  0.1333  0.3404 -0.5466
   54DOPE   H6X 6930   0.502   3.634  13.689 -1.9805  0.5137 -0.6421
   54DOPE   H6Y 6931   0.578   3.477  13.745 -1.8808 -2.3401  0.2539
   54DOPE   C37 6932   0.476   3.600  13.900  0.3890  0.4651 -0.3269
   54DOPE   H7X 6933   0.385   3.663  13.900  0.3534  0.4466 -1.9048
   54DOPE   H7Y 6934   0.476   3.520  13.978 -0.1186 -0.7327 -1.5210
   54DOPE   C38 6935   0.593   3.695  13.937 -0.0471 -0.3596  0.1113
   54DOPE   H8X 6936   0.684   3.670  13.879  1.4927  1.9380  1.3631
   54DOPE   H8Y 6937   0.623   3.689  14.044 -3.0277  2.0098  1.2362
   54DOPE   C39 6938   0.558   3.833  13.897 -0.2966 -0.3486  0.1663
   54DOPE   H9X 6939   0.514   3.850  13.798 -2.2746 -0.4204  0.9863
   54DOPE  C310 6940   0.572   3.935  13.980 -0.0077  0.4669  0.1405
   54DOPE  H10X 6941   0.555   4.036  13.940  0.3840  0.6623  0.4657
   54DOPE  C311 6942   0.606   3.955  14.129  0.8882 -0.0431  0.0917
   54DOPE  H11X 6943   0.586   4.060  14.159  1.0514 -0.0231  0.1304
   54DOPE  H11Y 6944   0.551   3.893  14.203  0.9817  1.9994  1.9841
   54DOPE  C312 6945   0.758   3.948  14.145  0.0197  0.2584  1.2254
   54DOPE  H12X 6946   0.809   4.011  14.069 -0.4675 -1.5302 -0.6759
   54DOPE  H12Y 6947   0.802   3.847  14.133 -2.2060 -0.7357  0.9253
   54DOPE  C313 6948   0.824   4.001  14.274  1.2120  0.8168  0.1578
   54DOPE  H13X 6949   0.930   3.970  14.265  0.8090 -0.1396 -1.6503
   54DOPE  H13Y 6950   0.812   4.111  14.274  0.9713  0.8211 -1.6948
   54DOPE  C314 6951   0.756   3.938  14.394 -0.3806 -0.3555  0.1598
   54DOPE  H14X 6952   0.744   3.829  14.378  3.3854 -1.2251  2.2504
   54DOPE  H14Y 6953   0.655   3.983  14.409 -0.3067  1.5740 -4.0034
   54DOPE  C315 6954   0.831   3.938  14.529  0.0194 -0.0715 -0.6983
   54DOPE  H15X 6955   0.883   4.033  14.556  1.4246 -0.7198 -1.0346
   54DOPE  H15Y 6956   0.912   3.863  14.520 -1.1642 -1.8224  2.1413
   54DOPE  C316 6957   0.730   3.903  14.641 -0.0545 -0.4752  1.1270
   54DOPE  H16X 6958   0.690   3.803  14.613  2.9202 -1.7341  0.9714
   54DOPE  H16Y 6959   0.647   3.977  14.636  0.0410 -0.4422 -1.1219
   54DOPE  C317 6960   0.804   3.893  14.775  0.4246 -0.3463 -0.0672
   54DOPE  H17X 6961   0.881   3.815  14.758  0.8189  0.0910 -0.2920
   54DOPE  H17Y 6962   0.858   3.989  14.791 -0.1230  0.1352 -0.9951
   54DOPE  C318 6963   0.711   3.859  14.894 -0.6131 -0.4773 -0.0977
   54DOPE  H18X 6964   0.640   3.784  14.853  1.5947 -1.7428 -1.9041
   54DOPE  H18Y 6965   0.770   3.825  14.982  1.4001  2.0561 -0.3457
   54DOPE  H18Z 6966   0.653   3.950  14.916 -0.1413  0.2050 -1.5229
   55DOPE     N 6967   0.456   6.143  12.530 -0.3538  0.0766  0.3743
   55DOPE   HN1 6968   0.552   6.182  12.531 -0.3187  0.1144 -1.1124
   55DOPE   HN2 6969   0.461   6.039  12.530 -1.6759 -0.0146 -0.2052
   55DOPE   HN3 6970   0.412   6.183  12.444  1.3783  0.7899 -0.2322
   55DOPE   C12 6971   0.389   6.183  12.654 -0.2094 -0.0223  0.3341
   55DOPE  H12A 6972   0.451   6.146  12.738 -0.6118  1.3335  1.2754
   55DOPE  H12B 6973   0.295   6.124  12.654 -0.1857 -0.0680 -0.7785
   55DOPE   C11 6974   0.368   6.335  12.664 -0.3867  0.2567  0.4365
   55DOPE  H11A 6975   0.302   6.352  12.751 -0.5426  1.5662  0.0871
   55DOPE  H11B 6976   0.314   6.366  12.572  1.4899 -1.2705 -1.2957
   55DOPE     P 6977   0.515   6.513  12.790  0.1431 -0.0385  0.0774
   55DOPE   O13 6978   0.440   6.634  12.758  0.0355  0.0804  0.2302
   55DOPE   O14 6979   0.657   6.523  12.823 -0.3756 -0.3537  0.0102
   55DOPE   O11 6980   0.438   6.457  12.912  0.1470  0.0417 -0.0759
   55DOPE   O12 6981   0.491   6.409  12.675  0.2260 -0.3738  0.3216
   55DOPE    C1 6982   0.363   6.529  13.009  0.1894  0.5735 -0.4048
   55DOPE    HA 6983   0.265   6.553  12.961 -0.7506 -2.4600 -0.2021
   55DOPE    HB 6984   0.425   6.612  13.050  0.5992 -0.6605  1.6118
   55DOPE    C2 6985   0.315   6.445  13.135 -0.1791 -0.0279  0.3981
   55DOPE    HS 6986   0.251   6.512  13.196 -1.3342  0.7674 -1.5621
   55DOPE   O21 6987   0.445   6.418  13.210  0.1554 -0.0474 -0.0683
   55DOPE   C21 6988   0.428   6.409  13.342 -0.2118 -0.1709 -0.0529
   55DOPE   O22 6989   0.322   6.425  13.404  0.2055 -0.0885  0.3950
   55DOPE   C22 6990   0.558   6.380  13.406 -1.3024 -0.4708 -0.7121
   55DOPE   H2R 6991   0.627   6.463  13.381  0.3300 -1.6268 -0.2266
   55DOPE   H2S 6992   0.611   6.287  13.374  2.2487  0.2930  2.2457
   55DOPE    C3 6993   0.253   6.314  13.072 -0.3244 -1.0721  0.2924
   55DOPE    HX 6994   0.326   6.283  12.994  0.6940  1.2576  0.2307
   55DOPE    HY 6995   0.158   6.335  13.018 -0.1503 -2.8176 -0.7884
   55DOPE   O31 6996   0.241   6.205  13.167  0.3531  0.6824  0.0119
   55DOPE   C31 6997   0.141   6.220  13.252 -0.0014  0.1843 -0.6014
   55DOPE   O32 6998   0.049   6.299  13.235 -0.0801 -0.2464  0.0383
   55DOPE   C32 6999   0.133   6.103  13.347  0.0260  0.6505  0.7766
   55DOPE   H2X 7000   0.034   6.055  13.333  0.6526 -0.3961 -0.2076
   55DOPE   H2Y 7001   0.204   6.027  13.307 -0.7709 -0.3762  1.2628
   55DOPE   C23 7002   0.552   6.379  13.562  0.1120 -0.6397 -0.0333
   55DOPE   H3R 7003   0.468   6.312  13.588  0.1460 -0.8404 -0.4358
   55DOPE   H3S 7004   0.520   6.477  13.604 -1.4582 -2.5283  3.6575
   55DOPE   C24 7005   0.685   6.350  13.633  0.0817  0.1543  0.1682
   55DOPE   H4R 7006   0.768   6.423  13.628 -0.4150  0.8150  1.2496
   55DOPE   H4S 7007   0.740   6.257  13.603  0.8178  0.7851 -0.4923
   55DOPE   C25 7008   0.667   6.330  13.788  0.2463 -0.1589 -0.2682
   55DOPE   H5R 7009   0.614   6.426  13.804 -0.2382  0.3353 -4.0437
   55DOPE   H5S 7010   0.769   6.335  13.831  1.3455 -0.1225 -2.7168
   55DOPE   C26 7011   0.603   6.199  13.831 -0.2169 -0.1537  0.5692
   55DOPE   H6R 7012   0.669   6.113  13.809 -0.7146 -0.2616 -0.5898
   55DOPE   H6S 7013   0.511   6.182  13.771  0.7369 -1.0157 -0.7104
   55DOPE   C27 7014   0.585   6.201  13.982 -0.2771  0.0071 -0.2023
   55DOPE   H7R 7015   0.684   6.232  14.022 -0.9768  0.7802  0.9681
   55DOPE   H7S 7016   0.539   6.105  14.013  1.1028 -0.2116  1.2665
   55DOPE   C28 7017   0.479   6.313  14.027  0.7477  0.7027  0.6242
   55DOPE   H8R 7018   0.389   6.321  13.961 -0.1288 -0.8189  1.5860
   55DOPE   H8S 7019   0.523   6.415  14.022 -1.5076  1.7072 -0.0820
   55DOPE   C29 7020   0.442   6.283  14.168  0.3992  0.9700 -0.3496
   55DOPE   H9R 7021   0.347   6.231  14.186  1.7317 -1.8765 -1.0004
   55DOPE  C210 7022   0.514   6.320  14.276  0.5011  0.9256  0.1726
   55DOPE  H10R 7023   0.472   6.287  14.372  0.6824  1.1881  0.3438
   55DOPE  C211 7024   0.637   6.400  14.288 -0.0455  0.1075 -0.3302
   55DOPE  H11R 7025   0.677   6.428  14.188  0.1337 -2.5744 -1.0842
   55DOPE  H11S 7026   0.718   6.357  14.350 -2.2366 -0.4917  2.3030
   55DOPE  C212 7027   0.605   6.526  14.385  0.9727 -0.2480 -0.5282
   55DOPE  H12R 7028   0.501   6.562  14.370  1.0635 -0.2468 -1.1670
   55DOPE  H12S 7029   0.674   6.610  14.362 -2.6064  2.9768 -0.5325
   55DOPE  C213 7030   0.633   6.483  14.531 -0.0987 -0.0349  0.1882
   55DOPE  H13R 7031   0.741   6.457  14.535  0.0950  0.8532  0.9011
   55DOPE  H13S 7032   0.576   6.388  14.535 -2.7642  1.4844  0.5118
   55DOPE  C214 7033   0.610   6.577  14.643 -1.0246 -0.4314 -0.4438
   55DOPE  H14R 7034   0.523   6.644  14.630  1.3889  3.1090  0.1793
   55DOPE  H14S 7035   0.695   6.649  14.651 -1.4684 -0.1307  2.4299
   55DOPE  C215 7036   0.612   6.491  14.773  0.5595 -0.3299 -0.1032
   55DOPE  H15R 7037   0.689   6.411  14.767  1.0112  0.1918 -1.8270
   55DOPE  H15S 7038   0.514   6.441  14.779  0.3933 -0.1085 -0.8602
   55DOPE  C216 7039   0.626   6.583  14.895 -1.0010 -0.6329 -0.3589
   55DOPE  H16R 7040   0.709   6.654  14.874 -1.0382 -0.7071 -0.7589
   55DOPE  H16S 7041   0.653   6.518  14.981 -1.2817 -0.0320  0.1919
   55DOPE  C217 7042   0.499   6.661  14.928  0.1113 -0.1606  0.0323
   55DOPE  H17R 7043   0.415   6.598  14.891 -1.3508  1.0280  1.1919
   55DOPE  H17S 7044   0.492   6.748  14.859 -2.1611 -1.3109 -1.3086
   55DOPE  C218 7045   0.479   6.691  15.073  0.1448  0.5039  0.2100
   55DOPE  H18R 7046   0.391   6.756  15.093  0.5143  1.1988 -0.3878
   55DOPE  H18S 7047   0.567   6.735  15.123  0.8953 -2.6556  1.9703
   55DOPE  H18T 7048   0.464   6.593  15.123 -0.0169  1.5686  2.3398
   55DOPE   C33 7049   0.146   6.130  13.500  0.2238 -0.3451  0.0888
   55DOPE   H3X 7050   0.060   6.189  13.539 -0.5180 -0.5782 -1.1328
   55DOPE   H3Y 7051   0.238   6.187  13.528  0.7103 -1.7377  1.5106
   55DOPE   C34 7052   0.167   6.001  13.578  0.0687 -0.5914  0.2894
   55DOPE   H4X 7053   0.075   5.940  13.565 -0.4983  0.3986 -0.5743
   55DOPE   H4Y 7054   0.250   5.944  13.531  0.1008 -0.9996  0.8309
   55DOPE   C35 7055   0.201   6.041  13.719 -0.0943 -0.1173 -0.6735
   55DOPE   H5X 7056   0.124   6.109  13.761  0.8523  1.3089 -1.1609
   55DOPE   H5Y 7057   0.295   6.100  13.725 -0.6423  1.0429 -2.4554
   55DOPE   C36 7058   0.223   5.928  13.813  0.1579  0.4833  0.4641
   55DOPE   H6X 7059   0.312   5.883  13.765  0.3667  1.4764 -0.1116
   55DOPE   H6Y 7060   0.133   5.863  13.809  1.0469 -0.7617 -2.7114
   55DOPE   C37 7061   0.261   5.972  13.950  0.1225  0.6047  0.2771
   55DOPE   H7X 7062   0.311   5.888  14.001 -0.0638  0.7174  0.6469
   55DOPE   H7Y 7063   0.336   6.053  13.939 -0.4534  0.9205 -1.8591
   55DOPE   C38 7064   0.139   6.008  14.038  0.3821 -0.4278  0.8385
   55DOPE   H8X 7065   0.074   6.085  13.991 -0.3035 -1.5819 -0.1604
   55DOPE   H8Y 7066   0.179   6.041  14.136  0.9152 -1.6943  1.0606
   55DOPE   C39 7067   0.045   5.891  14.064 -0.3422 -0.0481  0.0055
   55DOPE   H9X 7068   0.025   5.827  13.977 -2.9010 -1.0117  1.1798
   55DOPE  C310 7069  -0.010   5.868  14.184 -0.0540 -0.0205 -0.5038
   55DOPE  H10X 7070  -0.084   5.786  14.188 -0.5262  0.3789 -1.0655
   55DOPE  C311 7071  -0.020   5.963  14.306  0.6089 -0.1577 -0.2067
   55DOPE  H11X 7072   0.000   6.070  14.284 -0.5452  0.1841  0.3239
   55DOPE  H11Y 7073  -0.120   5.973  14.353  0.0746  1.9841 -1.6524
   55DOPE  C312 7074   0.091   5.929  14.407  0.0707  0.2548  0.6234
   55DOPE  H12X 7075   0.189   5.948  14.359 -0.5466 -0.6133 -1.0635
   55DOPE  H12Y 7076   0.094   5.828  14.452 -0.9500 -0.2223 -0.3332
   55DOPE  C313 7077   0.090   6.031  14.524 -0.6240 -0.6411 -0.3283
   55DOPE  H13X 7078  -0.011   6.026  14.568 -0.7151  0.3193 -0.4048
   55DOPE  H13Y 7079   0.167   6.001  14.598  0.8265  3.9350  0.3697
   55DOPE  C314 7080   0.130   6.174  14.479 -0.2950  0.0398 -0.1170
   55DOPE  H14X 7081   0.036   6.224  14.447  0.6338  1.0977 -1.2949
   55DOPE  H14Y 7082   0.199   6.177  14.392  0.4083 -2.2987  0.3054
   55DOPE  C315 7083   0.186   6.260  14.595 -0.2831 -0.0871  0.0549
   55DOPE  H15X 7084   0.184   6.367  14.567  1.2027 -0.0253  0.1352
   55DOPE  H15Y 7085   0.288   6.226  14.621 -0.1676 -1.0095 -1.4560
   55DOPE  C316 7086   0.110   6.250  14.727  0.7683 -0.2775  0.5301
   55DOPE  H16X 7087   0.136   6.158  14.784  0.5598 -1.0510 -0.5898
   55DOPE  H16Y 7088   0.000   6.251  14.709  0.8697  1.9492 -0.1725
   55DOPE  C317 7089   0.150   6.360  14.818 -0.3924 -0.4744  0.2122
   55DOPE  H17X 7090   0.260   6.368  14.835 -0.2432  1.5240 -1.4106
   55DOPE  H17Y 7091   0.131   6.454  14.762  0.5301 -0.9863 -1.0067
   55DOPE  C318 7092   0.068   6.377  14.940  0.4775 -0.1475 -0.0363
   55DOPE  H18X 7093   0.123   6.425  15.023 -0.6302  0.7431  0.2052
   55DOPE  H18Y 7094  -0.029   6.427  14.920 -0.1957 -0.6848  1.7232
   55DOPE  H18Z 7095   0.039   6.274  14.969 -0.8017 -0.2828 -1.6123
   56DOPE     N 7096   0.981   0.123  12.300  0.8140  0.0999 -0.1011
   56DOPE   HN1 7097   0.883   0.154  12.320  1.2263  0.1053  2.3176
   56DOPE   HN2 7098   0.994   0.128  12.197 -1.5384 -1.9286 -0.5798
   56DOPE   HN3 7099   0.993   0.025  12.331  0.3861 -0.0233 -0.3299
   56DOPE   C12 7100   1.079   0.210  12.386  0.2838 -0.2148  0.0076
   56DOPE  H12A 7101   1.070   0.310  12.338 -1.0012 -0.3229  0.0061
   56DOPE  H12B 7102   1.186   0.178  12.385  0.8498  1.4167  1.8202
   56DOPE   C11 7103   1.051   0.213  12.535  0.7115  0.2813 -0.3507
   56DOPE  H11A 7104   1.133   0.269  12.586  0.6097  1.0727 -1.0236
   56DOPE  H11B 7105   1.053   0.107  12.568 -0.9168  0.6026  0.9135
   56DOPE     P 7106   0.803   0.203  12.642  0.0182  0.2576 -0.1461
   56DOPE   O13 7107   0.751   0.093  12.561 -0.2549 -0.1677 -0.2046
   56DOPE   O14 7108   0.706   0.304  12.686 -0.3094  0.4728  0.2547
   56DOPE   O11 7109   0.885   0.153  12.771 -0.4386  0.2303  0.0583
   56DOPE   O12 7110   0.922   0.268  12.562  0.4835  0.1155  0.0174
   56DOPE    C1 7111   0.964   0.250  12.840 -0.4971  0.3962 -0.2324
   56DOPE    HA 7112   0.925   0.349  12.807 -3.4995 -0.9354 -1.0885
   56DOPE    HB 7113   1.073   0.235  12.825 -0.3666 -0.1709  1.1315
   56DOPE    C2 7114   0.938   0.243  12.990  0.9102  0.2376 -0.0734
   56DOPE    HS 7115   0.988   0.151  13.027  1.1214  0.9052  1.3762
   56DOPE   O21 7116   0.798   0.242  13.021 -0.4952 -0.2112  0.1159
   56DOPE   C21 7117   0.741   0.128  13.047  0.3072  0.1280  0.4400
   56DOPE   O22 7118   0.804   0.021  13.059  0.1971 -0.5760 -0.1185
   56DOPE   C22 7119   0.588   0.152  13.072 -0.3958 -0.1805 -0.4239
   56DOPE   H2R 7120   0.535   0.057  13.047 -0.9990 -0.8050  2.8668
   56DOPE   H2S 7121   0.548   0.240  13.016  1.2092  0.3471 -0.7825
   56DOPE    C3 7122   1.005   0.360  13.072 -0.5878  1.0042  0.2328
   56DOPE    HX 7123   0.969   0.462  13.046  1.2363  2.1460  1.8943
   56DOPE    HY 7124   1.108   0.377  13.036 -0.0097  2.2204  2.2723
   56DOPE   O31 7125   1.009   0.334  13.213  0.5878  0.2145  0.0921
   56DOPE   C31 7126   0.920   0.394  13.290  0.2010  0.1742 -0.0084
   56DOPE   O32 7127   0.824   0.463  13.249 -0.3969  0.2732 -0.1832
   56DOPE   C32 7128   0.944   0.349  13.425 -0.1860 -0.0760  0.6099
   56DOPE   H2X 7129   0.893   0.251  13.428 -2.2471  0.7123 -2.7142
   56DOPE   H2Y 7130   1.054   0.340  13.430 -0.0197 -0.0613 -1.8986
   56DOPE   C23 7131   0.571   0.185  13.223 -0.3907  0.5525  0.2904
   56DOPE   H3R 7132   0.467   0.219  13.244 -1.0109 -1.1285  0.0881
   56DOPE   H3S 7133   0.620   0.279  13.255  1.4719  0.6235 -2.4518
   56DOPE   C24 7134   0.599   0.075  13.319 -0.6755 -0.5852 -0.4836
   56DOPE   H4R 7135   0.705   0.044  13.303  0.5980  2.4252  1.1841
   56DOPE   H4S 7136   0.534  -0.015  13.308  0.1523 -1.2010 -0.4665
   56DOPE   C25 7137   0.583   0.134  13.457 -0.0068 -0.5115 -0.5612
   56DOPE   H5R 7138   0.477   0.165  13.470  0.1736  0.4937 -1.4499
   56DOPE   H5S 7139   0.652   0.218  13.477 -1.3368  0.7453 -1.0738
   56DOPE   C26 7140   0.608   0.040  13.570 -0.6119 -0.2517  0.3380
   56DOPE   H6R 7141   0.712   0.001  13.561 -0.3869 -0.0442  1.7694
   56DOPE   H6S 7142   0.539  -0.047  13.571  0.2748 -1.0594 -1.8156
   56DOPE   C27 7143   0.593   0.105  13.711  0.1874  0.1112  0.3969
   56DOPE   H7R 7144   0.491   0.148  13.709  0.6361  1.2366 -1.8769
   56DOPE   H7S 7145   0.668   0.187  13.713  0.7547 -0.3210 -1.2898
   56DOPE   C28 7146   0.600   0.002  13.819 -0.5323 -0.0991 -0.7969
   56DOPE   H8R 7147   0.690  -0.057  13.791  0.2598  1.5271 -1.8279
   56DOPE   H8S 7148   0.505  -0.054  13.824  0.5139 -2.4905 -3.9754
   56DOPE   C29 7149   0.633   0.072  13.949  0.1946 -0.0409  0.3594
   56DOPE   H9R 7150   0.729   0.127  13.949 -0.3627  0.9616  0.7391
   56DOPE  C210 7151   0.571   0.056  14.067 -0.6133 -0.2716 -0.3268
   56DOPE  H10R 7152   0.600   0.116  14.155 -0.8462  1.8703 -1.6550
   56DOPE  C211 7153   0.439  -0.006  14.076  0.7754 -0.0204  0.1811
   56DOPE  H11R 7154   0.452  -0.116  14.082  1.1762  0.0139 -0.0841
   56DOPE  H11S 7155   0.378   0.013  13.985 -0.2159  1.2685  1.0657
   56DOPE  C212 7156   0.350   0.047  14.191 -0.1123  0.2961 -0.3777
   56DOPE  H12R 7157   0.406   0.040  14.286  1.6254 -3.5823 -1.4858
   56DOPE  H12S 7158   0.261  -0.018  14.206  0.3030 -0.4390 -1.0602
   56DOPE  C213 7159   0.296   0.187  14.161 -0.2298  0.1438  0.0526
   56DOPE  H13R 7160   0.233   0.179  14.070 -0.0934 -0.8876  0.0337
   56DOPE  H13S 7161   0.376   0.260  14.136  1.6090 -2.0784 -0.9919
   56DOPE  C214 7162   0.202   0.247  14.271 -0.5927 -1.0094 -0.5449
   56DOPE  H14R 7163   0.121   0.176  14.297 -1.7435 -0.2455 -1.9441
   56DOPE  H14S 7164   0.157   0.341  14.232  2.5393  0.8527 -0.0364
   56DOPE  C215 7165   0.267   0.282  14.406 -0.6556 -0.1931  0.6497
   56DOPE  H15R 7166   0.340   0.365  14.402 -0.4419 -0.4085 -0.0578
   56DOPE  H15S 7167   0.320   0.192  14.445 -2.1907 -0.6026  1.8722
   56DOPE  C216 7168   0.156   0.316  14.514 -0.0146  0.3631  0.2616
   56DOPE  H16R 7169   0.084   0.233  14.525 -1.8917  0.8103 -5.2539
   56DOPE  H16S 7170   0.102   0.405  14.475  0.4176  1.1466  1.4030
   56DOPE  C217 7171   0.223   0.349  14.647 -0.5715 -0.2178  0.2791
   56DOPE  H17R 7172   0.146   0.408  14.701  1.1435  1.9618  0.4856
   56DOPE  H17S 7173   0.298   0.429  14.627  0.0050 -0.2746  2.0501
   56DOPE  C218 7174   0.302   0.235  14.722  0.4723 -0.1599 -0.3687
   56DOPE  H18R 7175   0.320   0.252  14.830 -2.2399  1.8822 -0.1412
   56DOPE  H18S 7176   0.403   0.231  14.675  1.4862  2.3388  1.4085
   56DOPE  H18T 7177   0.246   0.140  14.729 -1.5796  1.0965  1.1845
   56DOPE   C33 7178   0.876   0.448  13.540 -0.1876  0.8826 -0.2734
   56DOPE   H3X 7179   0.770   0.471  13.517 -0.8598 -1.1085  0.5974
   56DOPE   H3Y 7180   0.923   0.547  13.527  0.3916  0.6010 -0.3901
   56DOPE   C34 7181   0.906   0.390  13.680  0.3708  0.1706 -0.1353
   56DOPE   H4X 7182   0.864   0.287  13.692 -0.6737  0.5336 -0.5895
   56DOPE   H4Y 7183   1.017   0.384  13.684  0.2601 -2.2821  1.7347
   56DOPE   C35 7184   0.863   0.476  13.804  0.4044 -0.8982  0.3605
   56DOPE   H5X 7185   0.756   0.503  13.799  0.7182  0.4317  0.4161
   56DOPE   H5Y 7186   0.927   0.567  13.802 -1.1508  0.2442  0.7770
   56DOPE   C36 7187   0.895   0.407  13.935 -0.3893  0.2538  0.0817
   56DOPE   H6X 7188   1.003   0.384  13.947 -0.8991 -1.5248  1.5931
   56DOPE   H6Y 7189   0.845   0.308  13.929 -0.2530  0.1954 -0.1162
   56DOPE   C37 7190   0.851   0.475  14.060  0.2490  0.3081  0.6169
   56DOPE   H7X 7191   0.846   0.583  14.033 -1.4364 -0.1376 -1.0590
   56DOPE   H7Y 7192   0.742   0.455  14.058 -0.1833  2.4371 -1.1010
   56DOPE   C38 7193   0.932   0.444  14.185  0.3626 -0.1009 -0.4113
   56DOPE   H8X 7194   0.908   0.526  14.255 -2.5099  1.9139 -3.4103
   56DOPE   H8Y 7195   1.039   0.455  14.156  0.3148  0.9185 -0.2155
   56DOPE   C39 7196   0.898   0.307  14.236 -0.1741  0.1072 -0.2080
   56DOPE   H9X 7197   0.965   0.226  14.205 -0.1328 -0.2927  0.9055
   56DOPE  C310 7198   0.784   0.262  14.299  0.5782  0.7748 -0.0557
   56DOPE  H10X 7199   0.782   0.161  14.344  2.1708  1.1816  1.0428
   56DOPE  C311 7200   0.668   0.347  14.340  0.4921 -0.5742  0.3861
   56DOPE  H11X 7201   0.665   0.434  14.270 -0.0278 -0.8883 -0.0001
   56DOPE  H11Y 7202   0.578   0.285  14.319  0.1396  0.3520 -0.9651
   56DOPE  C312 7203   0.679   0.411  14.479  0.0173 -1.1602 -0.1199
   56DOPE  H12X 7204   0.580   0.461  14.488 -0.5432 -2.2495 -0.1356
   56DOPE  H12Y 7205   0.768   0.478  14.479  0.4620 -1.7391  0.7426
   56DOPE  C313 7206   0.702   0.309  14.594  0.6301 -0.0881  0.5188
   56DOPE  H13X 7207   0.612   0.245  14.582  0.7400 -0.2388  0.4886
   56DOPE  H13Y 7208   0.797   0.254  14.575 -0.4416 -1.5821 -0.6764
   56DOPE  C314 7209   0.701   0.367  14.737 -0.4476  0.1261 -0.2619
   56DOPE  H14X 7210   0.617   0.439  14.748  0.6750  1.3880  0.2581
   56DOPE  H14Y 7211   0.797   0.420  14.754 -0.1791 -1.0178  2.1981
   56DOPE  C315 7212   0.687   0.248  14.831 -0.1368  0.0238 -0.0666
   56DOPE  H15X 7213   0.761   0.168  14.809  0.6613  1.1352 -1.5765
   56DOPE  H15Y 7214   0.590   0.195  14.824 -1.1843  1.8033  0.4942
   56DOPE  C316 7215   0.712   0.303  14.973 -0.5038 -0.7177  0.8621
   56DOPE  H16X 7216   0.819   0.327  14.991 -0.3032 -0.9735  0.0897
   56DOPE  H16Y 7217   0.697   0.211  15.033  1.1324 -0.4212  1.7997
   56DOPE  C317 7218   0.607   0.405  15.027  0.4221 -0.9686 -0.2654
   56DOPE  H17X 7219   0.630   0.508  14.991  0.2221 -1.7377 -2.7476
   56DOPE  H17Y 7220   0.505   0.376  14.994  0.2173 -0.8869  0.2722
   56DOPE  C318 7221   0.603   0.406  15.177  0.3191 -0.1677 -0.3884
   56DOPE  H18X 7222   0.609   0.314  15.239  0.7444  0.8720  1.1728
   56DOPE  H18Y 7223   0.698   0.455  15.207  1.0181 -1.8976  0.3100
   56DOPE  H18Z 7224   0.518   0.462  15.222 -0.2612  0.0563 -1.7231
   57DOPE     N 7225   0.969   3.481  13.148  0.0967 -0.1720  0.0729
   57DOPE   HN1 7226   0.936   3.573  13.185 -1.8470 -0.0450 -1.7224
   57DOPE   HN2 7227   0.880   3.437  13.117 -0.6585  1.5202 -0.2893
   57DOPE   HN3 7228   1.000   3.426  13.230  0.8409 -0.9816 -0.7323
   57DOPE   C12 7229   1.070   3.494  13.043 -0.4318 -0.0960 -0.0877
   57DOPE  H12A 7230   1.080   3.402  12.982  0.7449  1.3120 -2.1387
   57DOPE  H12B 7231   1.169   3.516  13.089 -0.3902  1.1305 -0.7068
   57DOPE   C11 7232   1.055   3.627  12.960  0.6652  0.2671  0.3888
   57DOPE  H11A 7233   0.961   3.639  12.902  0.9429 -0.1412 -0.1450
   57DOPE  H11B 7234   1.134   3.618  12.883 -0.4932 -0.2960 -0.7851
   57DOPE     P 7235   0.994   3.834  13.112  0.4723 -0.3677 -0.2802
   57DOPE   O13 7236   0.885   3.751  13.171 -0.4169 -0.3649  0.1613
   57DOPE   O14 7237   0.957   3.942  13.024  0.1153 -0.2440  0.9004
   57DOPE   O11 7238   1.087   3.880  13.226  0.2450 -0.0719  0.0047
   57DOPE   O12 7239   1.092   3.745  13.033  0.2611 -0.1509 -0.0331
   57DOPE    C1 7240   1.207   3.826  13.277 -0.9605  0.1376 -0.3484
   57DOPE    HA 7241   1.284   3.907  13.271 -1.4252  0.6437  0.3552
   57DOPE    HB 7242   1.258   3.752  13.212 -0.5056  1.8572 -2.0361
   57DOPE    C2 7243   1.190   3.783  13.428  0.1234  0.7539 -0.4338
   57DOPE    HS 7244   1.294   3.760  13.462 -0.0427  0.8355  0.1353
   57DOPE   O21 7245   1.105   3.666  13.437  0.0422  0.3137 -0.4773
   57DOPE   C21 7246   1.134   3.582  13.537  0.4276  0.2524 -0.3257
   57DOPE   O22 7247   1.240   3.577  13.596 -0.0859 -0.0818  0.1808
   57DOPE   C22 7248   1.009   3.492  13.569 -0.2702 -0.5236 -0.0753
   57DOPE   H2R 7249   1.045   3.388  13.587 -0.2928 -0.0846  3.0511
   57DOPE   H2S 7250   0.935   3.488  13.486 -2.8443 -0.2994  2.0803
   57DOPE    C3 7251   1.120   3.889  13.520  0.6733 -0.3178 -0.3552
   57DOPE    HX 7252   1.015   3.897  13.485  0.4316 -0.7710  0.2632
   57DOPE    HY 7253   1.164   3.989  13.497  2.9927 -1.8022 -3.1002
   57DOPE   O31 7254   1.119   3.856  13.662  0.1153 -0.1285  0.1072
   57DOPE   C31 7255   1.214   3.913  13.739  0.7952 -0.3383  0.0901
   57DOPE   O32 7256   1.296   3.989  13.694  0.0617  0.7882  0.1913
   57DOPE   C32 7257   1.196   3.859  13.885  0.2249  0.7560  0.0691
   57DOPE   H2X 7258   1.115   3.924  13.924  1.5201  1.1595  2.2950
   57DOPE   H2Y 7259   1.146   3.760  13.891 -1.6264  1.7092  1.4266
   57DOPE   C23 7260   0.934   3.534  13.701  0.3688  0.2129 -0.1821
   57DOPE   H3R 7261   0.844   3.470  13.718  1.3618 -0.8553  1.3155
   57DOPE   H3S 7262   0.889   3.635  13.688 -0.5991  0.3875  3.3775
   57DOPE   C24 7263   1.020   3.514  13.828  0.4120  0.3569  0.6883
   57DOPE   H4R 7264   1.111   3.577  13.820  1.6260 -1.1373  2.0771
   57DOPE   H4S 7265   1.072   3.417  13.814  2.3170  1.4330 -0.1410
   57DOPE   C25 7266   0.953   3.541  13.961  0.9209 -0.2199  0.6502
   57DOPE   H5R 7267   0.857   3.486  13.954 -0.0251  1.4966 -0.5453
   57DOPE   H5S 7268   0.935   3.651  13.956  2.4635  0.0249 -0.0841
   57DOPE   C26 7269   1.031   3.506  14.087  0.0763  0.0103 -0.0138
   57DOPE   H6R 7270   1.139   3.514  14.064  1.0729 -2.0683  3.2359
   57DOPE   H6S 7271   1.015   3.397  14.098 -0.9028  0.1829  0.4099
   57DOPE   C27 7272   0.983   3.579  14.217 -0.3932  0.3461  0.0485
   57DOPE   H7R 7273   0.877   3.556  14.242 -1.3881  3.3553 -0.9806
   57DOPE   H7S 7274   0.988   3.690  14.205  0.1729  0.3077 -0.0679
   57DOPE   C28 7275   1.060   3.540  14.341  0.0723 -0.0498  0.2669
   57DOPE   H8R 7276   1.167   3.569  14.332  0.0651  0.1044  0.6628
   57DOPE   H8S 7277   1.054   3.430  14.355 -4.7936  0.1185  1.4197
   57DOPE   C29 7278   1.005   3.620  14.459 -0.6230  0.2571  0.6700
   57DOPE   H9R 7279   1.005   3.727  14.433 -1.8053 -0.0971 -0.9480
   57DOPE  C210 7280   0.950   3.572  14.571  0.1725 -0.4497  1.1537
   57DOPE  H10R 7281   0.926   3.641  14.654 -0.2921  0.4565  0.2890
   57DOPE  C211 7282   0.957   3.423  14.602  0.2152 -0.1568  0.7474
   57DOPE  H11R 7283   1.058   3.388  14.570 -0.7701 -1.7810 -0.7362
   57DOPE  H11S 7284   0.881   3.369  14.542  0.8936 -1.0975  0.7083
   57DOPE  C212 7285   0.921   3.387  14.748  0.5973  0.4030  0.2199
   57DOPE  H12R 7286   0.855   3.467  14.787  2.2290  2.2298 -0.5725
   57DOPE  H12S 7287   1.017   3.382  14.804  0.5605  0.4286  0.2848
   57DOPE  C213 7288   0.855   3.252  14.751 -0.1548 -0.5472  0.2657
   57DOPE  H13R 7289   0.885   3.173  14.678 -0.4388 -1.6131  1.2723
   57DOPE  H13S 7290   0.756   3.284  14.713  0.4568  2.3032  0.8567
   57DOPE  C214 7291   0.824   3.205  14.890  0.5172  0.2571 -0.7916
   57DOPE  H14R 7292   0.736   3.138  14.893  0.1145  0.8085  1.7456
   57DOPE  H14S 7293   0.818   3.293  14.957  0.7544 -1.0681  1.0333
   57DOPE  C215 7294   0.931   3.110  14.939 -0.1450 -0.2921  0.6345
   57DOPE  H15R 7295   1.021   3.175  14.936  1.1497 -2.0113  0.7737
   57DOPE  H15S 7296   0.942   3.027  14.866  0.9178 -0.4904  1.0090
   57DOPE  C216 7297   0.912   3.078  15.089 -0.1025 -0.7628 -0.7642
   57DOPE  H16R 7298   0.809   3.038  15.106  0.1683 -1.0198  0.3085
   57DOPE  H16S 7299   0.926   3.172  15.146  1.0793  0.3350 -2.7308
   57DOPE  C217 7300   1.011   2.975  15.131 -0.1090 -0.2596 -0.1316
   57DOPE  H17R 7301   1.113   3.016  15.111 -0.6594  1.8817  1.1260
   57DOPE  H17S 7302   0.999   2.885  15.067 -1.9980  0.5358 -0.9507
   57DOPE  C218 7303   0.998   2.923  15.280 -0.0577 -0.4954  0.4772
   57DOPE  H18R 7304   1.066   2.838  15.303  2.1626  1.2125  0.5134
   57DOPE  H18S 7305   0.892   2.894  15.295 -0.1562  0.0982  0.9604
   57DOPE  H18T 7306   1.008   3.005  15.354  0.0454 -2.6521  2.9875
   57DOPE   C33 7307   1.330   3.863  13.970 -0.0122 -0.0286  0.2851
   57DOPE   H3X 7308   1.388   3.957  13.958  2.4758 -1.3163  1.3482
   57DOPE   H3Y 7309   1.397   3.786  13.926 -1.1936  0.0151 -1.7116
   57DOPE   C34 7310   1.304   3.834  14.117 -0.4753  0.4982 -0.4164
   57DOPE   H4X 7311   1.238   3.747  14.136 -0.1258  0.6134  1.4938
   57DOPE   H4Y 7312   1.400   3.807  14.165 -0.6900  0.8064  0.1969
   57DOPE   C35 7313   1.246   3.942  14.203  0.2991 -0.7310 -0.2471
   57DOPE   H5X 7314   1.141   3.963  14.173 -0.3412 -2.0500  0.9100
   57DOPE   H5Y 7315   1.307   4.033  14.184  0.2225 -0.1856  1.8759
   57DOPE   C36 7316   1.246   3.920  14.353  1.0434  0.4742  0.0649
   57DOPE   H6X 7317   1.345   3.885  14.390 -0.2119 -1.8799  1.3886
   57DOPE   H6Y 7318   1.164   3.848  14.367 -0.6848  2.2437 -0.4926
   57DOPE   C37 7319   1.204   4.053  14.425 -0.8093 -0.3716  0.0862
   57DOPE   H7X 7320   1.273   4.137  14.400 -0.5576 -0.3695  0.7670
   57DOPE   H7Y 7321   1.100   4.081  14.397 -0.1786  0.5422 -1.4333
   57DOPE   C38 7322   1.197   4.046  14.583  0.3271  0.1616  0.5727
   57DOPE   H8X 7323   1.110   3.980  14.600 -0.8110  1.7223  1.0662
   57DOPE   H8Y 7324   1.157   4.142  14.622  1.2186 -0.2013  2.5275
   57DOPE   C39 7325   1.325   4.003  14.651 -0.4648 -0.0178  0.2543
   57DOPE   H9X 7326   1.413   4.061  14.621  0.5203 -2.5107 -2.1800
   57DOPE  C310 7327   1.341   3.897  14.731 -0.0786 -0.2243 -0.3559
   57DOPE  H10X 7328   1.441   3.869  14.766 -0.4905 -2.2753 -0.6504
   57DOPE  C311 7329   1.231   3.795  14.771 -0.9113  0.5453  0.1084
   57DOPE  H11X 7330   1.136   3.802  14.714 -0.6415 -0.4333 -0.4789
   57DOPE  H11Y 7331   1.266   3.690  14.764 -1.1386  0.4848 -0.1416
   57DOPE  C312 7332   1.210   3.813  14.923  0.0178  0.3765 -0.6140
   57DOPE  H12X 7333   1.168   3.912  14.949  1.1225  0.7848 -0.3303
   57DOPE  H12Y 7334   1.301   3.791  14.983 -0.3818  0.3592 -0.0127
   57DOPE  C313 7335   1.096   3.717  14.956 -0.3435 -0.2503  0.5377
   57DOPE  H13X 7336   0.998   3.760  14.925  0.8032  1.3567 -1.0455
   57DOPE  H13Y 7337   1.100   3.623  14.897  0.9455 -1.0700  1.8660
   57DOPE  C314 7338   1.069   3.688  15.103 -0.0590 -0.0436  0.7304
   57DOPE  H14X 7339   1.023   3.785  15.134  0.7379 -0.0177  1.8941
   57DOPE  H14Y 7340   1.170   3.682  15.150  0.3541  0.4654 -0.0563
   57DOPE  C315 7341   0.986   3.561  15.135  0.2820 -0.5528  0.4321
   57DOPE  H15X 7342   1.051   3.480  15.175  1.7071  0.8124  0.9941
   57DOPE  H15Y 7343   0.930   3.526  15.046  0.3442 -1.9457  0.9120
   57DOPE  C316 7344   0.881   3.594  15.241 -0.1911 -0.2911  0.5760
   57DOPE  H16X 7345   0.791   3.651  15.209 -0.2475 -1.7395 -2.1242
   57DOPE  H16Y 7346   0.929   3.639  15.330  1.1210 -0.3666 -0.0744
   57DOPE  C317 7347   0.811   3.463  15.290 -0.4917 -0.1817 -0.0666
   57DOPE  H17X 7348   0.750   3.433  15.202 -0.4274  1.1028 -0.5655
   57DOPE  H17Y 7349   0.892   3.389  15.300 -1.9156 -1.7635  0.2334
   57DOPE  C318 7350   0.737   3.474  15.421  0.8308  0.2655 -0.2595
   57DOPE  H18X 7351   0.808   3.504  15.501 -0.6660  0.3436  1.0917
   57DOPE  H18Y 7352   0.669   3.562  15.419  0.0668 -0.2201  1.8444
   57DOPE  H18Z 7353   0.685   3.381  15.451  0.7561  0.9120  1.7786
   58DOPE     N 7354   6.160   5.588  12.258  0.4694  0.7640 -0.0837
   58DOPE   HN1 7355   6.091   5.512  12.243 -0.4736  1.3464  1.0948
   58DOPE   HN2 7356   6.108   5.677  12.242 -1.3951 -0.2449  0.0097
   58DOPE   HN3 7357   6.239   5.578  12.192  0.0370  1.2115 -0.6854
   58DOPE   C12 7358   6.208   5.587  12.395 -0.8108  0.4567 -0.5970
   58DOPE  H12A 7359   6.269   5.495  12.409 -1.0628 -0.2893 -3.7169
   58DOPE  H12B 7360   6.116   5.581  12.457 -0.1418  1.4775  0.5362
   58DOPE   C11 7361   6.295   5.715  12.420  0.4211 -0.2717  0.2242
   58DOPE  H11A 7362   6.326   5.721  12.527 -1.3583  0.7935  0.7171
   58DOPE  H11B 7363   6.235   5.807  12.406  0.3041 -0.6889 -2.5705
   58DOPE     P 7364   6.548   5.723  12.369 -0.6920 -0.1554 -0.2757
   58DOPE   O13 7365   6.622   5.826  12.289 -0.2061  0.2354 -0.0186
   58DOPE   O14 7366   6.597   5.587  12.352  0.0421  0.1942  0.3249
   58DOPE   O11 7367   6.556   5.756  12.523  0.8226  0.0095 -0.0336
   58DOPE   O12 7368   6.403   5.723  12.323 -0.3123 -0.4375 -0.6239
   58DOPE    C1 7369   6.588   5.884  12.580  0.9830  0.1043 -0.0991
   58DOPE    HA 7370   6.503   5.955  12.577  4.2240  4.4263 -0.1957
   58DOPE    HB 7371   6.672   5.936  12.529  0.7059  0.5140 -0.1335
   58DOPE    C2 7372   6.633   5.859  12.727  0.0118  0.2056 -0.0683
   58DOPE    HS 7373   6.687   5.762  12.726  2.0881  1.3062 -0.4998
   58DOPE   O21 7374   6.517   5.854  12.815 -0.1140  0.1864 -0.4070
   58DOPE   C21 7375   6.537   5.797  12.937 -0.5865  0.3254  0.3789
   58DOPE   O22 7376   6.646   5.782  12.991 -0.3911 -0.3253 -0.3800
   58DOPE   C22 7377   6.401   5.767  12.998 -0.0977  0.2715 -1.2611
   58DOPE   H2R 7378   6.350   5.688  12.939 -1.1223  0.5779 -0.8259
   58DOPE   H2S 7379   6.332   5.855  12.998  0.9482  1.1958  1.2480
   58DOPE    C3 7380   6.729   5.972  12.758  0.1540 -0.5678  1.0334
   58DOPE    HX 7381   6.807   5.980  12.680 -2.8963  0.8834 -2.1543
   58DOPE    HY 7382   6.764   5.946  12.860  1.6091  3.8719  1.8438
   58DOPE   O31 7383   6.652   6.102  12.757 -0.4860  0.0505 -0.5592
   58DOPE   C31 7384   6.731   6.205  12.795  0.1656  0.0606 -0.5206
   58DOPE   O32 7385   6.843   6.195  12.835  0.0750 -0.0763 -0.0367
   58DOPE   C32 7386   6.646   6.334  12.802  0.1855  0.0472 -0.0970
   58DOPE   H2X 7387   6.682   6.396  12.717  0.5569 -1.9165 -1.4436
   58DOPE   H2Y 7388   6.541   6.312  12.777  0.9737  0.1666 -4.0892
   58DOPE   C23 7389   6.408   5.714  13.143  0.1446 -0.0084 -0.0515
   58DOPE   H3R 7390   6.478   5.628  13.145 -0.1987 -0.2864  0.3931
   58DOPE   H3S 7391   6.310   5.663  13.160  0.5113 -0.3916  0.9897
   58DOPE   C24 7392   6.429   5.818  13.256 -0.4985  0.7919  0.3040
   58DOPE   H4R 7393   6.358   5.903  13.241 -0.0829  1.3123  1.2046
   58DOPE   H4S 7394   6.527   5.870  13.248  0.1248 -0.0091  2.1659
   58DOPE   C25 7395   6.426   5.755  13.393  0.7498 -0.5289 -0.3690
   58DOPE   H5R 7396   6.522   5.720  13.436  0.2113 -0.4106  1.0074
   58DOPE   H5S 7397   6.358   5.668  13.380 -1.0111  0.5908  0.7804
   58DOPE   C26 7398   6.355   5.832  13.509 -0.3106 -0.2101 -0.1037
   58DOPE   H6R 7399   6.247   5.821  13.485  0.2138 -2.2487 -1.8530
   58DOPE   H6S 7400   6.383   5.940  13.518 -0.1078  0.0230 -2.7668
   58DOPE   C27 7401   6.389   5.772  13.649  0.0821  0.0986  0.1266
   58DOPE   H7R 7402   6.362   5.665  13.640  0.9490 -0.0049 -1.8222
   58DOPE   H7S 7403   6.316   5.820  13.718  1.4903  0.6361  1.2911
   58DOPE   C28 7404   6.526   5.813  13.704  0.1698  0.0729  0.3085
   58DOPE   H8R 7405   6.546   5.921  13.687  1.0526 -0.0878  0.3014
   58DOPE   H8S 7406   6.612   5.757  13.661 -1.1200 -2.1326  0.4636
   58DOPE   C29 7407   6.519   5.782  13.855  1.4548  0.1416  0.9074
   58DOPE   H9R 7408   6.542   5.676  13.876 -2.8565 -1.1736  0.0305
   58DOPE  C210 7409   6.461   5.855  13.946  0.8476 -0.1509 -0.4037
   58DOPE  H10R 7410   6.469   5.813  14.047  1.0427 -2.0416 -1.1754
   58DOPE  C211 7411   6.400   5.991  13.940 -0.1088 -0.5783 -0.1400
   58DOPE  H11R 7412   6.289   5.984  13.931  0.0717 -1.3889 -2.3912
   58DOPE  H11S 7413   6.439   6.058  13.861 -2.5342 -0.2708 -1.1807
   58DOPE  C212 7414   6.426   6.056  14.075 -0.6612 -0.7141 -0.0888
   58DOPE  H12R 7415   6.537   6.064  14.083 -0.4826  0.1561 -2.5415
   58DOPE  H12S 7416   6.386   5.987  14.152 -3.0554 -0.9605 -1.4703
   58DOPE  C213 7417   6.384   6.198  14.100  0.1232 -0.2678  0.5278
   58DOPE  H13R 7418   6.273   6.195  14.112  0.0188 -3.5347 -0.3189
   58DOPE  H13S 7419   6.416   6.256  14.011  0.6275 -0.9352  0.2687
   58DOPE  C214 7420   6.451   6.263  14.227 -0.5287 -0.4341 -0.2401
   58DOPE  H14R 7421   6.448   6.374  14.223  0.9882 -0.3586  0.0560
   58DOPE  H14S 7422   6.559   6.238  14.217 -0.4833 -1.1976  1.7327
   58DOPE  C215 7423   6.392   6.222  14.359  0.5274  0.0991  0.6507
   58DOPE  H15R 7424   6.393   6.111  14.359 -1.5837 -0.0504 -2.6336
   58DOPE  H15S 7425   6.287   6.258  14.356  0.7655  0.6966 -1.4261
   58DOPE  C216 7426   6.473   6.276  14.482 -0.4592 -0.4381 -0.3861
   58DOPE  H16R 7427   6.577   6.298  14.449 -0.6337  1.7903  0.3423
   58DOPE  H16S 7428   6.480   6.209  14.570 -0.3241 -0.0737 -0.1155
   58DOPE  C217 7429   6.422   6.411  14.531 -0.2078  0.7474 -0.3469
   58DOPE  H17R 7430   6.338   6.396  14.602 -0.3348  3.0439  0.0535
   58DOPE  H17S 7431   6.388   6.480  14.451  0.5452  2.4069  0.7035
   58DOPE  C218 7432   6.520   6.498  14.611 -0.0312 -0.0793 -0.0501
   58DOPE  H18R 7433   6.550   6.465  14.713 -0.4086 -1.1510 -0.2772
   58DOPE  H18S 7434   6.482   6.601  14.629 -0.3373 -0.6152  2.9221
   58DOPE  H18T 7435   6.608   6.518  14.546  1.3906 -0.6534  1.6141
   58DOPE   C33 7436   6.656   6.420  12.929  0.1653 -0.7761  0.0512
   58DOPE   H3X 7437   6.756   6.469  12.934  0.7412 -2.0606  2.4129
   58DOPE   H3Y 7438   6.648   6.353  13.017 -1.2050 -0.9251 -0.1763
   58DOPE   C34 7439   6.548   6.528  12.935 -0.1132 -0.8536  0.1657
   58DOPE   H4X 7440   6.565   6.613  12.866 -0.3348 -0.0549  1.0818
   58DOPE   H4Y 7441   6.442   6.497  12.918 -0.6651  0.0118  1.7982
   58DOPE   C35 7442   6.553   6.608  13.072  0.4637 -0.6423 -0.3512
   58DOPE   H5X 7443   6.659   6.640  13.080  0.1634  0.6695 -1.2078
   58DOPE   H5Y 7444   6.547   6.537  13.157  3.1195  0.7144  1.0737
   58DOPE   C36 7445   6.458   6.722  13.090 -0.2085 -0.2080  0.4101
   58DOPE   H6X 7446   6.493   6.785  13.174 -0.3720 -0.1366  0.4245
   58DOPE   H6Y 7447   6.355   6.692  13.119  0.0771 -1.7770 -0.0716
   58DOPE   C37 7448   6.455   6.816  12.972  0.5140 -0.5495 -0.0626
   58DOPE   H7X 7449   6.558   6.828  12.930  0.3449 -0.9086 -0.5902
   58DOPE   H7Y 7450   6.389   6.782  12.890 -0.0180 -0.2877  0.2485
   58DOPE   C38 7451   6.403   6.961  13.000  0.2567  0.4285 -0.5480
   58DOPE   H8X 7452   6.376   7.001  12.900  0.4505  0.4214 -0.6031
   58DOPE   H8Y 7453   6.490   7.012  13.045 -0.3868 -0.7978  2.3870
   58DOPE   C39 7454   6.281   6.968  13.083 -0.3402 -0.0840  0.2842
   58DOPE   H9X 7455   6.191   6.940  13.027 -1.1032  0.5981  1.1389
   58DOPE  C310 7456   6.280   7.035  13.207  0.4907  0.4649  0.1329
   58DOPE  H10X 7457   6.188   7.056  13.263  2.0684 -0.0289  3.0568
   58DOPE  C311 7458   6.402   7.085  13.290  1.0546  0.2204  0.7776
   58DOPE  H11X 7459   6.486   7.019  13.260  0.2218 -0.1055 -0.9800
   58DOPE  H11Y 7460   6.435   7.188  13.265 -1.3167  1.3039  1.7989
   58DOPE  C312 7461   6.391   7.063  13.445 -0.5185 -0.4275  0.5324
   58DOPE  H12X 7462   6.300   7.119  13.477 -1.1155 -1.4695  0.7265
   58DOPE  H12Y 7463   6.484   7.103  13.489  0.0346 -1.4576  0.3198
   58DOPE  C313 7464   6.388   6.917  13.484  0.0206 -0.7606  0.2897
   58DOPE  H13X 7465   6.311   6.865  13.423 -0.9348  0.4926  0.3920
   58DOPE  H13Y 7466   6.484   6.863  13.468  0.5448 -0.6187  2.6046
   58DOPE  C314 7467   6.342   6.909  13.623  0.4270 -0.3244  0.4229
   58DOPE  H14X 7468   6.231   6.906  13.631  0.1637 -0.2938 -2.1509
   58DOPE  H14Y 7469   6.375   7.001  13.676  0.3635 -0.2636  0.3576
   58DOPE  C315 7470   6.390   6.787  13.706  0.4115 -0.2726  0.3586
   58DOPE  H15X 7471   6.501   6.796  13.705  0.3497  2.5450  2.9473
   58DOPE  H15Y 7472   6.353   6.693  13.660 -0.3226  0.0208  0.3392
   58DOPE  C316 7473   6.339   6.782  13.852  0.0329  0.2287 -0.0521
   58DOPE  H16X 7474   6.231   6.799  13.868 -0.2789 -1.3996 -0.2168
   58DOPE  H16Y 7475   6.390   6.866  13.902  1.5888 -1.2852  1.0299
   58DOPE  C317 7476   6.374   6.651  13.932  0.0495  0.2995 -0.0041
   58DOPE  H17X 7477   6.358   6.563  13.866  2.2535  0.0334 -0.2497
   58DOPE  H17Y 7478   6.484   6.645  13.947 -0.3673 -2.8917  3.1346
   58DOPE  C318 7479   6.314   6.628  14.067  0.1415 -0.3342  0.2214
   58DOPE  H18X 7480   6.338   6.524  14.097 -1.5042 -0.9311 -0.4300
   58DOPE  H18Y 7481   6.348   6.708  14.136  0.4659  0.1249 -0.4573
   58DOPE  H18Z 7482   6.204   6.620  14.074  0.1941 -0.5965  0.8496
   59DOPE     N 7483   0.353   3.153  13.135 -0.3102  0.2017  1.2042
   59DOPE   HN1 7484   0.292   3.235  13.151  2.0588  1.8061  2.6687
   59DOPE   HN2 7485   0.370   3.105  13.226  2.6927 -1.1055  0.0762
   59DOPE   HN3 7486   0.445   3.183  13.097 -1.7995  2.8728 -0.6801
   59DOPE   C12 7487   0.293   3.060  13.033 -0.2647  0.2676 -0.2122
   59DOPE  H12A 7488   0.295   3.101  12.929  0.0143 -0.9358 -0.6967
   59DOPE  H12B 7489   0.190   3.041  13.069 -0.0635  0.3634  0.4136
   59DOPE   C11 7490   0.362   2.927  13.050 -0.2604 -0.1272 -0.3798
   59DOPE  H11A 7491   0.309   2.859  12.980  0.4490  0.6176 -1.6722
   59DOPE  H11B 7492   0.342   2.873  13.145  2.9230  0.1929  0.5891
   59DOPE     P 7493   0.583   2.809  12.989 -0.0377  0.2383  0.2604
   59DOPE   O13 7494   0.726   2.847  12.999  0.1660 -0.3718  0.2442
   59DOPE   O14 7495   0.542   2.748  12.861 -0.0715 -0.1111 -0.1445
   59DOPE   O11 7496   0.554   2.714  13.110  0.2957  0.0371 -0.0986
   59DOPE   O12 7497   0.500   2.932  13.018 -0.0243  0.3056 -0.2834
   59DOPE    C1 7498   0.575   2.755  13.251 -0.1277 -0.3336  0.2859
   59DOPE    HA 7499   0.490   2.810  13.297  0.7946 -0.3519  2.1231
   59DOPE    HB 7500   0.670   2.810  13.267 -0.4646 -0.0667  1.4584
   59DOPE    C2 7501   0.598   2.626  13.331  0.2089 -0.2517  0.6454
   59DOPE    HS 7502   0.662   2.563  13.267  0.8752 -1.1529  2.1368
   59DOPE   O21 7503   0.477   2.555  13.328  0.3262 -0.0315 -0.3032
   59DOPE   C21 7504   0.488   2.440  13.396 -0.6241  0.1600 -0.6293
   59DOPE   O22 7505   0.594   2.383  13.428  0.1395 -0.2552 -0.3788
   59DOPE   C22 7506   0.347   2.396  13.433 -0.2467 -0.7927 -0.6820
   59DOPE   H2R 7507   0.291   2.395  13.337 -0.5972  1.3314 -0.5440
   59DOPE   H2S 7508   0.318   2.468  13.512  2.7388 -0.2536  0.0493
   59DOPE    C3 7509   0.652   2.669  13.469 -0.7156 -0.0707 -0.2708
   59DOPE    HX 7510   0.739   2.736  13.451 -0.1632 -1.2736 -2.3143
   59DOPE    HY 7511   0.688   2.573  13.513 -1.3678 -0.4833 -0.6294
   59DOPE   O31 7512   0.551   2.738  13.542 -0.1218  0.1709 -0.4156
   59DOPE   C31 7513   0.492   2.677  13.647 -0.6681 -0.2447 -0.1798
   59DOPE   O32 7514   0.511   2.564  13.686  0.2671 -0.6970 -0.4884
   59DOPE   C32 7515   0.388   2.773  13.707  0.0291 -0.0947  0.1724
   59DOPE   H2X 7516   0.450   2.840  13.770 -0.0734  1.6394 -1.4846
   59DOPE   H2Y 7517   0.355   2.841  13.626  1.3296  0.9221  0.4731
   59DOPE   C23 7518   0.339   2.253  13.491  0.1956  0.0856 -0.1964
   59DOPE   H3R 7519   0.383   2.184  13.416  0.1587 -0.7172  0.5098
   59DOPE   H3S 7520   0.232   2.224  13.498  0.3278 -0.5093 -0.6305
   59DOPE   C24 7521   0.399   2.224  13.629 -0.0162 -0.5023 -0.3744
   59DOPE   H4R 7522   0.488   2.289  13.643 -0.5785  0.5686 -1.6301
   59DOPE   H4S 7523   0.439   2.120  13.626 -1.5187 -1.2257  1.7034
   59DOPE   C25 7524   0.308   2.215  13.752  0.7744 -0.2555  0.5856
   59DOPE   H5R 7525   0.244   2.124  13.745  2.2027 -1.1884 -2.6147
   59DOPE   H5S 7526   0.231   2.295  13.751  0.6372 -0.3473  1.8760
   59DOPE   C26 7527   0.385   2.212  13.880 -0.3666 -0.6827 -0.4410
   59DOPE   H6R 7528   0.443   2.306  13.888 -1.1804  0.0192 -2.2240
   59DOPE   H6S 7529   0.462   2.131  13.869  0.6851  0.1102  0.8138
   59DOPE   C27 7530   0.291   2.192  14.003  0.5853  0.5526 -0.1238
   59DOPE   H7R 7531   0.210   2.120  13.980 -1.9469  2.4758  2.0527
   59DOPE   H7S 7532   0.235   2.284  14.030 -0.3474 -0.8409  3.2538
   59DOPE   C28 7533   0.361   2.134  14.125  0.1688 -0.2183 -0.1257
   59DOPE   H8R 7534   0.438   2.208  14.155 -1.1238  0.4640  1.6723
   59DOPE   H8S 7535   0.413   2.043  14.088  0.4628 -0.0803 -0.0544
   59DOPE   C29 7536   0.272   2.110  14.257 -0.2891  0.3658  0.5142
   59DOPE   H9R 7537   0.165   2.138  14.256 -0.4662 -0.2728 -0.7810
   59DOPE  C210 7538   0.321   2.064  14.373 -0.7545  0.3145  0.0861
   59DOPE  H10R 7539   0.258   2.054  14.463  0.9707  0.4920  1.3683
   59DOPE  C211 7540   0.471   2.036  14.406  0.4649 -0.1106 -0.0973
   59DOPE  H11R 7541   0.531   2.015  14.315  1.4925  0.1823  0.4940
   59DOPE  H11S 7542   0.477   1.955  14.482 -0.0341 -1.7130 -1.7158
   59DOPE  C212 7543   0.539   2.162  14.458 -0.4172  0.1614  0.2655
   59DOPE  H12R 7544   0.502   2.245  14.394  1.6316  1.0393  0.1434
   59DOPE  H12S 7545   0.645   2.162  14.426 -0.1900  1.4809  0.9821
   59DOPE  C213 7546   0.542   2.191  14.608  0.0937  0.3643 -0.0029
   59DOPE  H13R 7547   0.436   2.182  14.641  0.1035 -3.0125 -0.5374
   59DOPE  H13S 7548   0.575   2.297  14.619 -1.4076  1.0220 -1.2957
   59DOPE  C214 7549   0.628   2.102  14.703  0.2864  0.0700 -0.4994
   59DOPE  H14R 7550   0.735   2.119  14.678  0.1077  0.4232 -1.0317
   59DOPE  H14S 7551   0.594   1.998  14.686  0.5252 -0.5513  2.2556
   59DOPE  C215 7552   0.611   2.146  14.846  0.7282 -0.0320  0.6025
   59DOPE  H15R 7553   0.503   2.154  14.870  0.4991 -2.1043  0.4392
   59DOPE  H15S 7554   0.649   2.248  14.869 -0.5059  0.4173  0.7436
   59DOPE  C216 7555   0.663   2.058  14.954  0.3331  0.1783  0.2991
   59DOPE  H16R 7556   0.774   2.058  14.956  0.3242  0.1538  1.1011
   59DOPE  H16S 7557   0.624   1.954  14.946  1.7810 -0.2215 -3.7744
   59DOPE  C217 7558   0.610   2.112  15.092 -0.1374  0.4981  0.0194
   59DOPE  H17R 7559   0.499   2.113  15.099 -0.2949 -2.7203 -0.6671
   59DOPE  H17S 7560   0.643   2.216  15.110  1.7703  0.1138 -1.0287
   59DOPE  C218 7561   0.659   2.024  15.211 -0.0032 -0.1699  0.0370
   59DOPE  H18R 7562   0.769   2.034  15.221  0.0795  0.4999 -1.2932
   59DOPE  H18S 7563   0.626   1.919  15.203 -1.6742  0.0620  2.7830
   59DOPE  H18T 7564   0.610   2.063  15.303  0.0116 -0.5166  0.1921
   59DOPE   C33 7565   0.263   2.700  13.766  0.7525 -0.6427  0.9134
   59DOPE   H3X 7566   0.253   2.594  13.735 -3.7429  0.0404 -0.6797
   59DOPE   H3Y 7567   0.175   2.749  13.719  1.9065 -1.2696 -2.0872
   59DOPE   C34 7568   0.262   2.700  13.914  0.1035  0.1334 -0.1196
   59DOPE   H4X 7569   0.338   2.626  13.948  2.3155  1.9577 -0.8722
   59DOPE   H4Y 7570   0.289   2.800  13.954 -1.2810  0.9552 -1.1654
   59DOPE   C35 7571   0.127   2.654  13.974 -0.8838 -0.5193  0.1998
   59DOPE   H5X 7572   0.098   2.551  13.945  0.4836 -0.7610 -0.3771
   59DOPE   H5Y 7573   0.043   2.711  13.930 -2.1291 -2.1204  0.4077
   59DOPE   C36 7574   0.103   2.669  14.130 -0.1654  0.0953  0.0762
   59DOPE   H6X 7575  -0.003   2.642  14.150 -0.3399  1.0310  0.4894
   59DOPE   H6Y 7576   0.129   2.775  14.152  1.7886 -0.4945  0.8074
   59DOPE   C37 7577   0.200   2.584  14.212  0.4945 -0.1494  0.1270
   59DOPE   H7X 7578   0.159   2.485  14.243  0.6773  0.2280  1.6870
   59DOPE   H7Y 7579   0.296   2.565  14.160  0.9895  0.0632  0.9334
   59DOPE   C38 7580   0.248   2.655  14.343 -0.1409 -0.4674 -0.6425
   59DOPE   H8X 7581   0.156   2.675  14.401  0.8674 -1.5905  1.4563
   59DOPE   H8Y 7582   0.278   2.761  14.328 -0.0636 -0.2146  1.0732
   59DOPE   C39 7583   0.356   2.570  14.410 -0.6227  0.2192 -0.3798
   59DOPE   H9X 7584   0.453   2.577  14.359 -0.3892  2.1481  0.2668
   59DOPE  C310 7585   0.345   2.496  14.523  0.6255  0.0112 -0.6235
   59DOPE  H10X 7586   0.421   2.427  14.561 -0.1466 -0.7162 -0.3765
   59DOPE  C311 7587   0.216   2.457  14.584 -0.0007 -0.2223  0.1593
   59DOPE  H11X 7588   0.131   2.515  14.541  0.7220 -0.0329 -1.0482
   59DOPE  H11Y 7589   0.193   2.351  14.559  0.4732  0.1103 -1.8924
   59DOPE  C312 7590   0.204   2.486  14.731  0.1112  0.4184  0.3959
   59DOPE  H12X 7591   0.104   2.453  14.765  0.3666 -0.8859 -0.0774
   59DOPE  H12Y 7592   0.218   2.594  14.752  0.8897  0.5688 -0.7626
   59DOPE  C313 7593   0.304   2.419  14.823  0.0807  0.5299 -0.0898
   59DOPE  H13X 7594   0.327   2.313  14.798  0.4898  0.4865  0.4448
   59DOPE  H13Y 7595   0.400   2.474  14.812  0.4901 -0.2915 -0.7472
   59DOPE  C314 7596   0.257   2.423  14.970 -0.2018 -0.9626 -0.4972
   59DOPE  H14X 7597   0.215   2.523  14.992 -0.3620 -0.8331 -1.3638
   59DOPE  H14Y 7598   0.344   2.410  15.039 -0.7907  1.1840  0.7282
   59DOPE  C315 7599   0.158   2.310  15.006  0.9268 -0.0464 -0.5524
   59DOPE  H15X 7600   0.224   2.222  14.990 -0.5791 -1.0614 -1.4640
   59DOPE  H15Y 7601   0.068   2.304  14.940  0.7592  0.3866 -0.3679
   59DOPE  C316 7602   0.111   2.317  15.154 -0.3220  0.3073  0.0759
   59DOPE  H16X 7603   0.060   2.413  15.176 -0.4876  0.0872  0.6835
   59DOPE  H16Y 7604   0.207   2.307  15.210 -1.1363 -1.0342  1.2904
   59DOPE  C317 7605   0.014   2.201  15.189 -0.3382  0.2391 -0.2399
   59DOPE  H17X 7606  -0.074   2.205  15.122 -1.6182 -0.5077  1.3363
   59DOPE  H17Y 7607   0.060   2.101  15.175  0.1739  0.2124  1.4548
   59DOPE  C318 7608  -0.038   2.203  15.338 -0.8191 -0.0282 -0.3058
   59DOPE  H18X 7609  -0.105   2.119  15.367  0.1459 -0.1500  1.7316
   59DOPE  H18Y 7610   0.051   2.200  15.403  0.4376 -1.9946 -1.9661
   59DOPE  H18Z 7611  -0.097   2.297  15.347  0.3088  0.9108 -2.0803
   60DOPE     N 7612   6.010   0.327  12.121 -0.9767  0.4727  0.0988
   60DOPE   HN1 7613   5.963   0.256  12.181  0.0575 -1.0732 -0.8625
   60DOPE   HN2 7614   5.991   0.426  12.149 -0.1070  0.6553  0.0858
   60DOPE   HN3 7615   5.969   0.311  12.027  0.6414  0.8207 -0.6969
   60DOPE   C12 7616   6.153   0.292  12.121 -0.8227  0.2310 -0.8658
   60DOPE  H12A 7617   6.206   0.326  12.030  2.6066 -4.1452 -0.8295
   60DOPE  H12B 7618   6.165   0.182  12.118  1.9463  0.3867  1.1148
   60DOPE   C11 7619   6.225   0.333  12.255 -0.6685  0.3780  0.7034
   60DOPE  H11A 7620   6.300   0.257  12.287  1.2617  0.0819 -3.7071
   60DOPE  H11B 7621   6.151   0.342  12.337 -0.9040 -1.9001  0.8116
   60DOPE     P 7622   6.249   0.586  12.270 -0.0948  0.1064  0.1047
   60DOPE   O13 7623   6.102   0.593  12.253 -0.1838 -1.3876  0.4723
   60DOPE   O14 7624   6.338   0.686  12.209 -0.2485 -0.1169 -0.0380
   60DOPE   O11 7625   6.284   0.581  12.423 -0.2129  0.3610 -0.0872
   60DOPE   O12 7626   6.293   0.446  12.216 -0.2677 -0.0050 -0.1891
   60DOPE    C1 7627   6.418   0.535  12.458 -0.1799  0.1777 -0.6137
   60DOPE    HA 7628   6.498   0.601  12.418 -0.2336  0.2361 -0.6250
   60DOPE    HB 7629   6.442   0.433  12.424 -0.1770  0.0653 -0.2728
   60DOPE    C2 7630   6.439   0.519  12.611 -0.8133  0.1213 -0.3444
   60DOPE    HS 7631   6.525   0.452  12.627 -0.9901 -0.5983 -2.1325
   60DOPE   O21 7632   6.330   0.480  12.682 -0.3395 -0.1003 -0.2036
   60DOPE   C21 7633   6.274   0.366  12.637 -0.3761  0.6633 -0.3288
   60DOPE   O22 7634   6.332   0.268  12.585 -0.0787  0.0080  0.6242
   60DOPE   C22 7635   6.127   0.368  12.675  0.6400  0.3760 -0.0078
   60DOPE   H2R 7636   6.070   0.424  12.598 -1.7096 -0.3726  1.1117
   60DOPE   H2S 7637   6.112   0.429  12.767  0.5359 -1.5454  1.3038
   60DOPE    C3 7638   6.487   0.661  12.671  0.5580  0.1634 -0.9132
   60DOPE    HX 7639   6.400   0.727  12.651 -1.2330 -1.4223  1.1482
   60DOPE    HY 7640   6.575   0.700  12.615  2.0867 -0.8088  0.7419
   60DOPE   O31 7641   6.528   0.672  12.814  0.1868  0.3617  0.0538
   60DOPE   C31 7642   6.637   0.601  12.840  0.2739  0.5358 -0.1440
   60DOPE   O32 7643   6.703   0.544  12.755 -0.7651  0.4961  0.0319
   60DOPE   C32 7644   6.668   0.594  12.983  0.0077  0.2604  0.2198
   60DOPE   H2X 7645   6.642   0.692  13.029  0.6195  0.5510 -0.0551
   60DOPE   H2Y 7646   6.611   0.513  13.034  2.5778 -1.0052  1.2423
   60DOPE   C23 7647   6.075   0.218  12.691  0.0277  0.4306 -0.0042
   60DOPE   H3R 7648   6.154   0.164  12.748  2.0002  2.3592 -0.7567
   60DOPE   H3S 7649   6.051   0.176  12.590 -0.8501  0.3096  0.2523
   60DOPE   C24 7650   5.942   0.203  12.766 -0.3505  0.1058 -0.2080
   60DOPE   H4R 7651   5.879   0.287  12.731  0.4711  0.9249  0.2391
   60DOPE   H4S 7652   5.955   0.201  12.876  0.8739 -2.4229 -0.3228
   60DOPE   C25 7653   5.868   0.073  12.716 -0.4718 -0.3859  0.0561
   60DOPE   H5R 7654   5.919  -0.018  12.756  1.2529  0.3117 -0.4700
   60DOPE   H5S 7655   5.877   0.056  12.606 -0.9819  0.1001 -0.0628
   60DOPE   C26 7656   5.721   0.063  12.761  0.2949 -0.5972 -0.7742
   60DOPE   H6R 7657   5.712   0.057  12.872 -0.0767 -0.5262 -0.7984
   60DOPE   H6S 7658   5.675  -0.023  12.708 -0.8391 -0.5818  0.1513
   60DOPE   C27 7659   5.626   0.184  12.726 -0.2833 -0.2363 -0.5200
   60DOPE   H7R 7660   5.637   0.186  12.616  0.1845 -0.7241 -0.4869
   60DOPE   H7S 7661   5.670   0.275  12.773 -0.3762 -1.5411  2.3482
   60DOPE   C28 7662   5.489   0.164  12.772 -0.3261  0.0406 -0.0413
   60DOPE   H8R 7663   5.498   0.105  12.866  1.2252  0.9581  0.4202
   60DOPE   H8S 7664   5.427   0.100  12.705 -0.5720  1.3158 -1.0765
   60DOPE   C29 7665   5.407   0.290  12.798 -0.6624  0.4240 -0.4062
   60DOPE   H9R 7666   5.340   0.321  12.716 -0.2935  2.3191 -0.0437
   60DOPE  C210 7667   5.408   0.374  12.903  0.0507  0.5277  0.2436
   60DOPE  H10R 7668   5.342   0.462  12.905 -2.8673 -1.4646 -1.2728
   60DOPE  C211 7669   5.490   0.344  13.031 -0.6036 -0.6115 -0.6654
   60DOPE  H11R 7670   5.574   0.417  13.041 -1.3806  0.0500  1.9007
   60DOPE  H11S 7671   5.535   0.243  13.041 -2.1194 -1.1902  1.0373
   60DOPE  C212 7672   5.410   0.369  13.155  0.3641 -0.3122  0.9722
   60DOPE  H12R 7673   5.307   0.333  13.135  0.3571  0.9410 -1.6770
   60DOPE  H12S 7674   5.405   0.477  13.182  2.1016 -0.5530  2.4518
   60DOPE  C213 7675   5.474   0.295  13.273 -0.2482  0.0484  0.4135
   60DOPE  H13R 7676   5.582   0.273  13.262 -0.8327 -3.1105  0.0377
   60DOPE  H13S 7677   5.425   0.196  13.275 -0.6181  0.1613 -1.5364
   60DOPE  C214 7678   5.465   0.375  13.407  0.4844 -0.6631 -0.1402
   60DOPE  H14R 7679   5.360   0.375  13.444  0.9665  0.6237  1.3381
   60DOPE  H14S 7680   5.492   0.480  13.382 -0.3261  0.1772  2.2517
   60DOPE  C215 7681   5.571   0.318  13.500 -0.1717 -0.3008 -0.0014
   60DOPE  H15R 7682   5.570   0.395  13.580 -1.6130 -0.4313  0.1294
   60DOPE  H15S 7683   5.668   0.327  13.447 -1.1784  0.6358 -1.7848
   60DOPE  C216 7684   5.535   0.181  13.560 -0.2568  0.1249  0.6050
   60DOPE  H16R 7685   5.501   0.114  13.477  0.8009  1.9132 -1.3851
   60DOPE  H16S 7686   5.444   0.198  13.621 -0.9180 -3.2919  0.7483
   60DOPE  C217 7687   5.642   0.127  13.654 -0.0363  0.0657  0.3639
   60DOPE  H17R 7688   5.656   0.200  13.736  0.5742  1.4402 -0.9221
   60DOPE  H17S 7689   5.740   0.122  13.603 -0.1183  0.8222  0.1323
   60DOPE  C218 7690   5.610  -0.010  13.709  0.0334  0.6686 -0.0815
   60DOPE  H18R 7691   5.511  -0.013  13.759  0.3536 -1.3290  0.5339
   60DOPE  H18S 7692   5.688  -0.039  13.782  0.0128  1.2403  0.1766
   60DOPE  H18T 7693   5.603  -0.091  13.633  0.5418 -2.0817  2.6164
   60DOPE   C33 7694   6.821   0.572  13.008  0.1412  0.3864  0.6974
   60DOPE   H3X 7695   6.880   0.641  12.944 -0.1839 -0.1054 -0.1358
   60DOPE   H3Y 7696   6.843   0.472  12.966  0.3390  0.4490  0.6490
   60DOPE   C34 7697   6.863   0.576  13.155  0.9236 -0.1767 -0.2082
   60DOPE   H4X 7698   6.866   0.684  13.181 -0.4311 -0.0842 -0.3685
   60DOPE   H4Y 7699   6.775   0.527  13.201 -1.9007  2.3367 -2.5013
   60DOPE   C35 7700   7.006   0.530  13.171  0.4039 -0.2266  0.0489
   60DOPE   H5X 7701   7.084   0.595  13.128  0.6262  0.9151  2.0474
   60DOPE   H5Y 7702   7.014   0.431  13.121 -0.3345  0.0130 -0.5633
   60DOPE   C36 7703   7.033   0.514  13.320 -0.2174 -0.2320 -0.3105
   60DOPE   H6X 7704   6.999   0.414  13.356 -0.5211 -0.3193 -0.8174
   60DOPE   H6Y 7705   6.979   0.598  13.369  1.1699  0.4375  0.1240
   60DOPE   C37 7706   7.178   0.537  13.359  1.1532  0.5057 -0.1235
   60DOPE   H7X 7707   7.240   0.455  13.316 -2.3404 -1.3039 -2.2812
   60DOPE   H7Y 7708   7.227   0.628  13.320 -0.1286  1.9113  1.4051
   60DOPE   C38 7709   7.206   0.546  13.511 -0.1299  0.7405  0.3547
   60DOPE   H8X 7710   7.317   0.554  13.518  0.1365  0.7155 -2.6308
   60DOPE   H8Y 7711   7.189   0.443  13.550  1.0752 -0.6255 -2.4907
   60DOPE   C39 7712   7.142   0.650  13.603 -0.4223  0.3137 -0.1225
   60DOPE   H9X 7713   7.089   0.727  13.545 -2.1659 -2.4754 -2.5392
   60DOPE  C310 7714   7.162   0.655  13.738 -0.0970 -0.7180 -0.7703
   60DOPE  H10X 7715   7.112   0.735  13.795  0.9165 -0.6581  0.0504
   60DOPE  C311 7716   7.220   0.554  13.824  0.0568  0.3473  0.4539
   60DOPE  H11X 7717   7.300   0.493  13.776  1.4987  0.6123  2.4171
   60DOPE  H11Y 7718   7.279   0.595  13.909  0.6675 -2.6653  1.6270
   60DOPE  C312 7719   7.100   0.462  13.866  0.1080  0.2098 -0.1873
   60DOPE  H12X 7720   7.141   0.375  13.921 -1.3103 -0.2701  0.1550
   60DOPE  H12Y 7721   7.057   0.422  13.772  1.2367  2.1547 -1.5927
   60DOPE  C313 7722   6.987   0.529  13.952  0.6977  0.7413 -0.6439
   60DOPE  H13X 7723   6.926   0.596  13.888 -1.0606 -0.3852 -0.1998
   60DOPE  H13Y 7724   6.920   0.451  13.994  2.4488  0.5137  1.9825
   60DOPE  C314 7725   7.026   0.609  14.076 -0.2504 -0.2515  0.5489
   60DOPE  H14X 7726   7.065   0.710  14.049 -0.1659 -0.2870  0.5378
   60DOPE  H14Y 7727   7.098   0.555  14.141 -0.3665 -1.6633 -0.4431
   60DOPE  C315 7728   6.902   0.643  14.161  0.3986 -0.4827  0.7881
   60DOPE  H15X 7729   6.863   0.549  14.207 -2.2126  0.2979  0.3679
   60DOPE  H15Y 7730   6.827   0.688  14.093  0.3940 -0.4566  0.8105
   60DOPE  C316 7731   6.937   0.732  14.281  0.4330 -0.2846  0.0368
   60DOPE  H16X 7732   6.848   0.783  14.324 -0.2602 -2.2545  1.0307
   60DOPE  H16Y 7733   7.006   0.814  14.251  0.7435  0.3994  2.3801
   60DOPE  C317 7734   7.006   0.660  14.401 -0.0651 -0.1009  0.7163
   60DOPE  H17X 7735   6.925   0.599  14.448  0.4264 -1.2080  0.1705
   60DOPE  H17Y 7736   7.088   0.596  14.363 -1.2291 -0.8628 -0.6085
   60DOPE  C318 7737   7.065   0.766  14.502  0.3583 -0.0856 -0.0571
   60DOPE  H18X 7738   7.140   0.825  14.445  0.9471 -0.9916 -0.2332
   60DOPE  H18Y 7739   6.998   0.832  14.561  2.7318  1.0690  1.5039
   60DOPE  H18Z 7740   7.132   0.714  14.573  0.5015  2.2035  1.6065
   6123SM     N 7741   3.347   4.577  17.884  0.0390 -0.0377 -0.1432
   6123SM   C15 7742   3.380   4.484  17.998 -0.4811 -0.6499  0.1462
   6123SM  H15A 7743   3.314   4.399  18.008 -0.7301 -0.2257  3.2262
   6123SM  H15B 7744   3.382   4.535  18.094  0.6594 -0.1177 -0.1475
   6123SM  H15C 7745   3.485   4.459  17.994  0.0895  1.1732  1.9887
   6123SM   C14 7746   3.195   4.598  17.883  0.3179  0.2918  0.2676
   6123SM  H14A 7747   3.143   4.503  17.884 -1.2521  1.1146  0.8196
   6123SM  H14B 7748   3.185   4.662  17.797 -1.0185  0.0709  0.2398
   6123SM  H14C 7749   3.154   4.662  17.960  0.3078  2.6528 -1.5581
   6123SM   C13 7750   3.415   4.707  17.899 -0.2999  0.0845  0.4001
   6123SM  H13A 7751   3.378   4.778  17.972  0.4862  1.3226 -0.3586
   6123SM  H13B 7752   3.413   4.759  17.804  0.6469 -0.0814  0.2784
   6123SM  H13C 7753   3.518   4.678  17.916  0.1557  1.7566  0.6450
   6123SM   C12 7754   3.390   4.509  17.748  0.3397  0.2265  0.3816
   6123SM  H12A 7755   3.355   4.408  17.752 -0.0363  0.3813  1.0873
   6123SM  H12B 7756   3.498   4.518  17.752  0.3827 -0.6739  2.5880
   6123SM   C11 7757   3.340   4.576  17.620  0.1242 -0.6035  0.5655
   6123SM  H11A 7758   3.232   4.555  17.608  0.4495 -1.8865 -0.3305
   6123SM  H11B 7759   3.404   4.532  17.541 -0.5039  1.5323 -1.2453
   6123SM     P 7760   3.466   4.786  17.537  0.1321  0.5021  0.0321
   6123SM   O13 7761   3.431   4.926  17.502 -0.2286  0.6122 -0.1610
   6123SM   O14 7762   3.592   4.781  17.606 -0.2167  0.6776 -1.0060
   6123SM   O11 7763   3.485   4.708  17.402 -0.9234  0.1322 -0.0119
   6123SM   O12 7764   3.345   4.722  17.621 -0.1606  0.0238  0.3230
   6123SM   C1S 7765   3.404   4.731  17.287  0.0565  0.1396  0.1073
   6123SM   H1S 7766   3.388   4.838  17.261  2.2646  0.2234 -1.1599
   6123SM   H1T 7767   3.310   4.677  17.310  0.4658 -0.8193 -0.4160
   6123SM    NF 7768   3.418   4.716  17.043  0.3241 -0.2430 -0.3188
   6123SM   HNF 7769   3.334   4.669  17.018 -1.4234  1.8990  1.1237
   6123SM   C2S 7770   3.473   4.665  17.166  0.0686 -0.2120  0.8666
   6123SM   H2S 7771   3.581   4.690  17.154  0.0469 -1.3302 -2.4544
   6123SM   C3S 7772   3.465   4.515  17.193 -0.0520 -0.2247  0.2723
   6123SM   H3S 7773   3.360   4.493  17.221  0.2981 -0.9082  1.1037
   6123SM    O3 7774   3.557   4.490  17.299 -0.1663  0.5226 -0.4412
   6123SM   HO3 7775   3.552   4.577  17.341 -4.9604  0.0194  0.5564
   6123SM   C4S 7776   3.499   4.441  17.067 -0.0938 -0.0599 -0.4032
   6123SM   H4S 7777   3.412   4.385  17.027 -0.3618  1.5334 -2.1981
   6123SM   C5S 7778   3.620   4.418  17.005  0.2935  0.3714 -0.5964
   6123SM   H5S 7779   3.715   4.460  17.040  0.4639  0.7794 -1.5125
   6123SM   C6S 7780   3.632   4.328  16.881 -0.2791 -0.4789 -0.8156
   6123SM   H6S 7781   3.547   4.257  16.883  0.3764 -1.2815 -0.7286
   6123SM   H6T 7782   3.722   4.264  16.892 -1.2868 -1.5558  2.8355
   6123SM   C7S 7783   3.637   4.401  16.748  0.2039 -0.1451 -0.1069
   6123SM   H7S 7784   3.742   4.431  16.733  0.6297 -0.6778  1.6147
   6123SM   H7T 7785   3.573   4.492  16.743  1.4035  0.7804  0.7194
   6123SM   C8S 7786   3.589   4.303  16.641 -0.2079  0.2224  0.8446
   6123SM   H8S 7787   3.479   4.299  16.651 -0.2027 -0.0859  0.7548
   6123SM   H8T 7788   3.626   4.202  16.669 -1.7124 -1.2340 -2.0608
   6123SM   C9S 7789   3.618   4.335  16.495 -0.1731 -0.1405 -1.0533
   6123SM   H9S 7790   3.726   4.351  16.475  0.2823 -0.9479  0.6240
   6123SM   H9T 7791   3.566   4.426  16.459  1.0512  0.4005 -1.5049
   6123SM  C10S 7792   3.570   4.230  16.400  0.1932  0.2823 -0.6110
   6123SM  H10S 7793   3.460   4.234  16.414 -0.0618 -0.9304 -2.1435
   6123SM  H10T 7794   3.619   4.133  16.421  0.8701  0.6620 -0.3857
   6123SM  C11S 7795   3.598   4.261  16.257 -0.0787 -0.5184  0.6908
   6123SM  H11S 7796   3.704   4.273  16.226 -1.3134  0.6912 -3.9723
   6123SM  H11T 7797   3.546   4.358  16.238  0.9855  0.2437  1.4946
   6123SM  C12S 7798   3.552   4.146  16.164  0.7686 -0.7619  0.3298
   6123SM  H12S 7799   3.453   4.112  16.202  0.8327  0.6881  1.8921
   6123SM  H12T 7800   3.637   4.076  16.177  1.5495  0.4070  1.7693
   6123SM  C13S 7801   3.549   4.169  16.011  0.5328 -0.9375  1.0762
   6123SM  H13S 7802   3.646   4.217  15.987 -0.5228  0.7611 -0.0277
   6123SM  H13T 7803   3.468   4.244  15.996  0.2713 -1.4784 -0.4184
   6123SM  C14S 7804   3.538   4.033  15.935  0.5212  0.0772 -0.1569
   6123SM  H14S 7805   3.444   3.980  15.961  0.9566 -0.8709 -0.4815
   6123SM  H14T 7806   3.628   3.973  15.960  1.0333 -0.3874 -2.7911
   6123SM  C15S 7807   3.555   4.053  15.780 -0.4689 -0.3324 -0.4406
   6123SM  H15S 7808   3.640   3.991  15.744 -0.3428 -1.1288  1.1912
   6123SM  H15T 7809   3.594   4.153  15.749  1.5425 -0.6158  0.9335
   6123SM  C16S 7810   3.428   4.024  15.695  0.2675  0.6297 -0.6495
   6123SM  H16S 7811   3.358   4.105  15.723 -1.2905 -1.0290  0.4344
   6123SM  H16T 7812   3.387   3.926  15.728 -0.2839  0.9645 -0.3393
   6123SM  C17S 7813   3.455   4.037  15.548  0.4990 -0.4460 -0.2746
   6123SM  H17S 7814   3.511   3.946  15.519  1.0161 -0.2514  0.1039
   6123SM  H17T 7815   3.518   4.125  15.523 -0.0492  0.2564  0.7279
   6123SM  C18S 7816   3.325   4.042  15.464  0.3120 -0.6019  0.0824
   6123SM  H18S 7817   3.269   4.135  15.489  0.4829 -0.1631 -1.0879
   6123SM  H18T 7818   3.256   3.958  15.487 -0.2124 -0.4290 -0.8042
   6123SM  H18U 7819   3.341   4.037  15.354 -3.1442  0.9406 -0.6121
   6123SM   C1F 7820   3.450   4.832  16.995  0.1455 -0.2832 -0.8446
   6123SM    OF 7821   3.557   4.884  17.019 -0.4958  0.0618  0.2851
   6123SM   C2F 7822   3.355   4.899  16.893 -0.3933 -0.2776  0.5456
   6123SM   H2F 7823   3.338   5.002  16.930 -1.4843 -0.4612  0.5880
   6123SM   H2G 7824   3.254   4.852  16.890 -1.4890  1.8926  1.2876
   6123SM   C3F 7825   3.426   4.912  16.758  0.3994  0.6930 -0.2832
   6123SM   H3F 7826   3.525   4.961  16.771  2.3757 -2.8617 -0.4739
   6123SM   H3G 7827   3.362   4.972  16.690 -1.4674 -0.6971  0.1559
   6123SM   C4F 7828   3.444   4.784  16.687 -0.1155  0.0214  0.1273
   6123SM   H4F 7829   3.507   4.719  16.752 -0.1997  0.9688  1.1914
   6123SM   H4G 7830   3.491   4.806  16.589  1.0183  0.3910  0.7405
   6123SM   C5F 7831   3.316   4.695  16.660  0.6057  0.5878  0.2984
   6123SM   H5F 7832   3.219   4.731  16.698 -0.2554 -0.8070 -0.4967
   6123SM   H5G 7833   3.336   4.608  16.726 -1.0899  0.6364  0.9032
   6123SM   C6F 7834   3.309   4.652  16.508 -0.4361 -0.7278  0.0255
   6123SM   H6F 7835   3.231   4.575  16.495 -0.1139 -1.2175  0.8644
   6123SM   H6G 7836   3.406   4.618  16.466 -1.5422 -1.3032 -2.1794
   6123SM   C7F 7837   3.244   4.750  16.410  0.4761 -0.4952 -0.2828
   6123SM   H7F 7838   3.302   4.844  16.423 -0.7963  0.6246 -2.1472
   6123SM   H7G 7839   3.135   4.763  16.429  0.3625  0.3113 -1.3684
   6123SM   C8F 7840   3.252   4.716  16.265 -0.1467 -0.4397 -0.3265
   6123SM   H8F 7841   3.213   4.616  16.238  0.4266 -0.2266 -2.1021
   6123SM   H8G 7842   3.360   4.713  16.240 -0.4127 -0.1614 -1.5898
   6123SM   C9F 7843   3.160   4.809  16.178 -0.3626  0.6050  0.9945
   6123SM   H9F 7844   3.168   4.918  16.194  0.4222  0.7784 -0.4404
   6123SM   H9G 7845   3.055   4.784  16.201 -0.3837 -2.2977 -1.5954
   6123SM  C10F 7846   3.180   4.767  16.030 -0.3376  0.5531  0.2521
   6123SM  H10F 7847   3.166   4.657  16.025 -1.4764  0.7428 -2.4582
   6123SM  H10G 7848   3.285   4.772  15.994 -0.5547  0.7543 -0.3563
   6123SM  C11F 7849   3.094   4.841  15.932  0.1625  0.0577 -0.1050
   6123SM  H11F 7850   3.117   4.950  15.928  1.5076  0.0400  3.4273
   6123SM  H11G 7851   2.990   4.823  15.966 -0.5817  1.3783 -1.5236
   6123SM  C12F 7852   3.085   4.796  15.786 -0.7002  0.2355  0.3329
   6123SM  H12F 7853   3.034   4.697  15.794 -0.2942  0.0557  0.7017
   6123SM  H12G 7854   3.185   4.785  15.739 -1.2515  1.7028 -1.3380
   6123SM  C13F 7855   3.010   4.891  15.697  0.3422 -0.3175 -0.2142
   6123SM  H13F 7856   3.064   4.989  15.701  1.2717 -0.8586  1.2042
   6123SM  H13G 7857   2.911   4.901  15.746  0.2079 -2.3275 -0.0198
   6123SM  C14F 7858   2.996   4.843  15.556  0.6027  0.4157 -0.1751
   6123SM  H14F 7859   3.072   4.764  15.540  0.4066 -0.6974  3.4872
   6123SM  H14G 7860   3.025   4.935  15.501  1.1532  0.9851  1.0200
   6123SM  C15F 7861   2.857   4.785  15.511  0.2068  0.6309 -0.0860
   6123SM  H15F 7862   2.785   4.866  15.486 -3.4654 -2.0911  0.7710
   6123SM  H15G 7863   2.821   4.732  15.602 -0.3717  0.1124 -0.6083
   6123SM  C16F 7864   2.863   4.688  15.389  0.2015 -0.5496 -0.2279
   6123SM  H16F 7865   2.920   4.601  15.426  0.4891 -0.4186 -0.3620
   6123SM  H16G 7866   2.917   4.728  15.301 -0.0156 -1.4945 -0.8051
   6123SM  C17F 7867   2.723   4.641  15.342  0.3520  0.3041 -0.1248
   6123SM  H17F 7868   2.678   4.728  15.288 -1.9772  1.7437  3.7431
   6123SM  H17G 7869   2.647   4.606  15.415 -0.1701 -0.9815 -1.2418
   6123SM  C18F 7870   2.711   4.537  15.223 -0.1387 -0.3111 -0.5234
   6123SM  H18F 7871   2.605   4.543  15.192  0.0153 -0.9928 -1.2139
   6123SM  H18G 7872   2.734   4.431  15.245  1.1905  0.0846  0.1325
   6123SM  C19F 7873   2.789   4.576  15.099  0.0149  0.8369  0.9393
   6123SM  H19F 7874   2.898   4.553  15.106 -0.2613 -0.3664  1.5436
   6123SM  H19G 7875   2.782   4.687  15.093  0.0453  0.7473 -2.0521
   6123SM  C20F 7876   2.716   4.534  14.969 -0.8582 -0.2498  0.2041
   6123SM  H20F 7877   2.605   4.538  14.973 -0.9482 -0.6931 -1.0505
   6123SM  H20G 7878   2.748   4.433  14.934  0.1375  0.0554  0.2169
   6123SM  C21F 7879   2.767   4.617  14.850  0.4916  0.1098  0.4240
   6123SM  H21F 7880   2.873   4.584  14.840 -0.0782 -1.7514  0.2025
   6123SM  H21G 7881   2.761   4.727  14.861  1.3061  0.3569 -1.1426
   6123SM  C22F 7882   2.697   4.581  14.714  0.1454  0.0179 -0.2470
   6123SM  H22F 7883   2.608   4.647  14.726 -0.7098 -1.3571  1.5415
   6123SM  H22G 7884   2.667   4.474  14.708  1.7405 -0.3668 -2.1893
   6123SM  C23F 7885   2.766   4.601  14.586 -0.1155 -0.1517  1.0027
   6123SM  H23F 7886   2.710   4.549  14.506 -1.1830 -0.0540  1.6661
   6123SM  H23G 7887   2.851   4.530  14.583 -0.6719 -0.8040 -0.0104
   6123SM  H23H 7888   2.806   4.700  14.555  0.3613 -0.1085  1.7151
   6223SM     N 7889   3.805   3.929  18.034  0.3437  0.1681 -0.1061
   6223SM   C15 7890   3.795   3.980  18.179 -0.7220  0.6051  0.3797
   6223SM  H15A 7891   3.896   4.002  18.211 -0.8386  0.3297  0.9519
   6223SM  H15B 7892   3.747   3.906  18.241 -0.1480  1.6139  2.1069
   6223SM  H15C 7893   3.732   4.068  18.180 -1.4062  0.1788 -1.4375
   6223SM   C14 7894   3.858   4.035  17.946 -0.6098  0.3602 -0.0145
   6223SM  H14A 7895   3.848   3.995  17.847 -1.6245 -0.4873  0.4157
   6223SM  H14B 7896   3.962   4.058  17.965 -0.9814  0.9297  1.5629
   6223SM  H14C 7897   3.790   4.119  17.947  0.0163  0.9005  1.7815
   6223SM   C13 7898   3.889   3.807  18.029 -0.0787 -0.2283 -0.3119
   6223SM  H13A 7899   3.867   3.751  18.119  1.7916  0.7390  0.7965
   6223SM  H13B 7900   3.994   3.832  18.030 -0.4308  1.3903 -0.7992
   6223SM  H13C 7901   3.866   3.744  17.944  0.1128 -1.4085  0.4861
   6223SM   C12 7902   3.662   3.887  17.995 -0.3166 -0.9842 -0.1314
   6223SM  H12A 7903   3.593   3.963  18.030 -0.9421 -1.3341 -0.5791
   6223SM  H12B 7904   3.628   3.807  18.059 -0.6945  0.3838  1.4488
   6223SM   C11 7905   3.635   3.849  17.845 -0.8485 -0.2605 -0.6646
   6223SM  H11A 7906   3.669   3.931  17.777  1.5078  0.9527  1.8290
   6223SM  H11B 7907   3.527   3.837  17.819 -0.3187 -2.3058 -2.1692
   6223SM     P 7908   3.638   3.583  17.831 -0.0617  0.3627 -0.1406
   6223SM   O13 7909   3.755   3.497  17.855 -0.4886  0.0038 -0.6200
   6223SM   O14 7910   3.535   3.588  17.938 -0.0510  0.1421 -0.0959
   6223SM   O11 7911   3.571   3.541  17.694  0.4752 -0.5772  0.1003
   6223SM   O12 7912   3.700   3.726  17.799  0.7541  0.4022  0.1111
   6223SM   C1S 7913   3.545   3.640  17.592  0.6192 -0.2050  0.2894
   6223SM   H1S 7914   3.630   3.710  17.578 -0.6958  1.1319 -1.6375
   6223SM   H1T 7915   3.450   3.696  17.610  1.6999  1.1912  1.9696
   6223SM    NF 7916   3.547   3.692  17.344  0.2312  0.4782 -0.3261
   6223SM   HNF 7917   3.462   3.735  17.315  1.1502  1.0531 -2.4176
   6223SM   C2S 7918   3.539   3.586  17.446 -0.9769 -0.0431  0.0614
   6223SM   H2S 7919   3.632   3.525  17.440 -1.1163 -0.3347  0.8764
   6223SM   C3S 7920   3.415   3.492  17.427 -0.5467 -0.5384  0.0124
   6223SM   H3S 7921   3.317   3.542  17.438 -0.1373  0.9334 -2.2431
   6223SM    O3 7922   3.412   3.377  17.518 -0.4014 -0.3548 -0.3348
   6223SM   HO3 7923   3.493   3.390  17.568 -1.0879  1.5988  0.3655
   6223SM   C4S 7924   3.425   3.437  17.286  0.1314  0.1047 -0.6442
   6223SM   H4S 7925   3.371   3.507  17.221  0.0256  3.2886  2.5809
   6223SM   C5S 7926   3.470   3.324  17.230  0.4205  0.0059  0.1017
   6223SM   H5S 7927   3.518   3.245  17.290 -0.6679  0.2798  1.3995
   6223SM   C6S 7928   3.443   3.300  17.085  0.1212  1.0817  0.3482
   6223SM   H6S 7929   3.366   3.221  17.068  1.3101  0.2915 -1.8716
   6223SM   H6T 7930   3.540   3.267  17.042 -1.6511 -2.4509 -1.3826
   6223SM   C7S 7931   3.406   3.421  16.991 -0.0672  0.1149 -0.4639
   6223SM   H7S 7932   3.473   3.506  17.013  0.5235 -0.6404  0.7575
   6223SM   H7T 7933   3.307   3.467  17.011  0.7653  1.4254  0.8486
   6223SM   C8S 7934   3.400   3.373  16.848 -0.1711  0.4393  0.4773
   6223SM   H8S 7935   3.374   3.265  16.852  0.7146  0.0131 -2.6397
   6223SM   H8T 7936   3.506   3.382  16.817 -0.1610  1.4047  0.7597
   6223SM   C9S 7937   3.317   3.465  16.760 -0.4570  0.0373  0.2617
   6223SM   H9S 7938   3.330   3.569  16.798  1.0113 -0.3585  0.9196
   6223SM   H9T 7939   3.217   3.424  16.787 -0.0193 -0.0294  1.9184
   6223SM  C10S 7940   3.338   3.461  16.604  0.0752  0.1717  0.2833
   6223SM  H10S 7941   3.447   3.479  16.596 -0.1820  3.4352  2.4503
   6223SM  H10T 7942   3.266   3.534  16.562 -3.7015  0.6697  6.3834
   6223SM  C11S 7943   3.331   3.329  16.523  0.0344  0.1053  0.1512
   6223SM  H11S 7944   3.245   3.266  16.555 -0.6783  0.2147 -1.4608
   6223SM  H11T 7945   3.420   3.263  16.533  1.3538  2.0323  2.3778
   6223SM  C12S 7946   3.305   3.377  16.380  0.5024  0.3990  0.0877
   6223SM  H12S 7947   3.386   3.446  16.347  1.3248 -0.5986 -0.0259
   6223SM  H12T 7948   3.208   3.431  16.371  0.8129  1.1272  0.9621
   6223SM  C13S 7949   3.292   3.256  16.292 -0.2057 -0.1986 -0.0143
   6223SM  H13S 7950   3.220   3.181  16.331 -0.6765 -0.0014 -0.5111
   6223SM  H13T 7951   3.388   3.199  16.285 -1.2767 -1.9563 -1.0986
   6223SM  C14S 7952   3.236   3.285  16.154  0.4718 -0.2058  0.3817
   6223SM  H14S 7953   3.151   3.353  16.178 -0.2752 -1.4521  1.3831
   6223SM  H14T 7954   3.205   3.192  16.101  0.0221  0.5582 -0.7381
   6223SM  C15S 7955   3.316   3.366  16.054  0.4731 -0.6632 -0.3317
   6223SM  H15S 7956   3.421   3.329  16.059  0.4944 -0.6549 -0.7398
   6223SM  H15T 7957   3.328   3.472  16.085 -0.4327 -1.0766  1.5989
   6223SM  C16S 7958   3.255   3.380  15.916 -0.0197 -0.3798  0.0591
   6223SM  H16S 7959   3.303   3.458  15.853 -3.3265  1.0602 -0.8922
   6223SM  H16T 7960   3.147   3.405  15.922  0.3569  1.5198 -0.4638
   6223SM  C17S 7961   3.257   3.248  15.838 -0.3668 -0.0042  0.1347
   6223SM  H17S 7962   3.174   3.250  15.764 -1.0593 -1.2322  0.8289
   6223SM  H17T 7963   3.228   3.166  15.908  0.3926 -1.2689 -0.9884
   6223SM  C18S 7964   3.389   3.197  15.779 -0.5784 -0.4504 -0.1839
   6223SM  H18S 7965   3.369   3.125  15.696 -1.9823  0.5766 -0.7759
   6223SM  H18T 7966   3.461   3.148  15.848  1.7684  1.7551 -0.9311
   6223SM  H18U 7967   3.443   3.282  15.732 -0.2355 -0.5080  0.1116
   6223SM   C1F 7968   3.657   3.758  17.311 -0.2257  0.2432 -0.6933
   6223SM    OF 7969   3.758   3.747  17.385  0.0979  0.2357 -0.3266
   6223SM   C2F 7970   3.645   3.857  17.202  0.0547  0.6354 -0.0954
   6223SM   H2F 7971   3.740   3.914  17.192  1.1696 -1.1121  0.0538
   6223SM   H2G 7972   3.558   3.918  17.234  0.0959  0.4265  0.4376
   6223SM   C3F 7973   3.602   3.786  17.064  0.1697 -0.2734 -0.0430
   6223SM   H3F 7974   3.501   3.744  17.082 -0.0036  0.8419  1.7850
   6223SM   H3G 7975   3.676   3.711  17.028  1.0679  0.3238  0.5261
   6223SM   C4F 7976   3.565   3.895  16.964  0.0004  0.0041  0.3638
   6223SM   H4F 7977   3.651   3.964  16.956  0.4401 -0.2687  2.1994
   6223SM   H4G 7978   3.477   3.948  17.007  2.0534  5.4660 -1.3031
   6223SM   C5F 7979   3.537   3.825  16.829  0.3062  0.0656 -0.6193
   6223SM   H5F 7980   3.467   3.741  16.847  2.0803 -1.2734  0.2417
   6223SM   H5G 7981   3.630   3.784  16.784  0.3725  0.1503 -0.5601
   6223SM   C6F 7982   3.461   3.920  16.731  0.3111  0.1318 -0.4956
   6223SM   H6F 7983   3.520   4.009  16.698 -1.4364  1.0572 -1.2896
   6223SM   H6G 7984   3.377   3.956  16.794  1.6820  0.0557  1.4552
   6223SM   C7F 7985   3.418   3.855  16.602 -0.0017  0.0965  0.4467
   6223SM   H7F 7986   3.374   3.939  16.544  3.4136  1.1101 -0.9519
   6223SM   H7G 7987   3.350   3.769  16.618 -0.3477  0.0104 -1.3071
   6223SM   C8F 7988   3.531   3.806  16.511 -0.8437  0.1555 -0.7083
   6223SM   H8F 7989   3.574   3.713  16.554 -1.2990 -0.3677 -1.3679
   6223SM   H8G 7990   3.611   3.883  16.506 -0.0591 -0.6230 -0.3372
   6223SM   C9F 7991   3.476   3.781  16.372  0.2816  0.6199  0.3120
   6223SM   H9F 7992   3.459   3.877  16.318  0.8213  1.3483  1.4068
   6223SM   H9G 7993   3.383   3.719  16.374  1.7870 -1.7886  0.1180
   6223SM  C10F 7994   3.570   3.706  16.273 -0.1246  0.1118 -0.4703
   6223SM  H10F 7995   3.578   3.598  16.296  1.1683  0.5195  1.2507
   6223SM  H10G 7996   3.668   3.757  16.289 -0.9838  1.7731 -0.2596
   6223SM  C11F 7997   3.519   3.730  16.132 -0.1186 -0.1210  0.6105
   6223SM  H11F 7998   3.516   3.835  16.096 -1.7859 -0.4354 -0.2475
   6223SM  H11G 7999   3.423   3.677  16.117  0.9301 -1.9795  0.0105
   6223SM  C12F 8000   3.635   3.671  16.036  0.1838 -0.1986 -0.2972
   6223SM  H12F 8001   3.670   3.574  16.075 -1.7900 -0.9671 -0.3243
   6223SM  H12G 8002   3.710   3.753  16.032 -1.0543  0.9370 -1.2072
   6223SM  C13F 8003   3.565   3.652  15.904  0.3971  0.4436  1.2291
   6223SM  H13F 8004   3.577   3.748  15.849  0.8299 -0.7686 -0.9281
   6223SM  H13G 8005   3.455   3.643  15.901  0.0970  3.1303 -1.5637
   6223SM  C14F 8006   3.635   3.540  15.817 -0.9084  0.4171 -0.8227
   6223SM  H14F 8007   3.596   3.441  15.849  1.0452  0.0963  0.7463
   6223SM  H14G 8008   3.744   3.536  15.835 -1.1377 -0.3283  0.5339
   6223SM  C15F 8009   3.622   3.562  15.664 -0.3635  0.1344 -0.7475
   6223SM  H15F 8010   3.516   3.568  15.631 -0.1542  1.2913 -1.2876
   6223SM  H15G 8011   3.662   3.474  15.609 -2.6920 -1.0635 -0.6396
   6223SM  C16F 8012   3.689   3.686  15.615 -0.1619 -0.0861  1.0754
   6223SM  H16F 8013   3.776   3.704  15.681  1.9073  0.6630 -1.6737
   6223SM  H16G 8014   3.615   3.768  15.627 -0.7366 -0.4865  0.3766
   6223SM  C17F 8015   3.735   3.681  15.461 -0.0846 -0.3717 -0.0475
   6223SM  H17F 8016   3.767   3.782  15.427 -1.5664  0.6396  1.3834
   6223SM  H17G 8017   3.654   3.641  15.397  1.1760 -3.3222  0.0486
   6223SM  C18F 8018   3.856   3.588  15.436 -0.4944  0.1596  0.3944
   6223SM  H18F 8019   3.833   3.498  15.496  0.2200  0.0166  0.4672
   6223SM  H18G 8020   3.945   3.626  15.490 -0.1879 -0.4023  0.2926
   6223SM  C19F 8021   3.874   3.558  15.288 -0.5410  1.2355 -0.0713
   6223SM  H19F 8022   3.890   3.647  15.224  0.9904  0.4459 -0.8586
   6223SM  H19G 8023   3.785   3.511  15.241 -1.0771  0.6505  1.4540
   6223SM  C20F 8024   4.006   3.474  15.270 -0.2888 -0.3268 -0.1970
   6223SM  H20F 8025   3.998   3.365  15.294 -0.5730 -0.4062 -0.6398
   6223SM  H20G 8026   4.079   3.508  15.346 -1.5667  2.0726  0.0552
   6223SM  C21F 8027   4.058   3.489  15.128 -0.0177 -0.0409  0.1301
   6223SM  H21F 8028   4.069   3.598  15.111 -1.8298  0.3391  1.1684
   6223SM  H21G 8029   3.981   3.441  15.065 -1.1398  0.1719  1.3074
   6223SM  C22F 8030   4.189   3.407  15.112 -0.4928  0.0980 -0.0163
   6223SM  H22F 8031   4.174   3.311  15.167 -0.9339  0.7192  0.9801
   6223SM  H22G 8032   4.274   3.465  15.154 -1.8187  0.7680  1.8980
   6223SM  C23F 8033   4.221   3.373  14.962 -0.2871  0.0028 -0.2122
   6223SM  H23F 8034   4.310   3.308  14.959  0.0014  0.1972  2.1817
   6223SM  H23G 8035   4.226   3.468  14.903 -1.5398 -0.0855 -0.4958
   6223SM  H23H 8036   4.132   3.317  14.925 -0.3773 -0.5658  0.8205
   6323SM     N 8037   3.366   5.633  17.325  0.6980  0.4019  0.3908
   6323SM   C15 8038   3.460   5.522  17.341 -0.1132 -0.3663  0.4908
   6323SM  H15A 8039   3.430   5.425  17.305  0.2350 -0.7349  1.1809
   6323SM  H15B 8040   3.476   5.511  17.447  1.2155 -0.0163  0.3543
   6323SM  H15C 8041   3.553   5.548  17.292 -1.0279 -0.6042 -1.4640
   6323SM   C14 8042   3.250   5.607  17.414 -0.5380 -0.2372 -0.5377
   6323SM  H14A 8043   3.289   5.596  17.514  0.9048  1.3987 -0.8763
   6323SM  H14B 8044   3.214   5.508  17.390 -0.9834 -0.7343  1.9154
   6323SM  H14C 8045   3.164   5.672  17.411 -0.5317 -0.1997 -0.0421
   6323SM   C13 8046   3.424   5.758  17.376 -0.6992  0.3572 -0.0594
   6323SM  H13A 8047   3.456   5.739  17.477  1.0500  0.0133 -0.6521
   6323SM  H13B 8048   3.365   5.848  17.358 -1.1574  0.1354  0.3132
   6323SM  H13C 8049   3.512   5.785  17.320 -0.5157  0.9323  0.4857
   6323SM   C12 8050   3.325   5.651  17.180 -0.3163 -0.0632  0.4475
   6323SM  H12A 8051   3.251   5.728  17.163  0.6268  0.6905 -0.4544
   6323SM  H12B 8052   3.266   5.565  17.152 -0.0269  0.0926 -0.7019
   6323SM   C11 8053   3.443   5.667  17.074 -0.1740  0.8113 -0.4364
   6323SM  H11A 8054   3.401   5.688  16.973  0.8414  2.6992 -0.5138
   6323SM  H11B 8055   3.488   5.566  17.067  2.1547  1.2277  4.4267
   6323SM     P 8056   3.683   5.738  17.132 -0.2399  0.1113 -0.0076
   6323SM   O13 8057   3.772   5.851  17.095  0.0738 -0.4582 -0.6531
   6323SM   O14 8058   3.699   5.674  17.268  0.1948 -0.1490  0.1871
   6323SM   O11 8059   3.717   5.615  17.027 -0.4691 -0.4009 -0.3026
   6323SM   O12 8060   3.537   5.772  17.104  0.3375 -0.0904 -0.2964
   6323SM   C1S 8061   3.707   5.647  16.885  0.2016 -0.3370 -0.1373
   6323SM   H1S 8062   3.769   5.734  16.853 -2.8917  2.0073 -0.1355
   6323SM   H1T 8063   3.603   5.665  16.852  0.3170  1.1533  0.2675
   6323SM    NF 8064   3.738   5.577  16.656  0.4953  0.3306 -0.3252
   6323SM   HNF 8065   3.671   5.541  16.591 -1.0345  2.0885  0.1833
   6323SM   C2S 8066   3.738   5.527  16.794  0.8738  0.3393  0.1750
   6323SM   H2S 8067   3.841   5.490  16.815 -0.1317 -2.7503  0.0550
   6323SM   C3S 8068   3.645   5.407  16.829  0.7085  0.6667 -0.5644
   6323SM   H3S 8069   3.540   5.442  16.830 -0.1059 -1.5970 -0.9839
   6323SM    O3 8070   3.660   5.343  16.961 -0.5583  0.4404 -0.7881
   6323SM   HO3 8071   3.691   5.414  17.016 -0.9325  1.3324 -1.6999
   6323SM   C4S 8072   3.659   5.314  16.717 -0.3712 -1.1428  0.0003
   6323SM   H4S 8073   3.595   5.333  16.630  0.0492 -1.2285 -0.3350
   6323SM   C5S 8074   3.743   5.207  16.711 -0.2771 -0.0569 -0.3738
   6323SM   H5S 8075   3.802   5.187  16.801 -0.7354  0.1005 -0.0363
   6323SM   C6S 8076   3.752   5.104  16.604 -0.9320 -0.6848  0.5594
   6323SM   H6S 8077   3.732   4.999  16.635 -1.7275 -0.6131  0.3102
   6323SM   H6T 8078   3.856   5.101  16.564 -2.1053 -0.4239 -2.8586
   6323SM   C7S 8079   3.662   5.124  16.476  0.1048  0.4189  0.3541
   6323SM   H7S 8080   3.676   5.227  16.439  0.0429  0.5611  0.7220
   6323SM   H7T 8081   3.560   5.096  16.510 -0.0382 -0.6960 -0.9332
   6323SM   C8S 8082   3.703   5.017  16.367 -0.1537 -0.3690  0.1724
   6323SM   H8S 8083   3.672   4.913  16.391  2.0932 -0.8056  1.3889
   6323SM   H8T 8084   3.814   5.015  16.362 -0.1786  0.3330 -1.8026
   6323SM   C9S 8085   3.636   5.060  16.231 -0.2977 -0.1893  0.9727
   6323SM   H9S 8086   3.678   4.999  16.148  0.4650  1.2481  0.2748
   6323SM   H9T 8087   3.672   5.160  16.201 -1.5139 -1.0540 -4.3666
   6323SM  C10S 8088   3.490   5.059  16.217 -0.7370  0.5989  0.5834
   6323SM  H10S 8089   3.436   5.120  16.293 -3.2463  1.2541 -1.5885
   6323SM  H10T 8090   3.445   4.958  16.233 -1.5972  0.8798 -0.0042
   6323SM  C11S 8091   3.449   5.105  16.081  0.6743 -0.2624 -0.2826
   6323SM  H11S 8092   3.487   5.206  16.056  1.7927 -0.1016  1.8412
   6323SM  H11T 8093   3.340   5.123  16.080  1.0348  2.6534  1.8929
   6323SM  C12S 8094   3.484   5.011  15.963  0.6818  0.8850 -0.1103
   6323SM  H12S 8095   3.451   4.906  15.978 -2.4680  1.9065  0.9910
   6323SM  H12T 8096   3.592   5.015  15.938  1.3564 -0.3376  2.2520
   6323SM  C13S 8097   3.402   5.048  15.828  0.0082  0.4148  0.3609
   6323SM  H13S 8098   3.403   5.157  15.804  0.9899  0.4602  0.5467
   6323SM  H13T 8099   3.294   5.022  15.835  0.4971 -1.6274  1.0307
   6323SM  C14S 8100   3.467   4.980  15.694  0.5385  0.0849  1.0534
   6323SM  H14S 8101   3.480   4.874  15.723 -0.5175 -1.1263 -2.3578
   6323SM  H14T 8102   3.569   5.021  15.681  0.1392  1.3652  1.7818
   6323SM  C15S 8103   3.384   5.002  15.564 -0.7404  1.0166  0.1515
   6323SM  H15S 8104   3.363   5.110  15.550  1.2330  1.3161 -0.8664
   6323SM  H15T 8105   3.293   4.939  15.578 -0.3208  0.5469  0.8126
   6323SM  C16S 8106   3.462   4.960  15.437  0.2204  0.4478  0.0875
   6323SM  H16S 8107   3.569   4.984  15.456  0.9260 -2.5096  0.3873
   6323SM  H16T 8108   3.426   5.011  15.345  1.0709  1.6177  0.3780
   6323SM  C17S 8109   3.446   4.809  15.410 -0.0545 -0.5952 -0.0959
   6323SM  H17S 8110   3.460   4.761  15.509  3.1159  0.5489  0.1254
   6323SM  H17T 8111   3.524   4.779  15.337 -0.4796 -1.4667 -0.2160
   6323SM  C18S 8112   3.308   4.777  15.355 -0.1459  0.0849 -0.1408
   6323SM  H18S 8113   3.302   4.673  15.315  1.8374 -0.2075  0.2190
   6323SM  H18T 8114   3.277   4.846  15.273  0.4782 -0.1758 -0.6043
   6323SM  H18U 8115   3.239   4.782  15.442  0.3389 -1.4169  0.3676
   6323SM   C1F 8116   3.819   5.662  16.593 -0.0357  0.0564 -0.2373
   6323SM    OF 8117   3.921   5.705  16.651 -0.0130 -0.8960  0.0862
   6323SM   C2F 8118   3.788   5.702  16.453  0.1011 -0.8286  0.4343
   6323SM   H2F 8119   3.793   5.813  16.444 -2.1202 -0.8396 -2.5978
   6323SM   H2G 8120   3.682   5.680  16.426 -1.0209  1.9714  2.0225
   6323SM   C3F 8121   3.893   5.648  16.351 -0.2053 -0.0718 -0.0274
   6323SM   H3F 8122   3.989   5.701  16.368 -1.3140  2.2997 -0.7090
   6323SM   H3G 8123   3.860   5.675  16.248  1.1468 -0.5104 -0.5952
   6323SM   C4F 8124   3.895   5.498  16.352 -0.5415 -0.6122 -0.2428
   6323SM   H4F 8125   3.797   5.451  16.333  0.1424 -2.3375  0.2556
   6323SM   H4G 8126   3.940   5.461  16.446  1.1056  1.8488  0.0401
   6323SM   C5F 8127   3.988   5.444  16.244  0.1896 -0.1859  0.0162
   6323SM   H5F 8128   4.088   5.493  16.246 -0.3211  0.8825  0.0673
   6323SM   H5G 8129   3.936   5.468  16.149 -0.7072 -0.2147  0.4889
   6323SM   C6F 8130   4.005   5.290  16.246 -0.0469  0.1951 -0.3996
   6323SM   H6F 8131   3.923   5.255  16.312  2.0539 -1.3608  1.5238
   6323SM   H6G 8132   4.099   5.250  16.290 -0.4604  0.1935  0.5049
   6323SM   C7F 8133   4.022   5.225  16.106 -0.4534  0.4711 -0.0610
   6323SM   H7F 8134   4.111   5.261  16.050 -0.5342 -1.6704 -1.7151
   6323SM   H7G 8135   3.936   5.261  16.046  0.0143  0.9062 -0.4768
   6323SM   C8F 8136   4.008   5.073  16.089  0.3676  0.2061  0.4644
   6323SM   H8F 8137   3.904   5.040  16.108 -0.2919  1.7061 -0.3630
   6323SM   H8G 8138   4.067   5.043  16.179  1.3753  0.1551 -0.1975
   6323SM   C9F 8139   4.056   5.017  15.951  0.4207 -0.1436 -0.0349
   6323SM   H9F 8140   4.057   4.906  15.950 -0.1337 -0.1718 -2.0465
   6323SM   H9G 8141   4.152   5.072  15.941  0.5085 -0.6230 -2.4562
   6323SM  C10F 8142   3.969   5.063  15.832 -0.5451 -0.2952  0.9773
   6323SM  H10F 8143   3.989   5.172  15.823 -0.2875 -0.4286 -0.2650
   6323SM  H10G 8144   3.862   5.038  15.847 -1.2468  2.3421  0.8874
   6323SM  C11F 8145   4.017   4.996  15.700  0.4948  0.4289  0.6051
   6323SM  H11F 8146   4.005   4.886  15.701  0.4361  0.2682 -3.2805
   6323SM  H11G 8147   4.120   5.033  15.681  0.3779  1.4441  1.7952
   6323SM  C12F 8148   3.935   5.058  15.584 -0.8045  0.6738  0.5747
   6323SM  H12F 8149   3.951   5.168  15.579  1.5580  0.3397 -0.4494
   6323SM  H12G 8150   3.826   5.040  15.586 -0.9111  1.2731  0.4302
   6323SM  C13F 8151   3.971   5.005  15.436  0.7822 -0.1791 -0.2180
   6323SM  H13F 8152   3.973   4.893  15.434  0.2110 -0.2130 -2.8410
   6323SM  H13G 8153   4.073   5.040  15.410  0.7586 -0.9520 -1.3966
   6323SM  C14F 8154   3.866   5.036  15.334 -0.0443 -0.1856  0.0626
   6323SM  H14F 8155   3.868   5.143  15.305  0.5237  0.1144  1.1336
   6323SM  H14G 8156   3.763   5.009  15.367 -0.9594  1.7195 -1.0718
   6323SM  C15F 8157   3.894   4.955  15.204 -0.6226  0.5061 -0.1517
   6323SM  H15F 8158   3.897   4.847  15.233 -0.3059  1.0242  1.9728
   6323SM  H15G 8159   3.998   4.981  15.175 -1.2504  2.4144 -0.8245
   6323SM  C16F 8160   3.796   4.981  15.084 -0.5877  0.1825 -0.1677
   6323SM  H16F 8161   3.810   4.921  14.991 -0.3525 -1.3241  0.8077
   6323SM  H16G 8162   3.819   5.088  15.064 -1.8378  0.6777  0.9404
   6323SM  C17F 8163   3.652   4.969  15.123  0.3900  0.1580 -0.1230
   6323SM  H17F 8164   3.620   5.029  15.210  2.5778  0.5735  0.4469
   6323SM  H17G 8165   3.620   4.864  15.141 -0.7393  0.4820 -0.1562
   6323SM  C18F 8166   3.564   5.037  15.014  0.3635 -0.5904 -0.6910
   6323SM  H18F 8167   3.457   5.005  15.011  0.4592 -0.8921 -0.9482
   6323SM  H18G 8168   3.598   5.007  14.913  0.1960 -0.0890 -0.8975
   6323SM  C19F 8169   3.549   5.187  15.031  0.5522 -0.7617 -0.0892
   6323SM  H19F 8170   3.646   5.225  15.070  0.5728 -1.4871  0.5811
   6323SM  H19G 8171   3.473   5.226  15.102  1.4661  3.4088 -1.0745
   6323SM  C20F 8172   3.496   5.275  14.911  0.3247 -0.6033 -0.7650
   6323SM  H20F 8173   3.539   5.239  14.816  0.7686 -0.5973 -0.5686
   6323SM  H20G 8174   3.524   5.381  14.931 -0.9652  0.1415 -2.6643
   6323SM  C21F 8175   3.341   5.280  14.889  0.6233  0.7634 -0.5957
   6323SM  H21F 8176   3.290   5.295  14.987  0.6740 -1.1963 -0.2348
   6323SM  H21G 8177   3.302   5.183  14.854  0.3532  1.0968 -1.2384
   6323SM  C22F 8178   3.308   5.392  14.787  0.0724  0.2490  0.1526
   6323SM  H22F 8179   3.356   5.356  14.693 -1.0257 -3.6698  0.9242
   6323SM  H22G 8180   3.355   5.489  14.814  4.9174 -2.4252  2.6614
   6323SM  C23F 8181   3.157   5.409  14.760 -0.2392 -0.0822  0.8598
   6323SM  H23F 8182   3.146   5.456  14.659 -0.8640  1.6598  1.7056
   6323SM  H23G 8183   3.125   5.484  14.835  2.0716  0.3057  1.5504
   6323SM  H23H 8184   3.110   5.309  14.766  0.6603 -0.5756 -0.0240
   6423SM     N 8185   5.705   3.193  17.767 -0.0269  0.1126  0.3258
   6423SM   C15 8186   5.696   3.282  17.886 -0.1714  0.0931 -0.2572
   6423SM  H15A 8187   5.631   3.236  17.959 -0.2643 -2.8097 -1.9873
   6423SM  H15B 8188   5.632   3.366  17.866 -1.8327 -0.6645  1.5592
   6423SM  H15C 8189   5.781   3.333  17.928 -1.9949  2.4610  0.8285
   6423SM   C14 8190   5.806   3.252  17.668 -0.1036 -0.8468 -0.3191
   6423SM  H14A 8191   5.762   3.346  17.637  1.3690 -0.1170 -0.2995
   6423SM  H14B 8192   5.825   3.180  17.590  2.1461 -2.4288  1.5254
   6423SM  H14C 8193   5.898   3.275  17.721 -0.2028 -0.0943 -0.4579
   6423SM   C13 8194   5.769   3.060  17.810 -0.2763  0.0830 -0.0480
   6423SM  H13A 8195   5.783   3.000  17.721 -1.1871 -0.7877  0.3836
   6423SM  H13B 8196   5.704   3.021  17.886  1.0436 -1.2180  0.4601
   6423SM  H13C 8197   5.868   3.074  17.850  0.4072 -3.1695 -0.3094
   6423SM   C12 8198   5.570   3.175  17.699 -0.7117  0.1173 -0.2825
   6423SM  H12A 8199   5.497   3.153  17.776 -0.1271 -0.4806  0.1058
   6423SM  H12B 8200   5.572   3.085  17.640 -4.6965  0.2949 -0.9288
   6423SM   C11 8201   5.497   3.283  17.619 -0.3410 -0.1248 -0.4383
   6423SM  H11A 8202   5.395   3.252  17.588 -0.6156 -0.3431  0.6570
   6423SM  H11B 8203   5.555   3.299  17.525  4.2887 -0.5109  2.0429
   6423SM     P 8204   5.411   3.533  17.635 -0.3142  0.0953 -0.1663
   6423SM   O13 8205   5.266   3.495  17.600  0.4555 -0.1530 -0.0824
   6423SM   O14 8206   5.442   3.652  17.714 -0.1032 -0.2503 -0.4171
   6423SM   O11 8207   5.487   3.537  17.494  0.4839  0.5516 -0.0626
   6423SM   O12 8208   5.484   3.406  17.696 -0.0512  0.0426 -0.1069
   6423SM   C1S 8209   5.420   3.583  17.378  0.1659  0.1735 -0.3473
   6423SM   H1S 8210   5.378   3.685  17.393  1.9072  0.7640  0.8718
   6423SM   H1T 8211   5.332   3.519  17.359 -0.7885  0.7161  1.8603
   6423SM    NF 8212   5.452   3.630  17.132  0.0717 -0.0884  0.5464
   6423SM   HNF 8213   5.447   3.573  17.051  0.9369  0.1116  0.3384
   6423SM   C2S 8214   5.512   3.565  17.248 -0.2107 -0.4337  0.3678
   6423SM   H2S 8215   5.601   3.626  17.274  0.0817  0.9847 -3.4322
   6423SM   C3S 8216   5.560   3.419  17.228 -0.0833 -0.3976 -0.0450
   6423SM   H3S 8217   5.475   3.348  17.223  1.0540 -1.7280 -1.9528
   6423SM    O3 8218   5.651   3.372  17.327  0.2306 -0.3839 -0.4544
   6423SM   HO3 8219   5.642   3.430  17.402 -0.4390 -1.0463 -0.0062
   6423SM   C4S 8220   5.626   3.413  17.093  0.7205 -0.1341  0.5024
   6423SM   H4S 8221   5.710   3.483  17.082  0.8716 -0.3280  0.4281
   6423SM   C5S 8222   5.590   3.327  17.002 -0.1580  0.0908  0.1741
   6423SM   H5S 8223   5.501   3.266  17.022 -0.9398  1.3286  0.6373
   6423SM   C6S 8224   5.661   3.311  16.875  0.2027 -0.6719  0.5129
   6423SM   H6S 8225   5.651   3.205  16.844 -0.3632 -0.5985  0.4346
   6423SM   H6T 8226   5.768   3.329  16.896  0.1513  0.1894  0.0656
   6423SM   C7S 8227   5.602   3.414  16.770 -0.6061  0.0894  0.0374
   6423SM   H7S 8228   5.655   3.389  16.675  0.5000 -3.5907  1.4429
   6423SM   H7T 8229   5.626   3.518  16.800  2.4537 -0.0255 -1.6231
   6423SM   C8S 8230   5.448   3.399  16.742  0.2171 -0.2603  0.4290
   6423SM   H8S 8231   5.398   3.396  16.841  0.9631 -2.6709  0.8028
   6423SM   H8T 8232   5.428   3.305  16.685 -3.8908  1.1196 -0.7504
   6423SM   C9S 8233   5.410   3.512  16.649  0.1508 -0.5426  0.8204
   6423SM   H9S 8234   5.451   3.606  16.691 -1.4728  0.0999  1.0550
   6423SM   H9T 8235   5.300   3.523  16.638  0.3234  1.2405  0.4639
   6423SM  C10S 8236   5.450   3.487  16.506 -0.4296 -0.1111  0.0746
   6423SM  H10S 8237   5.414   3.387  16.472  1.0718 -0.9201  0.7863
   6423SM  H10T 8238   5.558   3.477  16.484 -0.6576  1.3311 -1.9564
   6423SM  C11S 8239   5.394   3.575  16.400 -0.2324  0.1691  0.9518
   6423SM  H11S 8240   5.446   3.671  16.422  1.0824 -0.2777 -0.1009
   6423SM  H11T 8241   5.286   3.585  16.424 -0.3667  0.9325  0.0885
   6423SM  C12S 8242   5.406   3.535  16.250 -0.2909  0.4074  0.0218
   6423SM  H12S 8243   5.332   3.454  16.235 -2.7247  2.5435 -0.2107
   6423SM  H12T 8244   5.505   3.485  16.238 -1.2036 -1.1798 -1.2025
   6423SM  C13S 8245   5.383   3.648  16.156 -0.4547 -1.0751 -0.1639
   6423SM  H13S 8246   5.424   3.739  16.204 -0.6646 -1.5948  1.0396
   6423SM  H13T 8247   5.274   3.669  16.151 -0.3137  0.3366  1.4740
   6423SM  C14S 8248   5.438   3.628  16.013  0.1891  0.0295 -0.7753
   6423SM  H14S 8249   5.548   3.613  16.014  0.0446 -1.3036 -1.7219
   6423SM  H14T 8250   5.428   3.721  15.952  0.7982  1.0461  0.6079
   6423SM  C15S 8251   5.374   3.507  15.946  0.8973 -1.0664  0.0415
   6423SM  H15S 8252   5.267   3.530  15.922  0.9670 -0.7500  0.0341
   6423SM  H15T 8253   5.361   3.418  16.011 -0.3844 -0.1735  1.0856
   6423SM  C16S 8254   5.445   3.480  15.813 -0.1073 -0.2983  0.4217
   6423SM  H16S 8255   5.537   3.424  15.840 -0.7676 -0.6740  2.0300
   6423SM  H16T 8256   5.476   3.573  15.762 -0.3682 -0.5487 -0.2024
   6423SM  C17S 8257   5.349   3.413  15.713 -0.5638  0.6608  0.0745
   6423SM  H17S 8258   5.398   3.402  15.614 -0.9177  1.2869 -0.1795
   6423SM  H17T 8259   5.260   3.477  15.695 -0.3103  1.3001  0.9888
   6423SM  C18S 8260   5.315   3.270  15.769  0.0165  0.1815  0.1149
   6423SM  H18S 8261   5.274   3.277  15.872  0.2408 -0.5520  0.2572
   6423SM  H18T 8262   5.412   3.219  15.785  0.9009  2.2991  2.1117
   6423SM  H18U 8263   5.251   3.207  15.703  0.9846 -0.1978 -0.4848
   6423SM   C1F 8264   5.420   3.758  17.115  0.5562  0.2046  0.3463
   6423SM    OF 8265   5.453   3.839  17.199  0.2857  0.6075 -0.0870
   6423SM   C2F 8266   5.329   3.783  16.993  0.4075 -0.3530 -0.3000
   6423SM   H2F 8267   5.252   3.860  17.014 -0.3459 -1.3308  0.5837
   6423SM   H2G 8268   5.281   3.688  16.964  0.4565 -0.6793  0.6570
   6423SM   C3F 8269   5.409   3.850  16.875 -0.4203 -0.1844 -0.0133
   6423SM   H3F 8270   5.497   3.784  16.858 -0.3949 -0.3737  0.8231
   6423SM   H3G 8271   5.443   3.952  16.903 -2.3960  0.3259  0.6966
   6423SM   C4F 8272   5.325   3.865  16.746  0.5152 -0.4286  0.0102
   6423SM   H4F 8273   5.240   3.927  16.779  0.5452 -0.9060  1.0228
   6423SM   H4G 8274   5.273   3.773  16.713 -3.2861  1.3587  0.5101
   6423SM   C5F 8275   5.393   3.941  16.634  0.3402 -0.1639 -0.3193
   6423SM   H5F 8276   5.489   3.890  16.612 -0.3255 -1.7428  0.2416
   6423SM   H5G 8277   5.414   4.043  16.673 -0.6392 -0.3984  0.8875
   6423SM   C6F 8278   5.314   3.942  16.498  0.0520  0.6115 -0.6108
   6423SM   H6F 8279   5.206   3.961  16.511  0.2337  0.6766  1.0036
   6423SM   H6G 8280   5.310   3.837  16.462 -0.0403  1.3100 -2.7700
   6423SM   C7F 8281   5.381   4.040  16.411  0.3983 -0.7343  0.2940
   6423SM   H7F 8282   5.492   4.028  16.406  0.3228 -0.9539 -1.4053
   6423SM   H7G 8283   5.368   4.142  16.452 -1.2877 -1.0173  0.5513
   6423SM   C8F 8284   5.333   4.028  16.263  0.8929  0.1271 -0.5038
   6423SM   H8F 8285   5.228   4.054  16.287  0.5564 -0.8661 -0.8708
   6423SM   H8G 8286   5.330   3.924  16.224 -0.1559  0.4939 -1.4218
   6423SM   C9F 8287   5.403   4.130  16.174 -0.7441 -0.6654 -0.1752
   6423SM   H9F 8288   5.504   4.088  16.157 -0.5328 -0.2111 -0.0809
   6423SM   H9G 8289   5.416   4.231  16.220 -1.4799 -0.5186 -0.2678
   6423SM  C10F 8290   5.346   4.156  16.033 -0.0287 -0.3655  0.1497
   6423SM  H10F 8291   5.409   4.232  15.981  0.3005 -0.5388  0.2911
   6423SM  H10G 8292   5.241   4.186  16.050 -0.1332 -0.8120  0.3208
   6423SM  C11F 8293   5.348   4.027  15.956  0.2973  1.0056 -0.4368
   6423SM  H11F 8294   5.292   3.947  16.008  1.1600  0.7699  0.1473
   6423SM  H11G 8295   5.451   3.989  15.940  0.0662  0.3445 -0.3893
   6423SM  C12F 8296   5.293   4.034  15.814  0.4115 -0.3959  0.4011
   6423SM  H12F 8297   5.359   4.106  15.760 -0.1142 -1.3174 -1.5560
   6423SM  H12G 8298   5.189   4.071  15.800  0.5464 -0.1666 -0.0241
   6423SM  C13F 8299   5.300   3.903  15.727 -0.1836 -0.2261 -0.5584
   6423SM  H13F 8300   5.238   3.833  15.786  1.2988 -0.6114  0.6226
   6423SM  H13G 8301   5.400   3.854  15.729  0.3894  0.9325  1.3669
   6423SM  C14F 8302   5.269   3.920  15.579 -0.0226  0.2260  0.1366
   6423SM  H14F 8303   5.347   3.977  15.524 -1.0753  0.6135 -1.0167
   6423SM  H14G 8304   5.174   3.976  15.568  0.0675  0.3090 -0.2331
   6423SM  C15F 8305   5.253   3.785  15.505 -0.4707 -0.2630  0.6050
   6423SM  H15F 8306   5.158   3.729  15.517 -2.0040  2.1709  0.3664
   6423SM  H15G 8307   5.341   3.729  15.545  0.9845  1.9138  0.6105
   6423SM  C16F 8308   5.281   3.808  15.354 -0.3691  0.1962  0.3281
   6423SM  H16F 8309   5.377   3.861  15.338  0.0013 -0.1458  1.3597
   6423SM  H16G 8310   5.198   3.866  15.306  0.5878  1.0124 -0.3844
   6423SM  C17F 8311   5.294   3.665  15.283  0.7692 -0.3798  0.2629
   6423SM  H17F 8312   5.194   3.616  15.288  0.8830 -0.6098  0.2837
   6423SM  H17G 8313   5.371   3.611  15.342 -0.3212 -0.4420  1.6884
   6423SM  C18F 8314   5.327   3.688  15.129  0.2903 -0.3786  0.0704
   6423SM  H18F 8315   5.417   3.752  15.136  0.2250 -0.2694 -0.0878
   6423SM  H18G 8316   5.241   3.741  15.082 -0.8721 -2.7724 -0.6873
   6423SM  C19F 8317   5.361   3.564  15.050 -0.4759 -0.1247  0.0092
   6423SM  H19F 8318   5.460   3.532  15.088 -0.7768 -0.2132  0.7392
   6423SM  H19G 8319   5.371   3.597  14.944  0.5412 -2.7852 -0.7895
   6423SM  C20F 8320   5.276   3.440  15.059 -0.5039  0.1063  0.5812
   6423SM  H20F 8321   5.173   3.469  15.028  0.2225 -0.2510 -2.5782
   6423SM  H20G 8322   5.285   3.399  15.162 -1.4180  0.8221  0.9562
   6423SM  C21F 8323   5.328   3.329  14.957 -0.1894 -0.1153 -0.7732
   6423SM  H21F 8324   5.437   3.334  14.977 -0.0588  2.8873 -1.6953
   6423SM  H21G 8325   5.318   3.377  14.857  1.2858 -1.6279 -1.6912
   6423SM  C22F 8326   5.262   3.200  14.973 -0.0161  1.0174 -0.6756
   6423SM  H22F 8327   5.282   3.155  15.073 -0.9629 -1.0115 -1.3417
   6423SM  H22G 8328   5.294   3.128  14.894 -0.6831  0.0964 -0.1207
   6423SM  C23F 8329   5.108   3.198  14.970  0.5881  0.1888  0.6418
   6423SM  H23F 8330   5.066   3.096  14.956  1.1999  0.0946 -0.7655
   6423SM  H23G 8331   5.061   3.238  14.877  2.7080 -0.7411 -0.9370
   6423SM  H23H 8332   5.054   3.245  15.054  0.0973 -1.0436  1.0275
   6523SM     N 8333   4.622   5.542  17.220  0.0509 -0.3551  0.4934
   6523SM   C15 8334   4.507   5.638  17.246  0.0002 -0.6455  0.1657
   6523SM  H15A 8335   4.413   5.596  17.214 -0.6087  1.6559 -1.2579
   6523SM  H15B 8336   4.527   5.729  17.192 -2.0187 -0.6144 -0.6262
   6523SM  H15C 8337   4.514   5.656  17.352  1.5494  3.7963 -0.4905
   6523SM   C14 8338   4.640   5.505  17.078 -0.2476  0.0019 -0.2832
   6523SM  H14A 8339   4.731   5.451  17.058  0.6836  1.4116 -0.0148
   6523SM  H14B 8340   4.628   5.596  17.021 -2.0356 -0.4296 -0.6485
   6523SM  H14C 8341   4.565   5.438  17.039 -0.9961  1.5559 -1.6672
   6523SM   C13 8342   4.752   5.596  17.275 -0.5016  0.2929 -0.7324
   6523SM  H13A 8343   4.824   5.516  17.286 -1.9086 -1.0415 -0.7854
   6523SM  H13B 8344   4.735   5.643  17.370 -0.6885  1.6274 -1.4073
   6523SM  H13C 8345   4.796   5.676  17.217 -0.0933  2.1905  2.0402
   6523SM   C12 8346   4.593   5.407  17.294 -0.0499 -0.3505 -0.0789
   6523SM  H12A 8347   4.600   5.414  17.402  1.0217  0.3498 -0.1778
   6523SM  H12B 8348   4.671   5.340  17.261  0.9726  0.4731  0.6168
   6523SM   C11 8349   4.457   5.338  17.282  0.0853  0.4683 -0.3509
   6523SM  H11A 8350   4.449   5.299  17.178  0.9459 -0.4681 -0.0866
   6523SM  H11B 8351   4.363   5.396  17.294  0.0424  0.2340  0.5469
   6523SM     P 8352   4.552   5.105  17.370  0.2066 -0.4066 -0.4173
   6523SM   O13 8353   4.687   5.123  17.424  0.3115 -0.1938 -0.0116
   6523SM   O14 8354   4.472   4.991  17.422  0.0456  0.0102  0.1278
   6523SM   O11 8355   4.579   5.089  17.213 -0.7450 -0.5241 -0.2672
   6523SM   O12 8356   4.464   5.234  17.377 -0.2431  0.0983 -0.5895
   6523SM   C1S 8357   4.649   4.978  17.165 -0.5176  0.6594  0.5265
   6523SM   H1S 8358   4.590   4.884  17.156  2.6729 -1.4354 -0.2789
   6523SM   H1T 8359   4.735   4.946  17.228 -2.0388 -1.8961  1.4931
   6523SM    NF 8360   4.765   4.879  16.981 -0.6653 -0.0076 -0.2830
   6523SM   HNF 8361   4.851   4.842  17.017 -1.5219 -1.1261  0.6985
   6523SM   C2S 8362   4.716   5.006  17.031  0.0210  1.5645 -0.6964
   6523SM   H2S 8363   4.642   5.030  16.952 -0.9066 -2.6774 -1.3383
   6523SM   C3S 8364   4.823   5.108  17.054 -0.2952 -0.1095  0.4746
   6523SM   H3S 8365   4.900   5.053  17.113 -0.4333 -0.3369  0.4469
   6523SM    O3 8366   4.789   5.223  17.130 -0.3821  0.2558 -0.1429
   6523SM   HO3 8367   4.708   5.190  17.169  0.3962  0.6951  1.9893
   6523SM   C4S 8368   4.885   5.144  16.918 -1.2978 -0.0463 -0.5215
   6523SM   H4S 8369   4.976   5.087  16.896  0.6283  2.0318  1.5223
   6523SM   C5S 8370   4.853   5.246  16.834  0.7713 -0.1138  0.7151
   6523SM   H5S 8371   4.777   5.315  16.872 -0.1670 -0.1604 -0.9845
   6523SM   C6S 8372   4.925   5.285  16.704 -0.1693 -0.0141  0.2625
   6523SM   H6S 8373   5.010   5.218  16.679 -0.6047 -0.1951 -0.7948
   6523SM   H6T 8374   4.963   5.389  16.708 -0.5986  0.1369  0.5053
   6523SM   C7S 8375   4.832   5.278  16.579 -0.1194 -0.7657 -0.2651
   6523SM   H7S 8376   4.762   5.364  16.580  0.0778 -0.6045  0.5704
   6523SM   H7T 8377   4.774   5.184  16.586 -0.8908 -0.1651  2.8006
   6523SM   C8S 8378   4.912   5.261  16.449  0.5438  0.0566  0.9392
   6523SM   H8S 8379   4.979   5.173  16.449  0.0818 -0.3237  2.1694
   6523SM   H8T 8380   4.984   5.343  16.428 -0.3289  0.5073 -0.4588
   6523SM   C9S 8381   4.821   5.263  16.318 -0.0001 -0.7138  0.4860
   6523SM   H9S 8382   4.744   5.343  16.330  0.4275 -0.0251 -1.0737
   6523SM   H9T 8383   4.763   5.168  16.311  1.8272 -1.9086  1.0594
   6523SM  C10S 8384   4.905   5.283  16.185 -0.1321 -0.0801  0.0742
   6523SM  H10S 8385   4.988   5.211  16.198  2.1295  2.9127  4.5728
   6523SM  H10T 8386   4.958   5.380  16.192  1.5448 -0.8360 -1.3430
   6523SM  C11S 8387   4.828   5.273  16.053  0.3857 -0.2897 -0.1874
   6523SM  H11S 8388   4.737   5.337  16.051 -0.4076 -1.3940 -1.4128
   6523SM  H11T 8389   4.804   5.165  16.042 -0.6094 -0.2734  1.5557
   6523SM  C12S 8390   4.905   5.319  15.929  0.0363  0.3419  0.6449
   6523SM  H12S 8391   5.004   5.268  15.937  1.1425  2.1711 -0.5816
   6523SM  H12T 8392   4.931   5.427  15.939  3.1875 -0.3691  1.4898
   6523SM  C13S 8393   4.823   5.289  15.802 -0.3433  0.0711  1.2603
   6523SM  H13S 8394   4.737   5.359  15.798  0.4396  1.0650  1.1911
   6523SM  H13T 8395   4.795   5.182  15.800 -2.3021  0.4516 -3.3761
   6523SM  C14S 8396   4.895   5.317  15.666 -0.4550 -0.3249 -0.1452
   6523SM  H14S 8397   4.995   5.365  15.677 -0.5068 -0.2492 -0.0114
   6523SM  H14T 8398   4.850   5.394  15.600  2.7324  0.3378 -1.7710
   6523SM  C15S 8399   4.922   5.184  15.575  0.5493 -0.6541  0.2367
   6523SM  H15S 8400   4.824   5.132  15.566 -0.8636  1.2473  3.0273
   6523SM  H15T 8401   4.988   5.116  15.634  0.6915 -0.4273  0.3411
   6523SM  C16S 8402   4.971   5.205  15.429 -0.1683 -0.3469 -0.0778
   6523SM  H16S 8403   5.073   5.248  15.416 -0.3446  0.0400 -0.2183
   6523SM  H16T 8404   4.900   5.277  15.381 -0.2872 -1.6290 -1.9355
   6523SM  C17S 8405   4.951   5.076  15.346  1.5349  0.3210  0.2075
   6523SM  H17S 8406   4.853   5.035  15.378  1.2879  0.3049 -0.5567
   6523SM  H17T 8407   5.019   4.992  15.373 -0.4894 -0.8841  1.7905
   6523SM  C18S 8408   4.962   5.093  15.196 -0.0230  0.0639  0.6841
   6523SM  H18S 8409   4.934   5.002  15.138 -2.4510  1.0115  0.2303
   6523SM  H18T 8410   5.065   5.118  15.162 -0.1628 -0.4411 -0.1670
   6523SM  H18U 8411   4.902   5.179  15.158  1.3963  1.2373  1.0381
   6523SM   C1F 8412   4.701   4.790  16.900 -0.5483 -0.3316  0.0823
   6523SM    OF 8413   4.583   4.820  16.869 -0.2427  0.7102 -0.8665
   6523SM   C2F 8414   4.762   4.660  16.857 -0.6247  0.0290  0.0424
   6523SM   H2F 8415   4.689   4.582  16.885 -1.5989  0.6974 -0.5510
   6523SM   H2G 8416   4.852   4.632  16.915 -0.2553 -1.5228 -1.2026
   6523SM   C3F 8417   4.788   4.663  16.701 -0.7332  0.3590  0.3199
   6523SM   H3F 8418   4.692   4.692  16.654 -0.4797 -0.0866 -0.4931
   6523SM   H3G 8419   4.816   4.559  16.676 -1.7818  0.2504 -0.4487
   6523SM   C4F 8420   4.893   4.771  16.656  0.1614  0.2774 -0.4333
   6523SM   H4F 8421   4.981   4.757  16.722  0.4030  0.7452 -0.6516
   6523SM   H4G 8422   4.851   4.872  16.675  1.8921  0.7860  0.9453
   6523SM   C5F 8423   4.951   4.745  16.517 -0.5798 -0.1422  0.8623
   6523SM   H5F 8424   4.957   4.637  16.490  1.0920  0.0732  0.2798
   6523SM   H5G 8425   5.058   4.773  16.516 -0.2510 -1.3399 -0.6747
   6523SM   C6F 8426   4.887   4.826  16.413  0.3936 -0.8127 -0.2667
   6523SM   H6F 8427   4.881   4.937  16.418 -0.3969 -0.7531 -1.8292
   6523SM   H6G 8428   4.778   4.803  16.415  0.4778 -1.2573 -0.7285
   6523SM   C7F 8429   4.939   4.790  16.272 -0.2564  0.2783  0.7893
   6523SM   H7F 8430   4.921   4.682  16.252  1.1642  0.0778  0.4423
   6523SM   H7G 8431   5.046   4.817  16.260 -0.6436  1.3009 -0.6131
   6523SM   C8F 8432   4.864   4.849  16.148 -0.2113  0.3071 -0.2077
   6523SM   H8F 8433   4.910   4.948  16.131 -0.8330  1.0593  2.1904
   6523SM   H8G 8434   4.759   4.865  16.181  0.2072  1.2033  0.7217
   6523SM   C9F 8435   4.858   4.772  16.013  1.3602  0.5962 -0.4076
   6523SM   H9F 8436   4.784   4.689  16.008 -0.1013  1.9139 -1.9189
   6523SM   H9G 8437   4.961   4.733  16.000  1.2443  0.1927 -0.1281
   6523SM  C10F 8438   4.838   4.871  15.896  0.3848 -0.0139  0.1971
   6523SM  H10F 8439   4.902   4.962  15.903  0.5924 -0.2369  1.3560
   6523SM  H10G 8440   4.731   4.900  15.897 -0.0226 -1.4714  0.1930
   6523SM  C11F 8441   4.886   4.819  15.766 -0.2247  0.2171  0.0165
   6523SM  H11F 8442   4.996   4.815  15.778 -0.4228  0.1925  2.2932
   6523SM  H11G 8443   4.860   4.890  15.684 -0.9195 -1.1028 -0.9365
   6523SM  C12F 8444   4.830   4.676  15.728  0.3349 -0.4498 -0.5926
   6523SM  H12F 8445   4.719   4.671  15.733  0.3278  0.0971  0.0159
   6523SM  H12G 8446   4.855   4.603  15.808  1.3968  0.1738 -0.3451
   6523SM  C13F 8447   4.861   4.621  15.591 -0.4015 -0.4021 -0.3815
   6523SM  H13F 8448   4.830   4.515  15.580  0.8999 -0.5671 -3.8465
   6523SM  H13G 8449   4.967   4.630  15.558 -1.0497 -0.1807 -2.5937
   6523SM  C14F 8450   4.790   4.696  15.467  0.4249 -0.3068 -1.2697
   6523SM  H14F 8451   4.806   4.806  15.467  1.5680 -0.4393  0.4668
   6523SM  H14G 8452   4.680   4.682  15.476  0.5597  0.0099  1.8006
   6523SM  C15F 8453   4.829   4.652  15.322 -0.5230 -0.1643  1.0064
   6523SM  H15F 8454   4.851   4.543  15.324 -2.5525 -0.9647 -3.9300
   6523SM  H15G 8455   4.910   4.712  15.276  0.3410 -2.2008 -0.2905
   6523SM  C16F 8456   4.711   4.660  15.217 -0.5717 -0.6172  0.4088
   6523SM  H16F 8457   4.618   4.606  15.242  0.4944 -1.9299  1.7568
   6523SM  H16G 8458   4.751   4.617  15.123  0.2588  1.1573 -0.0957
   6523SM  C17F 8459   4.676   4.805  15.180  0.2610 -0.5064 -0.0288
   6523SM  H17F 8460   4.767   4.859  15.146 -0.5892  1.4013  0.5435
   6523SM  H17G 8461   4.627   4.862  15.262 -1.3466 -1.0737 -0.5577
   6523SM  C18F 8462   4.575   4.815  15.061 -0.5144  0.8863 -0.5111
   6523SM  H18F 8463   4.605   4.737  14.988 -2.0403  1.5916 -1.9373
   6523SM  H18G 8464   4.587   4.916  15.018 -0.8835  0.6382 -1.2126
   6523SM  C19F 8465   4.431   4.790  15.094  0.3644  0.0198  0.1190
   6523SM  H19F 8466   4.398   4.843  15.185 -0.4846 -2.8124  1.5828
   6523SM  H19G 8467   4.428   4.681  15.114  1.0153 -0.3433 -1.5683
   6523SM  C20F 8468   4.328   4.825  14.990 -0.1669  0.9856 -0.0389
   6523SM  H20F 8469   4.370   4.781  14.897 -0.7733 -0.3474  0.2987
   6523SM  H20G 8470   4.330   4.935  14.970  1.4300  0.7657 -1.3392
   6523SM  C21F 8471   4.191   4.769  15.016  0.5102 -0.4656 -0.3133
   6523SM  H21F 8472   4.155   4.806  15.114 -1.2734 -2.2180 -0.2382
   6523SM  H21G 8473   4.195   4.658  15.021 -0.4483 -0.4432  2.1175
   6523SM  C22F 8474   4.094   4.805  14.904  0.2158  0.1737  0.8052
   6523SM  H22F 8475   4.080   4.916  14.899 -0.0532  0.0928 -0.6825
   6523SM  H22G 8476   3.999   4.761  14.942  1.7603 -3.7653  0.5602
   6523SM  C23F 8477   4.133   4.741  14.768 -0.0336 -0.2386  0.8367
   6523SM  H23F 8478   4.060   4.758  14.686  0.0861 -1.5106  0.4329
   6523SM  H23G 8479   4.147   4.630  14.768 -2.0595 -0.5518 -0.7662
   6523SM  H23H 8480   4.231   4.779  14.732 -1.2197 -0.4149 -2.9741
   6623SM     N 8481   3.829   2.693  17.889  0.2291 -0.5054 -0.1595
   6623SM   C15 8482   3.802   2.545  17.883  0.2819 -0.8205  0.4599
   6623SM  H15A 8483   3.889   2.481  17.890  0.9465  0.2041  2.2212
   6623SM  H15B 8484   3.751   2.518  17.791  2.0864 -1.0044 -0.5245
   6623SM  H15C 8485   3.728   2.525  17.959  0.7366  1.0421  1.4422
   6623SM   C14 8486   3.700   2.761  17.895 -0.3007  0.4036 -0.0906
   6623SM  H14A 8487   3.726   2.866  17.900  3.1305 -0.3096 -0.2958
   6623SM  H14B 8488   3.640   2.734  17.981 -0.1032 -0.6668 -0.2777
   6623SM  H14C 8489   3.646   2.740  17.804 -0.5664  1.4716 -0.1926
   6623SM   C13 8490   3.900   2.727  18.012  0.0034  0.1237 -1.0922
   6623SM  H13A 8491   3.866   2.666  18.095  0.1709 -1.3902 -2.0860
   6623SM  H13B 8492   3.896   2.832  18.038 -1.7299 -0.5774  1.9777
   6623SM  H13C 8493   4.003   2.694  18.011  0.1808  0.0534  2.8589
   6623SM   C12 8494   3.916   2.738  17.765  0.0042  0.8699  0.6297
   6623SM  H12A 8495   3.998   2.667  17.761  1.3917  2.4023  0.6991
   6623SM  H12B 8496   3.957   2.837  17.780 -1.0306  2.0073 -3.0845
   6623SM   C11 8497   3.838   2.727  17.623 -0.1075 -0.2519  0.0417
   6623SM  H11A 8498   3.896   2.778  17.543 -0.1072 -0.0210  0.1879
   6623SM  H11B 8499   3.747   2.789  17.636  0.2488  0.0846  0.9734
   6623SM     P 8500   3.889   2.494  17.506 -0.1368  0.4313  0.0468
   6623SM   O13 8501   4.034   2.510  17.529  0.3459 -0.9357 -0.3005
   6623SM   O14 8502   3.835   2.362  17.545  0.3988 -1.0769  0.1872
   6623SM   O11 8503   3.844   2.525  17.364 -0.6289  0.4594  0.0441
   6623SM   O12 8504   3.809   2.595  17.592 -0.1861 -0.4909  0.0158
   6623SM   C1S 8505   3.709   2.511  17.325  0.2430  0.2274  0.3993
   6623SM   H1S 8506   3.649   2.580  17.387 -0.4850  0.4731 -0.5587
   6623SM   H1T 8507   3.678   2.405  17.333  0.4228  0.0415 -0.9943
   6623SM    NF 8508   3.551   2.521  17.138  0.6560 -0.1738 -0.5294
   6623SM   HNF 8509   3.525   2.438  17.089  0.5638 -0.5141  0.0798
   6623SM   C2S 8510   3.690   2.533  17.172 -0.0564 -0.6506 -0.3587
   6623SM   H2S 8511   3.726   2.637  17.155  0.5934 -0.5077  1.6159
   6623SM   C3S 8512   3.788   2.447  17.087 -0.1455  0.5648  0.3675
   6623SM   H3S 8513   3.747   2.344  17.089 -1.5848  1.0462 -1.2851
   6623SM    O3 8514   3.921   2.431  17.144  0.3378 -0.0693 -0.2693
   6623SM   HO3 8515   3.913   2.459  17.236  0.5402  2.2736 -0.8926
   6623SM   C4S 8516   3.808   2.500  16.951  0.1058 -0.5545 -0.6558
   6623SM   H4S 8517   3.759   2.436  16.876 -0.9516 -0.6844  0.1153
   6623SM   C5S 8518   3.895   2.595  16.905  0.1385  0.3920 -0.6110
   6623SM   H5S 8519   3.964   2.635  16.981 -0.5099  0.6177 -0.1337
   6623SM   C6S 8520   3.928   2.623  16.766 -0.4695  0.1829  0.2326
   6623SM   H6S 8521   4.026   2.575  16.746  0.1848  1.5113  0.1428
   6623SM   H6T 8522   3.952   2.730  16.750  0.4348  0.2525  1.8910
   6623SM   C7S 8523   3.836   2.579  16.653 -0.7210  0.3439 -0.2049
   6623SM   H7S 8524   3.740   2.633  16.668  0.1423  1.6345  0.7909
   6623SM   H7T 8525   3.794   2.476  16.660 -0.5639  0.4155  3.1854
   6623SM   C8S 8526   3.902   2.620  16.519  0.3208  0.0566 -0.2952
   6623SM   H8S 8527   4.002   2.572  16.513  0.2889 -0.1777  0.8230
   6623SM   H8T 8528   3.927   2.729  16.519 -1.5912  0.6443  2.9928
   6623SM   C9S 8529   3.816   2.592  16.396 -0.0729 -0.8711  0.5087
   6623SM   H9S 8530   3.727   2.658  16.388  0.9123  0.2998 -1.6007
   6623SM   H9T 8531   3.772   2.491  16.410  0.6719 -1.3053 -0.1778
   6623SM  C10S 8532   3.895   2.624  16.269  0.0740 -0.2803  0.3207
   6623SM  H10S 8533   3.991   2.568  16.266  1.0867  1.3861  0.8364
   6623SM  H10T 8534   3.928   2.729  16.281 -1.1642  0.3688 -1.5708
   6623SM  C11S 8535   3.816   2.618  16.135  0.3684 -0.2350 -0.2123
   6623SM  H11S 8536   3.735   2.694  16.131  0.0444 -0.5515  0.1509
   6623SM  H11T 8537   3.763   2.521  16.118 -0.2992 -0.0061  0.5151
   6623SM  C12S 8538   3.908   2.635  16.010  0.3939  0.2535  0.0361
   6623SM  H12S 8539   3.989   2.560  16.017  0.6621  0.5193 -0.2053
   6623SM  H12T 8540   3.952   2.737  16.015  0.4429  0.1962  0.9738
   6623SM  C13S 8541   3.841   2.627  15.877  0.2455 -0.4818 -0.3076
   6623SM  H13S 8542   3.762   2.706  15.875  0.1412 -0.5879 -0.4140
   6623SM  H13T 8543   3.793   2.528  15.861 -0.9641 -0.0589  0.5247
   6623SM  C14S 8544   3.934   2.664  15.761  0.1971  0.0751 -0.0682
   6623SM  H14S 8545   4.011   2.584  15.755 -0.0454 -0.1414 -0.4020
   6623SM  H14T 8546   3.991   2.758  15.776 -0.3909  0.2510  1.2171
   6623SM  C15S 8547   3.864   2.671  15.628  0.4923 -0.3154 -0.8706
   6623SM  H15S 8548   3.795   2.756  15.607 -1.3258 -1.5813 -0.1960
   6623SM  H15T 8549   3.800   2.581  15.616  0.0089 -0.1696  0.4914
   6623SM  C16S 8550   3.961   2.672  15.507 -0.3516  0.2003  0.1225
   6623SM  H16S 8551   4.024   2.582  15.495  2.3397  1.8610  0.8330
   6623SM  H16T 8552   4.034   2.750  15.538  0.5904 -1.0515  1.1083
   6623SM  C17S 8553   3.900   2.714  15.368 -0.3279  0.2118  0.0356
   6623SM  H17S 8554   3.835   2.803  15.383 -0.2377  0.1461  0.8601
   6623SM  H17T 8555   3.837   2.629  15.332 -0.6457  0.8814 -1.0646
   6623SM  C18S 8556   4.001   2.738  15.257  0.5452  0.4731 -0.5617
   6623SM  H18S 8557   4.082   2.663  15.248 -0.6151 -1.1900  1.7133
   6623SM  H18T 8558   4.047   2.837  15.277 -0.2703  0.6269  0.6547
   6623SM  H18U 8559   3.958   2.735  15.155 -2.1340 -1.2726  0.5096
   6623SM   C1F 8560   3.454   2.605  17.175 -0.1558  0.3580 -0.3728
   6623SM    OF 8561   3.467   2.707  17.242 -0.6406  0.4637 -0.6842
   6623SM   C2F 8562   3.318   2.569  17.118 -0.4039  0.1363 -0.3148
   6623SM   H2F 8563   3.248   2.575  17.204 -0.1831 -0.1680 -0.1152
   6623SM   H2G 8564   3.325   2.468  17.073 -0.7158  0.1902 -0.4916
   6623SM   C3F 8565   3.275   2.666  17.007  0.7968  0.0410 -0.7619
   6623SM   H3F 8566   3.281   2.770  17.045 -0.2491 -1.0177  2.6917
   6623SM   H3G 8567   3.168   2.647  16.984  0.3756 -0.3145  1.2765
   6623SM   C4F 8568   3.352   2.650  16.876 -0.0026 -0.1185  0.9380
   6623SM   H4F 8569   3.399   2.550  16.864  0.9464  0.6080 -2.5117
   6623SM   H4G 8570   3.432   2.727  16.884 -1.1669  1.2734 -0.3286
   6623SM   C5F 8571   3.274   2.680  16.743  0.5126  0.7632  0.1570
   6623SM   H5F 8572   3.223   2.779  16.748  0.7637  0.8341  1.8492
   6623SM   H5G 8573   3.191   2.607  16.726  1.6548  0.2772 -4.6493
   6623SM   C6F 8574   3.366   2.679  16.617  0.0705  0.3286  0.7411
   6623SM   H6F 8575   3.448   2.604  16.622 -0.8785 -1.1384 -3.0058
   6623SM   H6G 8576   3.424   2.773  16.630 -2.5381  2.2245 -0.4520
   6623SM   C7F 8577   3.294   2.679  16.484 -0.0851  0.4674 -0.6176
   6623SM   H7F 8578   3.209   2.749  16.495  0.5503  0.8428  4.0516
   6623SM   H7G 8579   3.257   2.576  16.465 -2.1882  1.4646 -2.3789
   6623SM   C8F 8580   3.374   2.728  16.368 -0.5355  0.4042  0.2102
   6623SM   H8F 8581   3.469   2.671  16.376 -1.6300 -1.6167 -0.5938
   6623SM   H8G 8582   3.404   2.835  16.378 -0.4756  0.3413  0.7335
   6623SM   C9F 8583   3.321   2.696  16.232 -0.1894 -0.7417  0.4433
   6623SM   H9F 8584   3.233   2.758  16.206  1.1089  0.9463 -0.1083
   6623SM   H9G 8585   3.286   2.591  16.225 -1.4471 -0.3881  1.1835
   6623SM  C10F 8586   3.427   2.720  16.126 -0.2451  0.4274 -0.0238
   6623SM  H10F 8587   3.507   2.644  16.129  1.0982  1.8148  2.2655
   6623SM  H10G 8588   3.475   2.816  16.154  0.3783  0.0905  0.0597
   6623SM  C11F 8589   3.370   2.705  15.987 -0.5714 -0.8959  0.5988
   6623SM  H11F 8590   3.284   2.775  15.986 -0.0013 -0.1775 -0.0427
   6623SM  H11G 8591   3.337   2.603  15.959  1.2273 -1.1024 -1.0198
   6623SM  C12F 8592   3.478   2.739  15.881  0.2267  0.6343 -0.1385
   6623SM  H12F 8593   3.551   2.655  15.883 -0.1151  0.2585 -1.8065
   6623SM  H12G 8594   3.535   2.829  15.914  1.8442 -0.2877 -0.2756
   6623SM  C13F 8595   3.416   2.748  15.746 -0.2183 -0.3273  0.0246
   6623SM  H13F 8596   3.369   2.849  15.749 -0.2188 -0.2230 -1.9124
   6623SM  H13G 8597   3.344   2.671  15.711  0.6741 -1.4926  0.6854
   6623SM  C14F 8598   3.526   2.787  15.635 -0.1291  0.8586 -0.3856
   6623SM  H14F 8599   3.588   2.697  15.615 -0.4790  1.2011 -3.4465
   6623SM  H14G 8600   3.593   2.869  15.667  2.6536 -0.4142 -2.5240
   6623SM  C15F 8601   3.462   2.824  15.505 -0.3092  0.2318  0.6791
   6623SM  H15F 8602   3.399   2.914  15.525 -1.4143 -0.9969  3.0082
   6623SM  H15G 8603   3.389   2.742  15.487  0.5821 -0.1949 -1.3406
   6623SM  C16F 8604   3.565   2.833  15.387  0.0391  0.4092  0.0500
   6623SM  H16F 8605   3.608   2.731  15.372 -1.0695  0.0016 -0.5233
   6623SM  H16G 8606   3.647   2.895  15.430  2.0560 -2.3104  0.4226
   6623SM  C17F 8607   3.502   2.885  15.254 -0.1241 -0.2727  0.0086
   6623SM  H17F 8608   3.572   2.881  15.168  0.3881 -1.7647  0.4579
   6623SM  H17G 8609   3.478   2.994  15.261 -0.3752 -0.3563  0.5357
   6623SM  C18F 8610   3.381   2.797  15.198 -0.9273 -0.3032  0.6985
   6623SM  H18F 8611   3.295   2.810  15.267  0.0732 -0.9491  2.1157
   6623SM  H18G 8612   3.404   2.688  15.196 -0.7521 -0.2625 -0.7265
   6623SM  C19F 8613   3.334   2.832  15.055  0.2621 -0.2424 -0.3615
   6623SM  H19F 8614   3.410   2.793  14.983 -0.6268 -2.5235 -0.1730
   6623SM  H19G 8615   3.326   2.942  15.050 -1.5054 -0.2819  0.7898
   6623SM  C20F 8616   3.201   2.751  15.029 -0.3363 -0.3625  0.0736
   6623SM  H20F 8617   3.136   2.753  15.118 -1.0210 -1.5630 -0.3753
   6623SM  H20G 8618   3.224   2.644  15.012  0.8324 -0.0130 -0.7231
   6623SM  C21F 8619   3.130   2.815  14.910  0.6932  0.2298  0.8410
   6623SM  H21F 8620   3.188   2.801  14.817 -2.1600 -0.8498 -0.9303
   6623SM  H21G 8621   3.118   2.925  14.923  1.8113  0.5811 -0.8858
   6623SM  C22F 8622   2.992   2.751  14.883 -0.4059 -0.3684  0.3073
   6623SM  H22F 8623   2.996   2.641  14.897 -0.3534 -0.4531 -0.3549
   6623SM  H22G 8624   2.974   2.756  14.774 -3.7291  1.1513  0.7929
   6623SM  C23F 8625   2.885   2.808  14.974  0.4352  0.2479  0.5079
   6623SM  H23F 8626   2.790   2.764  14.936  1.1154 -0.8038 -0.0275
   6623SM  H23G 8627   2.887   2.919  14.981  2.2918  0.3264 -0.6612
   6623SM  H23H 8628   2.888   2.774  15.079 -1.5768  2.0335  1.2187
   6723SM     N 8629   2.615   0.256  17.368  0.8926 -0.3750 -0.2440
   6723SM   C15 8630   2.637   0.234  17.516 -0.1468  0.4447  0.2187
   6723SM  H15A 8631   2.661   0.129  17.528 -0.0125  0.6809  2.3332
   6723SM  H15B 8632   2.551   0.252  17.579 -0.9500 -0.2674 -0.6414
   6723SM  H15C 8633   2.714   0.300  17.553  1.7658 -1.6422  0.1291
   6723SM   C14 8634   2.508   0.167  17.323  0.0805  0.1656 -0.1851
   6723SM  H14A 8635   2.541   0.067  17.344  2.4217  0.0254 -3.7028
   6723SM  H14B 8636   2.490   0.173  17.217  0.5498  0.3204 -0.2606
   6723SM  H14C 8637   2.415   0.192  17.372  0.0930  1.2415 -0.6801
   6723SM   C13 8638   2.578   0.396  17.338  0.1924 -0.5050  0.2141
   6723SM  H13A 8639   2.570   0.415  17.232  0.1027 -0.8972  0.1483
   6723SM  H13B 8640   2.652   0.467  17.372  0.9740 -0.2309 -1.9293
   6723SM  H13C 8641   2.477   0.422  17.369  0.1784  0.1190 -0.3355
   6723SM   C12 8642   2.753   0.225  17.304  0.3921 -0.9831 -0.0312
   6723SM  H12A 8643   2.803   0.140  17.348 -0.2851 -1.6642 -0.5459
   6723SM  H12B 8644   2.812   0.313  17.328 -0.7444 -0.3076  0.3382
   6723SM   C11 8645   2.753   0.206  17.148 -0.1012  0.0530 -0.0654
   6723SM  H11A 8646   2.855   0.223  17.108  0.2974  1.3526  1.3950
   6723SM  H11B 8647   2.687   0.283  17.103 -2.8260 -1.1475  1.5826
   6723SM     P 8648   2.785  -0.050  17.160 -0.3868  0.5352  0.0611
   6723SM   O13 8649   2.911  -0.018  17.226 -0.3312  0.1368 -0.1622
   6723SM   O14 8650   2.686  -0.120  17.237  0.2945 -0.5429  0.2564
   6723SM   O11 8651   2.808  -0.131  17.031  0.5174  0.4166 -0.2881
   6723SM   O12 8652   2.716   0.077  17.110  0.1644 -0.0319  0.1252
   6723SM   C1S 8653   2.721  -0.124  16.921 -0.2685 -0.4831  0.1754
   6723SM   H1S 8654   2.616  -0.110  16.955 -0.7733  0.3814 -1.6366
   6723SM   H1T 8655   2.727  -0.223  16.872  0.1800 -0.4052  0.0706
   6723SM    NF 8656   2.683  -0.054  16.691  0.2927 -0.0549 -0.1052
   6723SM   HNF 8657   2.711  -0.129  16.631  2.8659 -0.3239  1.2620
   6723SM   C2S 8658   2.764  -0.030  16.804  0.0593 -0.0858 -0.3261
   6723SM   H2S 8659   2.757   0.074  16.843  0.4823 -0.2324  0.1560
   6723SM   C3S 8660   2.915  -0.048  16.769  0.5276  0.1188 -0.1497
   6723SM   H3S 8661   2.940  -0.151  16.734 -1.7590 -0.3106 -0.6337
   6723SM    O3 8662   3.003  -0.020  16.881 -0.5913 -0.1878 -0.3433
   6723SM   HO3 8663   2.949  -0.047  16.955 -1.4202  0.3822 -0.7267
   6723SM   C4S 8664   2.938   0.051  16.662 -0.1343 -0.0756 -0.2723
   6723SM   H4S 8665   2.965   0.152  16.697 -0.5980  0.5539 -1.6691
   6723SM   C5S 8666   2.958   0.011  16.538  0.0539 -0.9195  0.2551
   6723SM   H5S 8667   2.953  -0.099  16.533  1.3622 -0.9868 -0.0122
   6723SM   C6S 8668   2.980   0.103  16.424  0.1756 -0.3207 -0.5660
   6723SM   H6S 8669   3.067   0.058  16.373  1.7874 -2.0079  3.3308
   6723SM   H6T 8670   3.005   0.206  16.458  0.4691  0.4421 -2.9132
   6723SM   C7S 8671   2.862   0.116  16.331  0.0986  0.1685 -0.2575
   6723SM   H7S 8672   2.780   0.175  16.378  0.4401 -0.0814  0.6710
   6723SM   H7T 8673   2.811   0.019  16.310  0.4001 -0.3613  1.3431
   6723SM   C8S 8674   2.908   0.172  16.188 -0.5017 -0.2227 -0.2163
   6723SM   H8S 8675   2.966   0.267  16.192  0.0404 -0.4385 -2.1689
   6723SM   H8T 8676   2.822   0.182  16.118 -0.6259 -0.9810 -0.1768
   6723SM   C9S 8677   2.993   0.072  16.106  0.2313  0.2588 -0.3242
   6723SM   H9S 8678   2.968  -0.036  16.122  1.4786  0.3358  2.8626
   6723SM   H9T 8679   3.096   0.072  16.148 -0.7361 -0.5778  2.2771
   6723SM  C10S 8680   2.986   0.091  15.952 -0.1916 -0.0485 -1.0490
   6723SM  H10S 8681   3.011   0.197  15.932 -1.8447  0.2111 -1.9144
   6723SM  H10T 8682   2.885   0.077  15.908  0.4571 -0.3141 -2.5191
   6723SM  C11S 8683   3.080  -0.012  15.879  0.5960 -0.5867  0.1376
   6723SM  H11S 8684   3.042  -0.112  15.908  0.1227 -0.6226 -0.5754
   6723SM  H11T 8685   3.186   0.010  15.908 -0.4763  1.6931  2.9092
   6723SM  C12S 8686   3.073   0.019  15.728  0.2494 -0.0800 -0.8637
   6723SM  H12S 8687   3.041   0.123  15.706  2.0796  1.2830  2.3076
   6723SM  H12T 8688   2.991  -0.040  15.682  1.1083 -0.8379 -1.4523
   6723SM  C13S 8689   3.201  -0.010  15.664  0.2555 -0.0275  0.2775
   6723SM  H13S 8690   3.227  -0.113  15.698  1.9277  0.4301  0.4898
   6723SM  H13T 8691   3.277   0.066  15.693 -0.5124  0.6835  0.4472
   6723SM  C14S 8692   3.190   0.007  15.516 -0.2455  0.0240 -0.0892
   6723SM  H14S 8693   3.159   0.113  15.504  0.0517 -0.1807 -3.3162
   6723SM  H14T 8694   3.106  -0.058  15.484 -2.7072  2.3627  1.1594
   6723SM  C15S 8695   3.309  -0.017  15.428  0.3219 -0.1141 -0.7136
   6723SM  H15S 8696   3.333  -0.125  15.445  4.1782  0.6245 -0.5784
   6723SM  H15T 8697   3.392   0.048  15.464 -1.6532  1.1159  1.9126
   6723SM  C16S 8698   3.295  -0.002  15.275  0.0389  0.3878  0.1754
   6723SM  H16S 8699   3.194  -0.040  15.251  0.4990  0.5723 -2.2652
   6723SM  H16T 8700   3.367  -0.070  15.225 -1.4679 -1.6826  0.7110
   6723SM  C17S 8701   3.304   0.144  15.220  0.4002 -0.6280 -0.5425
   6723SM  H17S 8702   3.397   0.179  15.269 -0.8784 -0.4686  1.9990
   6723SM  H17T 8703   3.215   0.200  15.256  1.5719 -0.2582  2.0678
   6723SM  C18S 8704   3.302   0.154  15.068  0.5968 -0.1735 -0.5660
   6723SM  H18S 8705   3.378   0.098  15.009 -0.7941 -2.1266 -0.6096
   6723SM  H18T 8706   3.309   0.262  15.046 -2.4612  0.3798  0.7294
   6723SM  H18U 8707   3.206   0.140  15.013  0.7272  1.3304 -1.2049
   6723SM   C1F 8708   2.562  -0.002  16.675  0.7489  0.0638 -0.2960
   6723SM    OF 8709   2.510   0.063  16.764  0.2148  0.6168 -0.9509
   6723SM   C2F 8710   2.482  -0.035  16.560  0.1302  0.0731 -0.2625
   6723SM   H2F 8711   2.377  -0.001  16.571 -0.0832 -1.1051  1.9922
   6723SM   H2G 8712   2.489  -0.144  16.538  0.3415  0.3294 -1.5064
   6723SM   C3F 8713   2.539   0.025  16.438  0.0824 -0.1643 -0.6686
   6723SM   H3F 8714   2.649   0.009  16.436  0.0678 -0.7197  0.8431
   6723SM   H3G 8715   2.514   0.132  16.453 -0.0996 -0.1075 -1.3767
   6723SM   C4F 8716   2.474  -0.020  16.305 -0.6866  0.7321  0.4825
   6723SM   H4F 8717   2.364  -0.010  16.307 -0.9077 -1.0344 -0.6527
   6723SM   H4G 8718   2.486  -0.129  16.294  0.4455  0.9493 -0.6776
   6723SM   C5F 8719   2.523   0.051  16.178  0.4340  0.1189 -0.5053
   6723SM   H5F 8720   2.626   0.017  16.153  1.1013  1.6633  0.0480
   6723SM   H5G 8721   2.529   0.160  16.198  1.0328 -0.0024  0.0113
   6723SM   C6F 8722   2.429   0.019  16.063 -0.0836  0.3564  0.1495
   6723SM   H6F 8723   2.321   0.040  16.079 -0.2088  0.0064 -0.2241
   6723SM   H6G 8724   2.433  -0.089  16.038 -0.4944  0.6436 -1.2587
   6723SM   C7F 8725   2.459   0.090  15.933 -0.2629 -0.2547  0.5906
   6723SM   H7F 8726   2.455   0.200  15.949  0.7065  0.3595 -2.6347
   6723SM   H7G 8727   2.374   0.052  15.872 -0.1999  0.0019  0.3416
   6723SM   C8F 8728   2.589   0.049  15.883 -0.1863  0.4995 -0.2677
   6723SM   H8F 8729   2.593  -0.059  15.906 -1.4771  0.2566 -1.1116
   6723SM   H8G 8730   2.674   0.098  15.936  0.8046 -1.0995 -0.3010
   6723SM   C9F 8731   2.616   0.055  15.735 -0.4390 -0.6409 -0.3697
   6723SM   H9F 8732   2.719   0.022  15.709  0.0058  1.0482 -0.9259
   6723SM   H9G 8733   2.603   0.156  15.691  0.1022  1.2289  3.3652
   6723SM  C10F 8734   2.513  -0.035  15.657 -0.3827 -0.0994 -0.7539
   6723SM  H10F 8735   2.410  -0.000  15.680 -1.3618 -2.6242 -1.0524
   6723SM  H10G 8736   2.529  -0.136  15.700 -0.1024 -0.7082 -2.2364
   6723SM  C11F 8737   2.536  -0.033  15.502  0.4500  0.5517  0.1727
   6723SM  H11F 8738   2.634  -0.080  15.480  0.3672 -0.1096  1.1258
   6723SM  H11G 8739   2.532   0.073  15.469 -0.3999  1.1535  2.0620
   6723SM  C12F 8740   2.428  -0.119  15.429 -0.4057 -0.2576 -0.2199
   6723SM  H12F 8741   2.431  -0.226  15.457 -0.8594 -0.2116  0.0025
   6723SM  H12G 8742   2.454  -0.128  15.322 -0.9633 -1.0561 -0.2896
   6723SM  C13F 8743   2.286  -0.056  15.436  0.4001 -0.5399  0.2904
   6723SM  H13F 8744   2.296   0.054  15.423 -0.7443 -0.0270  3.0627
   6723SM  H13G 8745   2.232  -0.070  15.532 -0.0962 -0.0553  0.0864
   6723SM  C14F 8746   2.202  -0.096  15.319  0.7132  0.0287  0.1363
   6723SM  H14F 8747   2.170  -0.202  15.331 -0.0784 -0.0093 -1.8422
   6723SM  H14G 8748   2.249  -0.084  15.219  1.6599 -0.3053  0.5371
   6723SM  C15F 8749   2.071  -0.016  15.326 -0.3762  0.7069  0.2539
   6723SM  H15F 8750   2.092   0.091  15.343  1.0972 -0.0841  4.8234
   6723SM  H15G 8751   2.018  -0.044  15.420 -0.0202 -0.0235  0.2439
   6723SM  C16F 8752   1.968  -0.048  15.211 -0.0782 -0.1610 -0.2217
   6723SM  H16F 8753   1.880   0.019  15.224  0.0595  0.1817 -1.0173
   6723SM  H16G 8754   1.936  -0.154  15.220  0.4320 -0.2671  0.4222
   6723SM  C17F 8755   2.005  -0.035  15.064 -0.0296  0.5626  0.2921
   6723SM  H17F 8756   2.102  -0.088  15.048 -0.4668 -0.0981 -0.2396
   6723SM  H17G 8757   2.025   0.070  15.032  2.5685  0.2238  0.6134
   6723SM  C18F 8758   1.904  -0.100  14.960 -0.2406  0.8590  0.7645
   6723SM  H18F 8759   1.867  -0.190  15.013  0.4121  1.0070  1.4903
   6723SM  H18G 8760   1.964  -0.132  14.872 -0.3754  0.1011  0.9414
   6723SM  C19F 8761   1.806   0.003  14.913  0.2969  0.6063 -0.1505
   6723SM  H19F 8762   1.775  -0.032  14.812  0.9351  0.4966 -0.3100
   6723SM  H19G 8763   1.839   0.107  14.892 -2.9443  1.4547 -1.6809
   6723SM  C20F 8764   1.678   0.013  14.997 -0.6272  0.1102  0.2247
   6723SM  H20F 8765   1.695   0.096  15.069 -2.7127 -0.0686  0.9622
   6723SM  H20G 8766   1.665  -0.083  15.050  1.6239  0.2213  1.1073
   6723SM  C21F 8767   1.553   0.049  14.912 -0.4876 -1.3290  0.1664
   6723SM  H21F 8768   1.528  -0.034  14.842  0.1978  0.1991 -1.9881
   6723SM  H21G 8769   1.562   0.136  14.843 -4.0794  0.1668  1.3816
   6723SM  C22F 8770   1.431   0.083  15.000 -0.0620 -0.0875 -0.1590
   6723SM  H22F 8771   1.347   0.097  14.929  0.5782 -0.1844 -0.9483
   6723SM  H22G 8772   1.444   0.173  15.064 -1.7503  0.5491 -0.6451
   6723SM  C23F 8773   1.399  -0.029  15.102  0.3153 -0.2165  0.1510
   6723SM  H23F 8774   1.401  -0.129  15.053  2.2121 -0.3972  0.5226
   6723SM  H23G 8775   1.299  -0.022  15.150 -0.7697 -1.1761 -1.8531
   6723SM  H23H 8776   1.465  -0.041  15.190 -0.3566 -0.6439  0.6055
   6823SM     N 8777   2.517   2.454  18.098 -0.1044 -0.2725 -0.6994
   6823SM   C15 8778   2.483   2.324  18.175  0.1632 -0.8032 -0.0272
   6823SM  H15A 8779   2.381   2.293  18.160 -0.5116  1.5610 -0.8026
   6823SM  H15B 8780   2.505   2.342  18.279 -1.2838  0.0144  0.1699
   6823SM  H15C 8781   2.544   2.243  18.138  2.4613  0.5507  0.6015
   6823SM   C14 8782   2.423   2.560  18.149  0.6080 -0.2379  0.3084
   6823SM  H14A 8783   2.323   2.520  18.147  0.6017 -0.2129  0.1189
   6823SM  H14B 8784   2.426   2.640  18.076 -1.4023 -0.2521  0.1546
   6823SM  H14C 8785   2.440   2.588  18.252 -1.5345  2.9768 -0.0898
   6823SM   C13 8786   2.656   2.502  18.145  0.2558  0.0467 -0.0652
   6823SM  H13A 8787   2.729   2.423  18.133  2.2149  1.7667  0.0117
   6823SM  H13B 8788   2.644   2.535  18.247 -0.5550  1.1623 -0.5076
   6823SM  H13C 8789   2.686   2.591  18.092 -1.9462 -0.1342 -1.7384
   6823SM   C12 8790   2.502   2.432  17.948  0.1679 -0.1679 -0.0392
   6823SM  H12A 8791   2.401   2.395  17.937 -1.0199  1.6179  3.4420
   6823SM  H12B 8792   2.581   2.363  17.923  1.7595  1.8160 -0.8143
   6823SM   C11 8793   2.510   2.562  17.863 -0.0296 -0.4382  0.1541
   6823SM  H11A 8794   2.514   2.544  17.754 -1.5554 -2.1932  0.3354
   6823SM  H11B 8795   2.598   2.621  17.895 -0.0958 -0.5981  0.6356
   6823SM     P 8796   2.270   2.656  17.800  0.4957 -0.0491  0.0476
   6823SM   O13 8797   2.197   2.528  17.801  0.5695  0.8895  0.0504
   6823SM   O14 8798   2.198   2.785  17.831 -0.1522 -0.7322  0.2770
   6823SM   O11 8799   2.335   2.667  17.651  0.0495  0.4902 -0.2491
   6823SM   O12 8800   2.395   2.642  17.894 -0.6657  0.5856 -0.3914
   6823SM   C1S 8801   2.364   2.799  17.599 -0.0573  0.3140  0.1610
   6823SM   H1S 8802   2.450   2.830  17.661  0.4294 -0.4345 -0.1278
   6823SM   H1T 8803   2.287   2.878  17.617  0.8013  0.8818  1.4899
   6823SM    NF 8804   2.417   2.935  17.401  0.1256  0.2811  0.3516
   6823SM   HNF 8805   2.351   2.995  17.357  0.8910  0.1044 -1.1012
   6823SM   C2S 8806   2.381   2.802  17.443 -0.5872 -0.7870  0.2462
   6823SM   H2S 8807   2.467   2.734  17.426 -1.0328 -1.2429 -0.2507
   6823SM   C3S 8808   2.251   2.743  17.373  0.0240  0.2918 -0.2208
   6823SM   H3S 8809   2.166   2.798  17.419 -1.6664 -2.3686  0.0621
   6823SM    O3 8810   2.212   2.614  17.421 -0.1665  0.8945 -0.1979
   6823SM   HO3 8811   2.274   2.589  17.491 -0.4482  0.9634  0.0763
   6823SM   C4S 8812   2.239   2.755  17.220  0.3873 -0.7565 -0.2589
   6823SM   H4S 8813   2.183   2.847  17.202 -1.9761 -1.6214  1.9359
   6823SM   C5S 8814   2.279   2.677  17.120  0.2147 -0.5364 -0.0190
   6823SM   H5S 8815   2.340   2.589  17.148 -0.2367 -0.9105 -0.2026
   6823SM   C6S 8816   2.253   2.704  16.980 -0.9312 -0.0381  0.4399
   6823SM   H6S 8817   2.222   2.605  16.939 -0.6588 -0.3082  0.8812
   6823SM   H6T 8818   2.354   2.717  16.936 -0.5549  0.8909  1.5458
   6823SM   C7S 8819   2.153   2.805  16.932  0.4865 -0.3693 -0.3253
   6823SM   H7S 8820   2.185   2.907  16.964  0.6041 -1.3840  3.1451
   6823SM   H7T 8821   2.049   2.796  16.970  0.1101  0.8648 -0.9810
   6823SM   C8S 8822   2.148   2.805  16.774 -0.3649  0.1857  0.0688
   6823SM   H8S 8823   2.248   2.818  16.727 -0.3339 -0.8164 -0.1649
   6823SM   H8T 8824   2.089   2.896  16.746  0.7865  0.1486 -2.8369
   6823SM   C9S 8825   2.071   2.685  16.722 -0.3004 -0.0300 -0.3174
   6823SM   H9S 8826   1.968   2.686  16.764 -0.8414  0.4375 -1.6239
   6823SM   H9T 8827   2.121   2.589  16.748  0.4642  0.1950 -0.9366
   6823SM  C10S 8828   2.060   2.674  16.572  0.3656 -0.7400  0.3504
   6823SM  H10S 8829   2.156   2.705  16.526  0.5753 -2.0002 -0.1063
   6823SM  H10T 8830   1.985   2.748  16.539  0.5482 -0.7871 -0.1741
   6823SM  C11S 8831   2.026   2.532  16.531  0.5476 -0.5503  0.7612
   6823SM  H11S 8832   1.982   2.477  16.617 -2.5482  1.3970  0.5971
   6823SM  H11T 8833   2.113   2.473  16.495 -0.1419  0.1430 -2.3249
   6823SM  C12S 8834   1.915   2.521  16.419  0.2335  0.1481 -0.6385
   6823SM  H12S 8835   1.831   2.593  16.431  1.0753  0.7703  2.4640
   6823SM  H12T 8836   1.873   2.420  16.440  1.0110 -0.0640 -0.0528
   6823SM  C13S 8837   1.975   2.514  16.277 -0.1062 -0.2523  0.4392
   6823SM  H13S 8838   1.900   2.459  16.217  0.4289  0.6353 -1.0836
   6823SM  H13T 8839   2.063   2.445  16.276 -0.3706 -0.5981 -1.2206
   6823SM  C14S 8840   2.019   2.648  16.229 -0.0862  0.5433 -0.5051
   6823SM  H14S 8841   2.100   2.691  16.293 -0.0689 -0.9812  0.5457
   6823SM  H14T 8842   1.925   2.707  16.226  0.7382  1.9569 -4.0219
   6823SM  C15S 8843   2.070   2.644  16.083  0.2593 -0.1630  0.1697
   6823SM  H15S 8844   2.143   2.561  16.086  0.6626  0.0412 -2.1388
   6823SM  H15T 8845   2.122   2.741  16.067 -0.2304  0.1883  0.6625
   6823SM  C16S 8846   1.958   2.616  15.983 -0.2399  0.1339  1.0085
   6823SM  H16S 8847   1.886   2.700  15.970 -1.0450 -0.6153  0.5639
   6823SM  H16T 8848   1.909   2.525  16.022 -0.5119 -0.6203 -1.0095
   6823SM  C17S 8849   2.000   2.575  15.838  0.1176  0.1668  0.5472
   6823SM  H17S 8850   2.079   2.500  15.862  1.9835  1.3518 -1.5425
   6823SM  H17T 8851   2.041   2.658  15.777 -2.1039 -0.6546 -2.2672
   6823SM  C18S 8852   1.889   2.516  15.755  0.1891 -0.0159 -0.0014
   6823SM  H18S 8853   1.936   2.491  15.658 -1.9309  0.6298 -1.2435
   6823SM  H18T 8854   1.811   2.591  15.730  2.6763  1.9363 -2.5467
   6823SM  H18U 8855   1.832   2.433  15.802 -0.8522  0.1880 -0.8743
   6823SM   C1F 8856   2.541   2.981  17.426  0.2483 -0.2945 -0.3880
   6823SM    OF 8857   2.618   2.910  17.485  0.5680  0.6704  0.0163
   6823SM   C2F 8858   2.568   3.123  17.390  0.0154  0.5659  0.5009
   6823SM   H2F 8859   2.644   3.173  17.455 -0.5192  0.8042  0.9587
   6823SM   H2G 8860   2.472   3.175  17.407 -0.6429 -1.1034  2.1743
   6823SM   C3F 8861   2.616   3.126  17.239  0.4970 -0.3202  0.2986
   6823SM   H3F 8862   2.723   3.095  17.239  0.0817 -3.2530 -5.7889
   6823SM   H3G 8863   2.620   3.230  17.201 -0.4150 -0.7271 -1.0122
   6823SM   C4F 8864   2.528   3.052  17.138  0.3924  0.2531 -0.3322
   6823SM   H4F 8865   2.422   3.086  17.140  0.4506  0.4228 -0.1705
   6823SM   H4G 8866   2.527   2.942  17.152 -0.0010  0.2522 -0.3455
   6823SM   C5F 8867   2.575   3.088  16.997  0.4148 -0.5118 -0.1270
   6823SM   H5F 8868   2.675   3.057  16.960 -0.6403 -2.3743 -1.6005
   6823SM   H5G 8869   2.579   3.199  17.002  1.1491 -0.5683  0.9181
   6823SM   C6F 8870   2.485   3.046  16.878 -0.5779 -0.3537 -0.6042
   6823SM   H6F 8871   2.383   3.078  16.909 -0.8412  2.0907 -3.5191
   6823SM   H6G 8872   2.495   2.937  16.859  0.8976 -0.1566 -1.0803
   6823SM   C7F 8873   2.533   3.118  16.751  0.6803 -0.7936 -0.1853
   6823SM   H7F 8874   2.639   3.090  16.734  1.1793  1.6566 -1.4614
   6823SM   H7G 8875   2.532   3.228  16.766  1.3808 -0.8339  0.1927
   6823SM   C8F 8876   2.436   3.088  16.633 -0.2953  0.0055  0.0680
   6823SM   H8F 8877   2.349   3.156  16.642 -0.4605 -0.2887  0.8251
   6823SM   H8G 8878   2.406   2.982  16.645  0.3790 -0.0706  1.4104
   6823SM   C9F 8879   2.503   3.097  16.494  0.4681  0.5974  0.1102
   6823SM   H9F 8880   2.603   3.050  16.501  0.0505 -0.1709  1.4153
   6823SM   H9G 8881   2.510   3.206  16.473  1.0128  0.9047  1.6776
   6823SM  C10F 8882   2.414   3.023  16.395  0.3393  0.3670 -0.3835
   6823SM  H10F 8883   2.309   3.023  16.432  0.8159 -1.7877  1.1442
   6823SM  H10G 8884   2.449   2.918  16.397  2.3469  0.9124 -2.2996
   6823SM  C11F 8885   2.418   3.070  16.248  0.0271 -0.5272 -0.0029
   6823SM  H11F 8886   2.525   3.051  16.224 -0.4010 -1.8106 -0.9857
   6823SM  H11G 8887   2.397   3.179  16.248 -2.5273 -0.9586 -1.3142
   6823SM  C12F 8888   2.328   3.011  16.149 -0.0660  0.7768  0.8083
   6823SM  H12F 8889   2.226   3.054  16.159 -2.0586 -2.5715 -2.3860
   6823SM  H12G 8890   2.324   2.901  16.161  0.4167  0.8771  1.9989
   6823SM  C13F 8891   2.376   3.044  16.000 -0.1222 -0.0841 -0.3705
   6823SM  H13F 8892   2.466   2.982  15.978 -0.8530 -0.3065 -3.1972
   6823SM  H13G 8893   2.406   3.151  16.005 -0.6847  0.0203  3.3682
   6823SM  C14F 8894   2.275   3.036  15.886 -0.4216 -0.7441 -0.6062
   6823SM  H14F 8895   2.187   3.098  15.913  0.7732  0.2870  1.0709
   6823SM  H14G 8896   2.252   2.928  15.868  0.1971 -1.2587  1.4324
   6823SM  C15F 8897   2.326   3.089  15.756  0.5242 -0.1744  0.1232
   6823SM  H15F 8898   2.407   3.022  15.720 -0.7181 -1.3214 -0.6471
   6823SM  H15G 8899   2.354   3.194  15.777  1.2210 -0.5070  0.8981
   6823SM  C16F 8900   2.217   3.094  15.645  0.0077 -0.2111 -0.1772
   6823SM  H16F 8901   2.138   3.159  15.688  2.3145  1.1547  2.3054
   6823SM  H16G 8902   2.172   2.993  15.629 -0.5020 -0.0738  0.3254
   6823SM  C17F 8903   2.279   3.158  15.522 -0.0701  0.1430 -0.3481
   6823SM  H17F 8904   2.365   3.091  15.499 -1.1486 -0.6051 -2.4517
   6823SM  H17G 8905   2.316   3.261  15.540  0.4142  0.0051 -0.5242
   6823SM  C18F 8906   2.169   3.167  15.409  0.3231  0.7015  0.4490
   6823SM  H18F 8907   2.094   3.244  15.436  0.0834  1.4722 -2.1160
   6823SM  H18G 8908   2.119   3.070  15.388  1.6342  0.3677 -1.4398
   6823SM  C19F 8909   2.236   3.205  15.280  0.2300  1.0513  0.5258
   6823SM  H19F 8910   2.294   3.297  15.304  1.7853  0.8043 -1.9477
   6823SM  H19G 8911   2.161   3.228  15.201 -1.5844  0.2004  1.9414
   6823SM  C20F 8912   2.325   3.096  15.213  0.0214  0.0194  0.1140
   6823SM  H20F 8913   2.256   3.012  15.193 -2.0674  1.5002  0.7320
   6823SM  H20G 8914   2.409   3.062  15.277  2.0723  0.4578 -2.1837
   6823SM  C21F 8915   2.384   3.127  15.074 -0.0620 -0.8074  0.4988
   6823SM  H21F 8916   2.433   3.226  15.076 -1.6467  0.0087  0.6578
   6823SM  H21G 8917   2.312   3.124  14.989  0.7170 -0.7952 -0.1637
   6823SM  C22F 8918   2.500   3.025  15.036  0.0617  0.2511  0.2681
   6823SM  H22F 8919   2.457   2.922  15.043 -2.2190  1.0045 -1.2463
   6823SM  H22G 8920   2.582   3.036  15.110 -0.8417  0.6870  1.2362
   6823SM  C23F 8921   2.559   3.042  14.890  0.3922  0.9075 -0.1912
   6823SM  H23F 8922   2.596   3.147  14.887  1.1901  0.7399  1.9755
   6823SM  H23G 8923   2.492   3.027  14.802 -1.7419  2.9184  0.9712
   6823SM  H23H 8924   2.645   2.974  14.875 -1.1153 -0.8129 -1.7103
   6923SM     N 8925   5.098   1.767  17.490  0.1351 -0.2221  0.3432
   6923SM   C15 8926   5.194   1.648  17.486 -0.2176  0.3891  0.4577
   6923SM  H15A 8927   5.261   1.647  17.571 -0.6642 -1.7366  0.8440
   6923SM  H15B 8928   5.248   1.635  17.393 -0.0884 -1.8145  0.7803
   6923SM  H15C 8929   5.146   1.552  17.494  3.4245 -1.8458 -1.6300
   6923SM   C14 8930   5.018   1.759  17.622 -0.1591  0.0730  0.3853
   6923SM  H14A 8931   5.084   1.776  17.705  0.9251  0.9915 -0.6392
   6923SM  H14B 8932   4.972   1.661  17.629 -1.0702  0.5803  2.0172
   6923SM  H14C 8933   4.945   1.838  17.612  0.8129  0.8379 -1.0006
   6923SM   C13 8934   5.176   1.895  17.499  0.6952  0.3198  0.0848
   6923SM  H13A 8935   5.120   1.987  17.504  2.4363  1.3703  1.7263
   6923SM  H13B 8936   5.254   1.912  17.427  1.3309  1.7206  1.0585
   6923SM  H13C 8937   5.224   1.895  17.596 -2.6576  0.8172  1.8912
   6923SM   C12 8938   5.013   1.762  17.366  0.1487  0.4298 -0.2092
   6923SM  H12A 8939   4.950   1.675  17.373 -0.2754  0.5968 -1.6891
   6923SM  H12B 8940   5.074   1.742  17.279  0.0567  1.1179 -0.4429
   6923SM   C11 8941   4.920   1.881  17.344 -0.0779 -1.0759  0.0855
   6923SM  H11A 8942   4.894   1.881  17.236  0.4823 -1.0709 -0.0494
   6923SM  H11B 8943   4.976   1.976  17.352 -0.2014 -0.8127 -1.7633
   6923SM     P 8944   4.738   2.005  17.486 -0.2874  0.6480 -0.1843
   6923SM   O13 8945   4.603   1.976  17.524  0.6063 -0.1202  0.0772
   6923SM   O14 8946   4.828   2.064  17.585 -0.4165  0.1322  0.2243
   6923SM   O11 8947   4.736   2.098  17.358 -0.6130 -0.4694 -0.5111
   6923SM   O12 8948   4.807   1.874  17.429 -0.5740  0.5100 -0.0511
   6923SM   C1S 8949   4.644   2.073  17.254 -0.2178 -0.4042 -0.1012
   6923SM   H1S 8950   4.535   2.081  17.276 -0.2218  2.4716 -0.7507
   6923SM   H1T 8951   4.657   1.971  17.212  0.7094 -0.6616  0.7627
   6923SM    NF 8952   4.573   2.137  17.014  0.1546 -0.4338 -0.8756
   6923SM   HNF 8953   4.606   2.096  16.930  1.1455 -0.5268 -0.4566
   6923SM   C2S 8954   4.668   2.158  17.125  0.3653  0.0842 -0.0946
   6923SM   H2S 8955   4.650   2.259  17.168 -1.0268 -0.4996  0.7825
   6923SM   C3S 8956   4.816   2.147  17.084 -1.2899 -0.4827 -0.2403
   6923SM   H3S 8957   4.825   2.042  17.050  0.6451  0.2647 -2.2591
   6923SM    O3 8958   4.907   2.168  17.192  0.0593  0.5745  0.4706
   6923SM   HO3 8959   4.853   2.153  17.270  0.3661  0.3319  0.6374
   6923SM   C4S 8960   4.849   2.246  16.973  0.3884  0.2200 -0.6492
   6923SM   H4S 8961   4.821   2.351  16.991  0.4985  0.0301  0.7776
   6923SM   C5S 8962   4.936   2.219  16.874  0.7139  0.2122 -1.0198
   6923SM   H5S 8963   4.984   2.120  16.875 -3.7689 -2.2682 -1.7913
   6923SM   C6S 8964   4.977   2.320  16.772 -0.2302  0.1208  0.4140
   6923SM   H6S 8965   5.068   2.374  16.806  0.6969  0.7281 -2.7151
   6923SM   H6T 8966   4.892   2.387  16.746  1.3930  1.7129 -1.0831
   6923SM   C7S 8967   5.022   2.240  16.647  1.4794 -0.2835  0.2113
   6923SM   H7S 8968   4.944   2.176  16.600  1.8952  0.0647 -1.0066
   6923SM   H7T 8969   5.099   2.166  16.678  0.7854 -0.0525  2.6795
   6923SM   C8S 8970   5.077   2.327  16.529 -0.0679  0.4710  0.4533
   6923SM   H8S 8971   5.183   2.339  16.559  0.2907 -0.3257 -0.4542
   6923SM   H8T 8972   5.025   2.424  16.513 -1.5915 -0.4433 -0.4046
   6923SM   C9S 8973   5.070   2.253  16.392 -0.8443 -0.1862 -0.8122
   6923SM   H9S 8974   4.963   2.234  16.370 -0.4468 -1.7621 -1.5460
   6923SM   H9T 8975   5.115   2.151  16.397 -1.3320 -0.3651  0.6570
   6923SM  C10S 8976   5.141   2.342  16.289  0.2479 -0.6086 -0.0608
   6923SM  H10S 8977   5.250   2.350  16.309  0.3570  1.1908 -1.1413
   6923SM  H10T 8978   5.096   2.443  16.301 -1.2550 -1.4337  1.6184
   6923SM  C11S 8979   5.112   2.288  16.144 -0.1110  0.0912 -0.1595
   6923SM  H11S 8980   5.001   2.285  16.136 -0.1330  2.4294 -1.6085
   6923SM  H11T 8981   5.147   2.183  16.135 -1.0769 -0.0974 -2.2003
   6923SM  C12S 8982   5.159   2.378  16.035 -0.6287 -0.4891 -0.6771
   6923SM  H12S 8983   5.269   2.366  16.021 -0.5820  2.1348 -3.7780
   6923SM  H12T 8984   5.141   2.484  16.061 -0.3381 -0.9702  1.7704
   6923SM  C13S 8985   5.091   2.354  15.904  0.2538  0.1680 -0.2520
   6923SM  H13S 8986   4.988   2.393  15.895  0.4370  0.4613 -1.1158
   6923SM  H13T 8987   5.098   2.248  15.873  1.5050  0.0456  0.3921
   6923SM  C14S 8988   5.173   2.431  15.800  0.4909 -0.1509 -0.0908
   6923SM  H14S 8989   5.278   2.397  15.813  0.2988 -0.3828  0.9867
   6923SM  H14T 8990   5.147   2.539  15.799  2.6014  0.4103 -0.0921
   6923SM  C15S 8991   5.142   2.383  15.659 -0.2771  0.5954 -0.1127
   6923SM  H15S 8992   5.157   2.274  15.647  0.2251  0.7109 -0.5507
   6923SM  H15T 8993   5.205   2.432  15.582 -0.3758 -0.8254 -1.1244
   6923SM  C16S 8994   4.997   2.420  15.612  0.0806 -0.1591 -0.3442
   6923SM  H16S 8995   4.976   2.523  15.647  3.6695  0.6069 -0.0386
   6923SM  H16T 8996   4.926   2.350  15.661  2.6031 -2.6618  0.0161
   6923SM  C17S 8997   4.981   2.436  15.462 -0.0329  0.0033 -0.0628
   6923SM  H17S 8998   4.988   2.330  15.429  1.5286 -0.3227  1.1767
   6923SM  H17T 8999   5.057   2.497  15.408 -2.7789  0.6529 -3.6215
   6923SM  C18S 9000   4.844   2.489  15.416  0.1905  0.3508 -0.6156
   6923SM  H18S 9001   4.829   2.488  15.306 -0.1222 -0.3383 -0.5798
   6923SM  H18T 9002   4.820   2.592  15.450 -1.8423  0.5872 -2.5801
   6923SM  H18U 9003   4.766   2.420  15.457  0.9557  0.2127  0.6789
   6923SM   C1F 9004   4.443   2.165  17.020 -0.0054  0.0664  0.7317
   6923SM    OF 9005   4.377   2.192  17.124 -0.4231  0.0947  0.0479
   6923SM   C2F 9006   4.372   2.157  16.889 -0.4071  0.2641  0.5682
   6923SM   H2F 9007   4.369   2.054  16.849 -2.9067  0.2844  0.5937
   6923SM   H2G 9008   4.422   2.220  16.812 -0.1215 -0.0019  0.5333
   6923SM   C3F 9009   4.223   2.201  16.892  0.0517 -0.4055  0.1724
   6923SM   H3F 9010   4.217   2.303  16.938  0.4264 -1.4590  2.7481
   6923SM   H3G 9011   4.170   2.131  16.960 -0.4503 -0.0611  0.1428
   6923SM   C4F 9012   4.155   2.201  16.752  0.0348 -0.7923  0.8807
   6923SM   H4F 9013   4.197   2.121  16.688  1.0886  1.3978 -1.3260
   6923SM   H4G 9014   4.184   2.290  16.692 -0.7815  0.4151  2.1935
   6923SM   C5F 9015   3.999   2.187  16.745 -0.5558 -0.3990  0.6903
   6923SM   H5F 9016   3.944   2.242  16.824  0.9229  1.7303  0.3126
   6923SM   H5G 9017   3.972   2.081  16.765  2.6619 -0.8961  3.3288
   6923SM   C6F 9018   3.936   2.236  16.609 -0.2335 -0.1572  0.5830
   6923SM   H6F 9019   3.950   2.345  16.592  1.0068 -0.1126  1.8197
   6923SM   H6G 9020   3.825   2.225  16.613 -0.4020  0.3239 -1.4860
   6923SM   C7F 9021   3.993   2.175  16.476 -1.2086  0.0083  0.7130
   6923SM   H7F 9022   3.979   2.066  16.459 -0.5055  0.0371 -0.1322
   6923SM   H7G 9023   4.103   2.196  16.473 -1.1531 -0.2256  1.0017
   6923SM   C8F 9024   3.933   2.240  16.352 -0.1844  0.5799  1.0788
   6923SM   H8F 9025   3.957   2.348  16.360 -2.9567  1.4406 -0.7147
   6923SM   H8G 9026   3.822   2.238  16.350 -0.2023 -1.5175  1.0654
   6923SM   C9F 9027   3.999   2.183  16.217 -0.4729  0.0995 -0.3186
   6923SM   H9F 9028   3.955   2.081  16.208  0.9035 -0.6734  1.2644
   6923SM   H9G 9029   4.109   2.180  16.227 -0.5863 -0.5702  0.9802
   6923SM  C10F 9030   3.955   2.260  16.095  0.1194  0.1284 -0.7181
   6923SM  H10F 9031   4.018   2.352  16.092  1.0440 -0.5109 -2.1770
   6923SM  H10G 9032   3.847   2.280  16.111  0.1935  0.4333 -0.6007
   6923SM  C11F 9033   3.962   2.180  15.965  0.4523 -0.0836  0.0285
   6923SM  H11F 9034   3.877   2.107  15.969 -1.3672  1.8638 -1.0614
   6923SM  H11G 9035   4.060   2.129  15.977  1.3563  1.1662 -1.6411
   6923SM  C12F 9036   3.961   2.258  15.834 -1.3597  0.0680  0.3577
   6923SM  H12F 9037   4.032   2.342  15.823 -0.9532 -0.5339 -2.3019
   6923SM  H12G 9038   3.860   2.302  15.821 -2.4768 -2.7969 -1.7565
   6923SM  C13F 9039   3.954   2.158  15.716 -0.3250 -0.1877  0.0437
   6923SM  H13F 9040   3.886   2.072  15.737 -0.0664 -0.7399 -1.2953
   6923SM  H13G 9041   4.052   2.106  15.707  1.4918  1.6009  5.4774
   6923SM  C14F 9042   3.895   2.210  15.586  0.2711  0.1527 -0.3906
   6923SM  H14F 9043   3.937   2.311  15.564 -3.5244  2.1246  0.5255
   6923SM  H14G 9044   3.786   2.222  15.602  0.2804  1.0149 -0.9279
   6923SM  C15F 9045   3.926   2.124  15.465 -0.4700  0.3792  0.0198
   6923SM  H15F 9046   3.892   2.023  15.497 -0.2391  0.8675  1.8901
   6923SM  H15G 9047   4.033   2.105  15.443 -0.6216  0.6032 -0.9881
   6923SM  C16F 9048   3.863   2.154  15.328 -0.3806 -0.4551  0.2130
   6923SM  H16F 9049   3.752   2.157  15.337 -0.4130 -2.5293  0.9606
   6923SM  H16G 9050   3.893   2.075  15.256 -0.9927 -1.6117  1.2003
   6923SM  C17F 9051   3.923   2.292  15.272  0.2296  0.0225 -0.2093
   6923SM  H17F 9052   4.029   2.300  15.304  0.7421 -2.0139 -1.3004
   6923SM  H17G 9053   3.869   2.373  15.327 -0.8098 -2.4212  2.6084
   6923SM  C18F 9054   3.905   2.313  15.116 -0.0817  0.6875 -0.1267
   6923SM  H18F 9055   3.933   2.418  15.094  0.5849  0.3147 -1.1078
   6923SM  H18G 9056   3.798   2.302  15.088  0.0402 -0.9867 -0.0443
   6923SM  C19F 9057   3.991   2.214  15.032 -0.0059 -0.0859  0.3348
   6923SM  H19F 9058   4.060   2.154  15.094 -1.6467 -0.5802  1.7597
   6923SM  H19G 9059   4.042   2.284  14.962 -0.5525  1.0011  1.0003
   6923SM  C20F 9060   3.905   2.117  14.940 -0.2259  0.0511  0.3116
   6923SM  H20F 9061   3.811   2.171  14.914 -0.6525 -1.0034 -0.4361
   6923SM  H20G 9062   3.879   2.028  15.000  0.1603  0.4625  1.1054
   6923SM  C21F 9063   3.980   2.079  14.810  0.8876  0.1994 -0.2514
   6923SM  H21F 9064   3.995   2.168  14.746 -1.6563  0.0436 -1.1515
   6923SM  H21G 9065   3.925   2.012  14.741  1.5547  1.0035 -1.5917
   6923SM  C22F 9066   4.114   2.018  14.845 -0.3073  0.3991  0.1201
   6923SM  H22F 9067   4.089   1.939  14.918 -0.1592 -0.9999 -1.2843
   6923SM  H22G 9068   4.172   2.089  14.908 -0.7576  0.0404  0.9422
   6923SM  C23F 9069   4.196   1.967  14.728 -0.1203  0.4749  0.2420
   6923SM  H23F 9070   4.130   1.892  14.678  0.3787 -0.9230  1.5844
   6923SM  H23G 9071   4.290   1.918  14.762  0.9176  1.2472 -1.4349
   6923SM  H23H 9072   4.218   2.046  14.654  0.7531 -2.3566 -2.7550
   7023SM     N 9073   3.154   2.556  17.522 -0.4544  0.2862  0.0782
   7023SM   C15 9074   3.271   2.628  17.451  0.2524 -0.4341  0.2602
   7023SM  H15A 9075   3.358   2.568  17.426 -0.2460 -0.6902 -0.9442
   7023SM  H15B 9076   3.300   2.709  17.517 -0.2393 -0.8805  1.0265
   7023SM  H15C 9077   3.248   2.677  17.357 -0.2607 -1.0831  0.0468
   7023SM   C14 9078   3.218   2.520  17.653  0.2462  0.1802 -0.6176
   7023SM  H14A 9079   3.245   2.606  17.713  1.8927 -1.1282  0.5927
   7023SM  H14B 9080   3.299   2.450  17.641 -0.0017 -0.1980 -0.1303
   7023SM  H14C 9081   3.140   2.465  17.704  0.8491 -2.0850 -1.9937
   7023SM   C13 9082   3.033   2.638  17.545  0.5291 -1.2347  0.3877
   7023SM  H13A 9083   2.977   2.579  17.616 -0.7194  0.7361  1.1389
   7023SM  H13B 9084   2.979   2.658  17.453  2.3242 -0.6487 -0.5806
   7023SM  H13C 9085   3.052   2.732  17.596 -0.2605  0.6740 -2.5519
   7023SM   C12 9086   3.109   2.434  17.438  0.4004  0.0334  0.2963
   7023SM  H12A 9087   3.071   2.466  17.342  1.8078  0.1193 -0.2587
   7023SM  H12B 9088   3.037   2.380  17.497 -2.1998  3.0282  0.1088
   7023SM   C11 9089   3.215   2.340  17.384 -0.0021  0.0947  0.5800
   7023SM  H11A 9090   3.284   2.411  17.334 -1.7692  1.1669 -0.4151
   7023SM  H11B 9091   3.166   2.267  17.317  2.8245 -1.6808  0.2658
   7023SM     P 9092   3.423   2.232  17.502  0.4196  0.1193 -0.0517
   7023SM   O13 9093   3.492   2.345  17.571 -0.1771 -0.1512  0.7014
   7023SM   O14 9094   3.435   2.095  17.565 -0.0766 -0.0706  0.4340
   7023SM   O11 9095   3.476   2.227  17.355 -0.4946 -0.7183  0.5826
   7023SM   O12 9096   3.266   2.265  17.494 -0.2238  0.0564  0.1706
   7023SM   C1S 9097   3.407   2.151  17.247  0.0552 -0.2406 -0.4855
   7023SM   H1S 9098   3.350   2.226  17.188 -0.4228 -0.6136 -0.5010
   7023SM   H1T 9099   3.340   2.070  17.282  1.0563 -1.2467 -0.8446
   7023SM    NF 9100   3.447   2.098  17.009  0.1065  0.0389  0.3261
   7023SM   HNF 9101   3.385   2.024  16.985 -1.3391  0.7407  1.6937
   7023SM   C2S 9102   3.506   2.092  17.139  0.1599  0.0996  0.2001
   7023SM   H2S 9103   3.604   2.143  17.151 -0.0588  0.2080  1.6189
   7023SM   C3S 9104   3.529   1.939  17.181 -0.1162 -0.8116 -0.0464
   7023SM   H3S 9105   3.433   1.887  17.163 -0.9481  0.7174 -0.1739
   7023SM    O3 9106   3.575   1.925  17.314  0.2793  0.0694 -0.1875
   7023SM   HO3 9107   3.522   1.981  17.372  0.4392 -0.0628  0.0886
   7023SM   C4S 9108   3.632   1.875  17.081  0.9366 -0.4055 -0.1165
   7023SM   H4S 9109   3.729   1.925  17.094  0.5010  0.8523 -1.4537
   7023SM   C5S 9110   3.615   1.769  16.991  0.5392 -1.0145 -0.1418
   7023SM   H5S 9111   3.512   1.737  16.973  0.4015 -0.9973  0.5908
   7023SM   C6S 9112   3.717   1.740  16.890  0.1347  0.1871  0.7998
   7023SM   H6S 9113   3.699   1.642  16.842  1.0228 -0.2725  1.3765
   7023SM   H6T 9114   3.817   1.730  16.937  0.9619 -2.7418 -1.3186
   7023SM   C7S 9115   3.733   1.833  16.768 -0.0866 -0.2582  0.3412
   7023SM   H7S 9116   3.835   1.808  16.732 -0.3498 -0.8328 -0.0081
   7023SM   H7T 9117   3.729   1.941  16.794 -1.6932 -0.7405  2.4141
   7023SM   C8S 9118   3.626   1.813  16.661  0.8876 -0.1538 -0.3758
   7023SM   H8S 9119   3.532   1.826  16.719  1.3127  0.0292  0.2870
   7023SM   H8T 9120   3.642   1.709  16.626 -0.3963 -1.3051  2.1536
   7023SM   C9S 9121   3.634   1.909  16.548  0.4624 -0.1727  0.7428
   7023SM   H9S 9122   3.734   1.956  16.540  0.3309 -0.1517 -1.2537
   7023SM   H9T 9123   3.560   1.992  16.546 -0.0675 -0.6347 -1.9000
   7023SM  C10S 9124   3.603   1.827  16.423 -0.1942  0.0107  0.0947
   7023SM  H10S 9125   3.495   1.799  16.428 -0.3763  0.4046 -1.3652
   7023SM  H10T 9126   3.659   1.731  16.416 -1.3829 -0.7843  1.0097
   7023SM  C11S 9127   3.623   1.909  16.293  0.3095  0.5089 -0.4775
   7023SM  H11S 9128   3.731   1.936  16.297  1.0138 -2.0983  2.0489
   7023SM  H11T 9129   3.567   2.005  16.296 -2.8008 -1.1533 -1.2133
   7023SM  C12S 9130   3.587   1.837  16.169 -0.2708  0.2204  0.2792
   7023SM  H12S 9131   3.478   1.814  16.168 -0.6810  1.9330  1.6090
   7023SM  H12T 9132   3.625   1.733  16.181 -2.8473 -0.8437 -0.1504
   7023SM  C13S 9133   3.610   1.909  16.039 -0.2118 -0.2111 -0.8384
   7023SM  H13S 9134   3.717   1.939  16.029  0.1930 -1.8184 -1.6357
   7023SM  H13T 9135   3.554   2.005  16.048 -0.3394 -0.4430  1.5566
   7023SM  C14S 9136   3.566   1.834  15.912  0.2529  0.1951  0.0509
   7023SM  H14S 9137   3.455   1.826  15.923 -0.0995  0.9050 -2.3372
   7023SM  H14T 9138   3.616   1.735  15.902 -2.5981 -1.3613 -0.1158
   7023SM  C15S 9139   3.584   1.908  15.775 -0.5623  0.8615 -0.3724
   7023SM  H15S 9140   3.685   1.955  15.773  0.2801 -0.8702 -0.1305
   7023SM  H15T 9141   3.507   1.988  15.777 -3.0032 -1.3593 -0.9189
   7023SM  C16S 9142   3.558   1.820  15.661  0.8824 -0.1767  0.4782
   7023SM  H16S 9143   3.458   1.771  15.661  0.4917  0.5316 -1.6407
   7023SM  H16T 9144   3.640   1.745  15.654  1.2552  0.2934 -0.2948
   7023SM  C17S 9145   3.564   1.906  15.533  0.2595  0.2056  0.1237
   7023SM  H17S 9146   3.669   1.935  15.509  0.1519 -0.9088 -1.9073
   7023SM  H17T 9147   3.495   1.991  15.547 -0.8096 -0.6888  0.3798
   7023SM  C18S 9148   3.507   1.823  15.414  0.8761  0.2055 -0.6343
   7023SM  H18S 9149   3.399   1.800  15.427  0.9794 -0.1147 -0.3577
   7023SM  H18T 9150   3.565   1.729  15.410  1.0915  0.3539 -1.0584
   7023SM  H18U 9151   3.520   1.869  15.314 -0.5223 -0.6527 -1.2331
   7023SM   C1F 9152   3.458   2.207  16.936 -0.6254  0.0513  0.6855
   7023SM    OF 9153   3.526   2.302  16.977  0.0595  0.1673 -0.1354
   7023SM   C2F 9154   3.381   2.210  16.807  0.0316 -0.6794 -0.0875
   7023SM   H2F 9155   3.282   2.254  16.833  0.5218  1.6343 -1.7663
   7023SM   H2G 9156   3.357   2.106  16.777  0.1286 -0.2779 -1.6127
   7023SM   C3F 9157   3.461   2.277  16.700  0.9604 -0.4423 -0.2775
   7023SM   H3F 9158   3.558   2.223  16.695 -0.0607 -2.2492 -1.5096
   7023SM   H3G 9159   3.484   2.382  16.726 -1.5561 -0.6958  4.0173
   7023SM   C4F 9160   3.387   2.294  16.569  0.5251 -0.0909 -0.2064
   7023SM   H4F 9161   3.306   2.368  16.584 -0.0570 -0.4629 -1.3353
   7023SM   H4G 9162   3.342   2.193  16.554 -0.3428  0.1393  0.8117
   7023SM   C5F 9163   3.480   2.346  16.453  0.2940  0.1967 -0.1467
   7023SM   H5F 9164   3.569   2.280  16.464  1.4230  1.9964  2.5093
   7023SM   H5G 9165   3.512   2.451  16.475  1.0378  0.1447 -0.8897
   7023SM   C6F 9166   3.416   2.335  16.318  0.8094 -0.0044  0.5382
   7023SM   H6F 9167   3.351   2.424  16.302  0.7216 -0.1215  0.2237
   7023SM   H6G 9168   3.351   2.245  16.319 -0.7911  1.1046  0.8605
   7023SM   C7F 9169   3.523   2.335  16.210 -0.5243  1.0076  0.0527
   7023SM   H7F 9170   3.602   2.262  16.238 -1.1910  1.1562  2.6184
   7023SM   H7G 9171   3.573   2.434  16.202  2.0239 -0.2706 -0.8781
   7023SM   C8F 9172   3.456   2.307  16.073 -0.2773  0.1888 -0.0369
   7023SM   H8F 9173   3.372   2.380  16.064 -0.2907  0.3075  0.9507
   7023SM   H8G 9174   3.417   2.203  16.067  0.4627 -0.3229  2.7153
   7023SM   C9F 9175   3.546   2.336  15.949 -0.1310  0.2416 -0.3898
   7023SM   H9F 9176   3.640   2.279  15.940  1.2774  2.5682 -1.0768
   7023SM   H9G 9177   3.566   2.445  15.958 -2.2161  0.6394  0.0459
   7023SM  C10F 9178   3.472   2.313  15.822 -0.1766 -0.0305 -0.0474
   7023SM  H10F 9179   3.367   2.349  15.829 -0.8288 -1.7987 -0.1273
   7023SM  H10G 9180   3.464   2.204  15.802 -2.6379  0.1579 -0.3811
   7023SM  C11F 9181   3.534   2.374  15.696 -0.3109 -0.5697 -0.5228
   7023SM  H11F 9182   3.639   2.338  15.686  0.2912  0.7628  0.5988
   7023SM  H11G 9183   3.541   2.484  15.711 -1.2188 -0.5405 -0.3052
   7023SM  C12F 9184   3.449   2.352  15.573 -0.2946 -0.8217  0.3400
   7023SM  H12F 9185   3.360   2.418  15.580 -0.4884 -1.1051  0.5856
   7023SM  H12G 9186   3.424   2.245  15.560 -2.1594 -0.1815 -1.9890
   7023SM  C13F 9187   3.521   2.370  15.438  0.4051 -0.0266 -0.0120
   7023SM  H13F 9188   3.602   2.297  15.420  0.1887 -0.2513 -0.0686
   7023SM  H13G 9189   3.567   2.472  15.439 -0.7894  0.5328  0.1671
   7023SM  C14F 9190   3.420   2.350  15.321  0.7797  0.6341 -0.3185
   7023SM  H14F 9191   3.325   2.402  15.346  1.1507 -0.0437  2.9342
   7023SM  H14G 9192   3.399   2.241  15.312 -2.4445  1.1697 -0.4176
   7023SM  C15F 9193   3.479   2.390  15.188  0.7263  0.7438  0.8941
   7023SM  H15F 9194   3.573   2.338  15.159  0.4713  0.7228  0.0930
   7023SM  H15G 9195   3.494   2.500  15.198 -1.2940  1.1194  0.2336
   7023SM  C16F 9196   3.374   2.366  15.072  0.0243  0.1398 -0.4041
   7023SM  H16F 9197   3.275   2.405  15.104  0.6425  0.0993  1.6928
   7023SM  H16G 9198   3.364   2.256  15.061 -1.1131  0.4648 -3.5686
   7023SM  C17F 9199   3.424   2.429  14.938  0.3175 -0.3527 -0.3115
   7023SM  H17F 9200   3.511   2.370  14.903  1.1076  0.5846  0.0081
   7023SM  H17G 9201   3.454   2.532  14.967 -0.2226  0.0358 -1.0768
   7023SM  C18F 9202   3.318   2.430  14.826 -0.4144 -0.4553 -0.5264
   7023SM  H18F 9203   3.231   2.491  14.858 -0.7715  0.0548 -2.3550
   7023SM  H18G 9204   3.293   2.322  14.813 -0.1797 -0.6090  0.2896
   7023SM  C19F 9205   3.372   2.480  14.690 -0.2048 -0.2001  0.5575
   7023SM  H19F 9206   3.459   2.423  14.649  0.1477 -0.2568  1.3652
   7023SM  H19G 9207   3.405   2.585  14.700  1.3221 -0.5863 -0.2338
   7023SM  C20F 9208   3.259   2.472  14.580 -0.0332 -0.5839  0.3267
   7023SM  H20F 9209   3.183   2.552  14.589  1.0204  0.7440 -1.8128
   7023SM  H20G 9210   3.196   2.380  14.576 -2.7659  1.1879 -0.1689
   7023SM  C21F 9211   3.321   2.495  14.440  0.5656  0.6723  0.3821
   7023SM  H21F 9212   3.394   2.415  14.417 -0.5285 -1.1521  2.8461
   7023SM  H21G 9213   3.382   2.588  14.445  2.1316 -0.2903 -0.0934
   7023SM  C22F 9214   3.207   2.499  14.335  0.5755  0.8662 -0.4992
   7023SM  H22F 9215   3.142   2.588  14.348 -1.4063 -0.4409 -0.9049
   7023SM  H22G 9216   3.131   2.421  14.356  0.2783  1.7679  2.0325
   7023SM  C23F 9217   3.251   2.491  14.186  0.3779 -0.3424  0.1370
   7023SM  H23F 9218   3.322   2.406  14.177  1.2836  0.2940  0.9466
   7023SM  H23G 9219   3.317   2.579  14.165  2.4563 -1.4626  1.6074
   7023SM  H23H 9220   3.167   2.474  14.115  2.5832  0.1746 -2.8460
   7123SM     N 9221   3.599   1.549  17.609 -0.1208  0.0326  0.3337
   7123SM   C15 9222   3.691   1.605  17.711  0.4312  0.0577 -0.2189
   7123SM  H15A 9223   3.764   1.673  17.670  0.9276  0.0783  0.6570
   7123SM  H15B 9224   3.737   1.524  17.767 -1.1270 -0.6687  0.0542
   7123SM  H15C 9225   3.625   1.651  17.783  0.3728  1.5217 -1.1826
   7123SM   C14 9226   3.665   1.433  17.540 -0.3505  0.9026 -0.3545
   7123SM  H14A 9227   3.591   1.382  17.480  0.1340 -1.6669  1.0847
   7123SM  H14B 9228   3.706   1.368  17.615  0.9364  1.1709 -0.8126
   7123SM  H14C 9229   3.743   1.463  17.471 -1.7791 -0.6679 -2.7976
   7123SM   C13 9230   3.476   1.493  17.674  0.5363  0.2453  0.3014
   7123SM  H13A 9231   3.421   1.568  17.728  1.3651  0.0670  1.4201
   7123SM  H13B 9232   3.505   1.419  17.747 -0.4454 -0.1036  0.3432
   7123SM  H13C 9233   3.419   1.448  17.594  0.7907 -1.0688  0.8248
   7123SM   C12 9234   3.556   1.653  17.504  0.4830 -0.2674  0.2580
   7123SM  H12A 9235   3.642   1.709  17.469  0.3017 -0.5600 -0.6702
   7123SM  H12B 9236   3.499   1.725  17.561  1.3700 -0.0950  0.9628
   7123SM   C11 9237   3.469   1.621  17.370 -0.0488 -0.1619  0.7735
   7123SM  H11A 9238   3.541   1.574  17.300  0.7161  0.5983  1.0421
   7123SM  H11B 9239   3.432   1.715  17.324 -1.0762 -0.5397  0.7999
   7123SM     P 9240   3.309   1.410  17.334  0.1194 -0.2404  0.1374
   7123SM   O13 9241   3.386   1.303  17.390  0.5669  0.3485  0.1375
   7123SM   O14 9242   3.155   1.408  17.352 -0.9664  0.1481 -0.1960
   7123SM   O11 9243   3.351   1.426  17.179  0.4737 -0.1596 -0.1188
   7123SM   O12 9244   3.354   1.540  17.410  0.1304 -0.4725  0.1147
   7123SM   C1S 9245   3.438   1.335  17.115  0.0771  0.1973  0.1894
   7123SM   H1S 9246   3.425   1.237  17.166 -0.1734  0.2198  0.1706
   7123SM   H1T 9247   3.543   1.363  17.138  0.5566 -1.8400  0.5985
   7123SM    NF 9248   3.512   1.206  16.925 -0.5852 -0.0789  0.3821
   7123SM   HNF 9249   3.591   1.226  16.868 -0.3357 -2.2717 -0.1193
   7123SM   C2S 9250   3.422   1.314  16.960 -0.0377 -0.0046 -0.1817
   7123SM   H2S 9251   3.321   1.270  16.947  0.4891 -1.9179  1.5715
   7123SM   C3S 9252   3.438   1.444  16.879  0.6868  0.3906 -0.2922
   7123SM   H3S 9253   3.546   1.470  16.889  0.7113  0.3550 -0.4535
   7123SM    O3 9254   3.367   1.554  16.933  0.1576  0.1000 -0.7214
   7123SM   HO3 9255   3.350   1.524  17.022  0.8374  3.4481  0.6982
   7123SM   C4S 9256   3.399   1.419  16.732  0.7181  0.5140 -0.3867
   7123SM   H4S 9257   3.487   1.392  16.672  0.3839 -1.5280 -0.0229
   7123SM   C5S 9258   3.281   1.438  16.669  0.4490  0.5376  0.2667
   7123SM   H5S 9259   3.198   1.489  16.721 -0.8011  1.2048 -2.1884
   7123SM   C6S 9260   3.253   1.425  16.524  0.0873  0.5733 -0.6214
   7123SM   H6S 9261   3.218   1.524  16.488  0.6041  0.8362 -0.4196
   7123SM   H6T 9262   3.161   1.365  16.512  1.0602 -0.9916 -0.4775
   7123SM   C7S 9263   3.380   1.386  16.446  0.2962  0.4113 -0.3228
   7123SM   H7S 9264   3.422   1.291  16.485  0.2061  0.6437  0.3577
   7123SM   H7T 9265   3.464   1.459  16.448  1.5870 -1.0354  1.2826
   7123SM   C8S 9266   3.354   1.341  16.296 -0.5014 -0.3237 -0.3217
   7123SM   H8S 9267   3.273   1.265  16.301  1.3069 -2.4056 -0.9234
   7123SM   H8T 9268   3.441   1.292  16.248  0.2058 -2.4999  2.8210
   7123SM   C9S 9269   3.307   1.453  16.200 -0.0485  0.3352 -0.3363
   7123SM   H9S 9270   3.372   1.541  16.218  0.7709 -0.1624 -0.8112
   7123SM   H9T 9271   3.208   1.488  16.237  0.3977 -0.3318  1.5944
   7123SM  C10S 9272   3.301   1.411  16.058  0.5167 -0.0013 -0.0810
   7123SM  H10S 9273   3.233   1.322  16.055 -1.5994  1.5438 -0.3686
   7123SM  H10T 9274   3.401   1.375  16.028 -0.3774 -2.7712 -0.0511
   7123SM  C11S 9275   3.236   1.512  15.959 -0.5042 -0.1643 -0.4126
   7123SM  H11S 9276   3.302   1.601  15.950 -0.9390  0.2056 -0.0297
   7123SM  H11T 9277   3.134   1.544  15.990 -0.3290  0.0516 -0.0604
   7123SM  C12S 9278   3.225   1.444  15.824  0.1322  0.3768  0.6227
   7123SM  H12S 9279   3.142   1.370  15.824  0.0437  0.4485 -1.0898
   7123SM  H12T 9280   3.319   1.387  15.807 -0.5223 -0.1902 -1.3908
   7123SM  C13S 9281   3.187   1.537  15.717  0.5352 -0.0180  0.9654
   7123SM  H13S 9282   3.261   1.620  15.725 -0.7192  1.3243 -0.5947
   7123SM  H13T 9283   3.089   1.586  15.740  0.3159  2.3530 -3.8334
   7123SM  C14S 9284   3.180   1.470  15.577  0.0762 -1.1682  0.2243
   7123SM  H14S 9285   3.139   1.553  15.515  1.8244 -1.0432 -0.8299
   7123SM  H14T 9286   3.103   1.390  15.580 -2.2016  0.8930  0.3101
   7123SM  C15S 9287   3.309   1.411  15.522 -0.1646  0.0026  0.4125
   7123SM  H15S 9288   3.339   1.326  15.586 -0.0315  0.1161  0.5002
   7123SM  H15T 9289   3.382   1.495  15.517  0.0458 -0.1998 -0.0026
   7123SM  C16S 9290   3.299   1.350  15.372  0.1633  0.1274 -0.4977
   7123SM  H16S 9291   3.224   1.272  15.398  0.8347  0.6819  3.6647
   7123SM  H16T 9292   3.396   1.298  15.355  0.4077  0.5392 -0.3687
   7123SM  C17S 9293   3.238   1.437  15.261  0.4428 -0.3864  0.3219
   7123SM  H17S 9294   3.137   1.473  15.292  0.2627 -1.1496  0.6386
   7123SM  H17T 9295   3.227   1.370  15.174 -3.3895  0.5160 -0.0655
   7123SM  C18S 9296   3.330   1.559  15.233  0.1664  0.1985 -0.8144
   7123SM  H18S 9297   3.434   1.521  15.249 -0.3711 -1.0742 -0.1235
   7123SM  H18T 9298   3.313   1.633  15.315 -2.3289 -0.0894 -0.9839
   7123SM  H18U 9299   3.313   1.611  15.137 -1.6499 -0.2912 -0.8013
   7123SM   C1F 9300   3.498   1.079  16.962 -1.2066 -0.0993  0.4729
   7123SM    OF 9301   3.402   1.043  17.028 -0.0086 -0.1434  0.7026
   7123SM   C2F 9302   3.602   0.984  16.915 -0.3888 -0.2770 -0.0635
   7123SM   H2F 9303   3.631   0.912  16.995  1.1105 -1.5168 -1.6367
   7123SM   H2G 9304   3.693   1.040  16.884 -0.3092 -0.8433 -0.8717
   7123SM   C3F 9305   3.565   0.906  16.787 -0.1764  0.1081  0.4982
   7123SM   H3F 9306   3.477   0.840  16.801  0.7718 -1.2238  0.4318
   7123SM   H3G 9307   3.654   0.845  16.758 -0.2645  0.5167 -0.6821
   7123SM   C4F 9308   3.534   0.992  16.662 -0.5355  0.0967  0.2947
   7123SM   H4F 9309   3.628   1.043  16.631 -0.6808  0.6333  0.7268
   7123SM   H4G 9310   3.451   1.062  16.685 -0.9617 -0.8990  1.9178
   7123SM   C5F 9311   3.504   0.917  16.531 -0.2238  0.4788 -0.8080
   7123SM   H5F 9312   3.408   0.861  16.535  1.7962 -3.3138 -0.6063
   7123SM   H5G 9313   3.577   0.834  16.519 -0.4612  0.1721 -0.1730
   7123SM   C6F 9314   3.506   1.004  16.404  0.6388  0.6348  0.2138
   7123SM   H6F 9315   3.609   1.044  16.398  0.2947  2.1450  2.8065
   7123SM   H6G 9316   3.442   1.094  16.416  0.7396  0.7014  0.2520
   7123SM   C7F 9317   3.476   0.920  16.283 -0.8352  0.4899  0.0935
   7123SM   H7F 9318   3.376   0.874  16.273  1.0500 -4.2572  0.6079
   7123SM   H7G 9319   3.546   0.834  16.289 -3.7343 -1.9926  0.6649
   7123SM   C8F 9320   3.504   1.005  16.158 -0.3973 -0.6330  0.5092
   7123SM   H8F 9321   3.610   1.039  16.158 -0.7853  0.6462 -0.4164
   7123SM   H8G 9322   3.446   1.099  16.148  0.1250 -0.4480 -1.1498
   7123SM   C9F 9323   3.479   0.913  16.038  0.0609 -0.1123  0.6159
   7123SM   H9F 9324   3.383   0.856  16.039  0.2433 -0.4339  0.3488
   7123SM   H9G 9325   3.565   0.843  16.023 -0.1647  0.0047 -1.5659
   7123SM  C10F 9326   3.488   0.997  15.905  0.5274 -0.4319 -0.0965
   7123SM  H10F 9327   3.588   1.043  15.911  0.6178 -0.6377 -0.0129
   7123SM  H10G 9328   3.418   1.083  15.911  0.5606 -0.3896 -0.3267
   7123SM  C11F 9329   3.463   0.916  15.778 -0.4072 -0.2841 -0.6005
   7123SM  H11F 9330   3.364   0.868  15.791  0.3427 -1.1999  2.4352
   7123SM  H11G 9331   3.537   0.834  15.780  0.1135  0.1920  1.8081
   7123SM  C12F 9332   3.462   1.005  15.656  0.2840  0.5000  0.1918
   7123SM  H12F 9333   3.551   1.071  15.666 -0.1326  1.4484 -1.9053
   7123SM  H12G 9334   3.370   1.066  15.645 -1.6745 -2.0090  1.3947
   7123SM  C13F 9335   3.465   0.922  15.530 -0.5264 -0.3630 -0.0650
   7123SM  H13F 9336   3.380   0.851  15.531 -3.0986  2.5209  1.2838
   7123SM  H13G 9337   3.561   0.866  15.522  0.3468  0.9876  0.5018
   7123SM  C14F 9338   3.445   1.016  15.411 -0.4261  1.2147 -0.5992
   7123SM  H14F 9339   3.536   1.076  15.391 -0.9903  1.3544 -2.9716
   7123SM  H14G 9340   3.359   1.081  15.436 -1.3398  0.0697 -0.6636
   7123SM  C15F 9341   3.417   0.945  15.279 -0.4670 -0.0578  0.0892
   7123SM  H15F 9342   3.319   0.893  15.290 -1.0594  0.3421 -2.5106
   7123SM  H15G 9343   3.494   0.868  15.258 -0.7423 -0.8727  1.8266
   7123SM  C16F 9344   3.383   1.041  15.166  0.0349 -0.5183  0.2666
   7123SM  H16F 9345   3.316   1.121  15.206  0.9425 -0.4224  1.6422
   7123SM  H16G 9346   3.324   0.989  15.088  1.4956 -1.3380 -0.3230
   7123SM  C17F 9347   3.508   1.109  15.113 -0.1803 -0.4508  0.8002
   7123SM  H17F 9348   3.570   1.031  15.063 -1.5401 -0.7600 -0.4812
   7123SM  H17G 9349   3.568   1.146  15.198  1.8330 -0.4132 -0.5629
   7123SM  C18F 9350   3.479   1.225  15.014  0.2588  0.0707 -0.5106
   7123SM  H18F 9351   3.422   1.306  15.063 -0.5930 -1.5920  1.4152
   7123SM  H18G 9352   3.423   1.197  14.921 -2.4213 -1.2548  1.3721
   7123SM  C19F 9353   3.600   1.309  14.980  0.0144 -0.1571  0.6813
   7123SM  H19F 9354   3.638   1.291  14.877  3.5568  2.2534  1.3828
   7123SM  H19G 9355   3.682   1.290  15.052 -1.0378  0.1419  1.9847
   7123SM  C20F 9356   3.565   1.464  14.971 -0.4558  0.3713 -0.3325
   7123SM  H20F 9357   3.657   1.520  14.940 -0.2862  0.3899  0.1938
   7123SM  H20G 9358   3.540   1.506  15.071  2.3921  0.3660  0.4764
   7123SM  C21F 9359   3.454   1.506  14.874 -0.3862 -0.2165  0.3383
   7123SM  H21F 9360   3.354   1.479  14.913 -1.1367 -0.9251 -1.9420
   7123SM  H21G 9361   3.465   1.454  14.776 -1.8734  0.3412 -0.1471
   7123SM  C22F 9362   3.451   1.662  14.848 -0.7136  0.9461 -0.6151
   7123SM  H22F 9363   3.547   1.681  14.795 -0.2167  0.7610  0.1948
   7123SM  H22G 9364   3.456   1.716  14.945 -1.1696  0.5947 -0.3897
   7123SM  C23F 9365   3.340   1.707  14.761  0.5242 -0.0468  1.1384
   7123SM  H23F 9366   3.244   1.714  14.817 -1.5593 -1.2950 -2.0010
   7123SM  H23G 9367   3.315   1.649  14.670  0.8555  1.9209 -0.2609
   7123SM  H23H 9368   3.362   1.808  14.722 -0.0207 -0.3881 -0.0928
   7223SM     N 9369   5.071   4.228  17.555 -0.3654 -0.1602  0.5777
   7223SM   C15 9370   5.175   4.139  17.616 -0.0285  0.7573  0.1749
   7223SM  H15A 9371   5.235   4.101  17.534 -0.9306 -1.8731  0.6247
   7223SM  H15B 9372   5.126   4.057  17.667  0.2057  1.3603  1.3895
   7223SM  H15C 9373   5.244   4.187  17.683 -0.3394 -1.2768  2.0734
   7223SM   C14 9374   4.986   4.149  17.455  0.1005  0.3461 -0.6508
   7223SM  H14A 9375   4.937   4.072  17.513  1.3785  0.1903  0.2663
   7223SM  H14B 9376   5.041   4.098  17.376  1.8070 -0.2376  0.8399
   7223SM  H14C 9377   4.905   4.213  17.424 -0.0143  1.3785  1.5945
   7223SM   C13 9378   4.983   4.277  17.663 -0.0178  0.1720  0.1440
   7223SM  H13A 9379   4.895   4.331  17.630  1.3232  2.8493  0.6616
   7223SM  H13B 9380   5.033   4.345  17.730 -0.2639  1.6222 -1.0759
   7223SM  H13C 9381   4.945   4.187  17.709 -1.1183  0.1717 -0.7201
   7223SM   C12 9382   5.144   4.350  17.481  0.2083  0.5295 -0.3234
   7223SM  H12A 9383   5.207   4.394  17.557 -0.5785  0.0656  0.6235
   7223SM  H12B 9384   5.075   4.428  17.452 -2.2083 -1.3110  0.1427
   7223SM   C11 9385   5.227   4.319  17.353  0.3266 -0.4252 -0.6564
   7223SM  H11A 9386   5.262   4.418  17.317 -0.4923  0.1299  0.0603
   7223SM  H11B 9387   5.176   4.268  17.268 -0.0362 -0.3036 -0.5106
   7223SM     P 9388   5.470   4.273  17.446  0.0808 -0.0399 -0.0937
   7223SM   O13 9389   5.458   4.393  17.533  0.1818  0.0222  0.1395
   7223SM   O14 9390   5.542   4.159  17.503 -0.9469  0.0588 -0.0709
   7223SM   O11 9391   5.542   4.319  17.307 -0.4798 -0.2452  0.0400
   7223SM   O12 9392   5.330   4.223  17.384  0.0815  0.5164 -0.0436
   7223SM   C1S 9393   5.687   4.300  17.307  1.0114 -0.2114  0.0695
   7223SM   H1S 9394   5.717   4.198  17.340 -0.3369 -0.9476 -0.8889
   7223SM   H1T 9395   5.735   4.374  17.374  1.2448  0.2474 -0.6027
   7223SM    NF 9396   5.890   4.321  17.176 -0.4208  0.5912  0.6524
   7223SM   HNF 9397   5.929   4.410  17.200  1.0418  0.9604 -2.4970
   7223SM   C2S 9398   5.746   4.307  17.165  0.1060  0.5086 -0.4568
   7223SM   H2S 9399   5.727   4.214  17.108  1.3690  0.4380 -0.7889
   7223SM   C3S 9400   5.701   4.427  17.084  0.1204 -0.6801 -0.0953
   7223SM   H3S 9401   5.728   4.518  17.142  0.0989 -1.3794  1.0292
   7223SM    O3 9402   5.556   4.446  17.072 -0.2235 -0.1062 -0.6477
   7223SM   HO3 9403   5.526   4.366  17.117  0.1736 -0.2731 -0.6665
   7223SM   C4S 9404   5.765   4.436  16.947  0.0969  0.3786  0.1267
   7223SM   H4S 9405   5.867   4.478  16.951 -0.1356  0.8361  3.1687
   7223SM   C5S 9406   5.734   4.370  16.836  0.2950 -0.0638  0.0064
   7223SM   H5S 9407   5.646   4.306  16.824  0.7715 -0.8772  0.6935
   7223SM   C6S 9408   5.805   4.370  16.704 -1.3312 -0.1078 -0.2056
   7223SM   H6S 9409   5.878   4.285  16.697  0.8112  1.6756 -0.6685
   7223SM   H6T 9410   5.867   4.460  16.684  0.6340 -1.5574 -0.9976
   7223SM   C7S 9411   5.709   4.353  16.589 -0.3481 -0.3286  0.7878
   7223SM   H7S 9412   5.634   4.435  16.601 -2.6960 -2.3606  0.6311
   7223SM   H7T 9413   5.659   4.256  16.606 -1.2532  0.3121  1.9991
   7223SM   C8S 9414   5.790   4.356  16.460  0.2060  0.0497  0.7441
   7223SM   H8S 9415   5.847   4.261  16.472 -0.6870 -0.4650  1.1075
   7223SM   H8T 9416   5.868   4.434  16.466 -1.0128  1.2990  0.8642
   7223SM   C9S 9417   5.705   4.360  16.341 -0.1927 -0.0399  0.4907
   7223SM   H9S 9418   5.653   4.458  16.335 -0.3951 -0.1192  0.9025
   7223SM   H9T 9419   5.633   4.277  16.360 -1.4327  0.0010 -3.1929
   7223SM  C10S 9420   5.793   4.356  16.219  0.3076  0.3056  1.3288
   7223SM  H10S 9421   5.881   4.288  16.222 -0.6375 -0.9483  1.6455
   7223SM  H10T 9422   5.831   4.458  16.196 -1.4050  0.7526  0.2162
   7223SM  C11S 9423   5.713   4.318  16.090  0.6065  0.7929 -0.3047
   7223SM  H11S 9424   5.633   4.394  16.076 -1.7184 -1.3182  0.8497
   7223SM  H11T 9425   5.667   4.217  16.091  0.2647  0.9494 -0.1237
   7223SM  C12S 9426   5.802   4.311  15.967 -0.3013 -0.5344 -0.3132
   7223SM  H12S 9427   5.891   4.244  15.974 -0.1994 -0.2651  1.4826
   7223SM  H12T 9428   5.846   4.412  15.955 -1.9442 -0.0282 -2.9364
   7223SM  C13S 9429   5.728   4.290  15.840  0.0786  0.1606 -0.1404
   7223SM  H13S 9430   5.659   4.376  15.831  0.3542  0.2302 -1.8529
   7223SM  H13T 9431   5.661   4.203  15.854 -0.0092  0.4525  1.4816
   7223SM  C14S 9432   5.819   4.267  15.722 -0.7840 -0.5903  0.6114
   7223SM  H14S 9433   5.883   4.177  15.732  1.2597  0.4355 -2.1127
   7223SM  H14T 9434   5.885   4.354  15.704  1.0500 -1.8306  1.1389
   7223SM  C15S 9435   5.730   4.261  15.596 -0.7120 -0.0815  0.0254
   7223SM  H15S 9436   5.694   4.359  15.559 -0.2719 -0.7401 -2.3028
   7223SM  H15T 9437   5.644   4.197  15.626 -0.6917  0.5608  1.5305
   7223SM  C16S 9438   5.816   4.203  15.475  0.0317 -0.1160 -0.7095
   7223SM  H16S 9439   5.884   4.127  15.519  0.3185  0.2035 -0.5973
   7223SM  H16T 9440   5.870   4.295  15.444 -1.5341  1.7014  1.6002
   7223SM  C17S 9441   5.724   4.158  15.363  0.0459  0.5614 -0.2495
   7223SM  H17S 9442   5.637   4.227  15.358  0.0006  0.5249  0.0252
   7223SM  H17T 9443   5.683   4.058  15.389  0.7835 -0.1388 -1.6787
   7223SM  C18S 9444   5.795   4.138  15.231  0.3544 -0.9724  0.6217
   7223SM  H18S 9445   5.835   4.229  15.182  0.9192 -2.3534 -1.6174
   7223SM  H18T 9446   5.742   4.079  15.153 -1.8111  0.0301  1.2582
   7223SM  H18U 9447   5.877   4.073  15.268  1.7308  1.5887  2.3749
   7223SM   C1F 9448   5.976   4.219  17.167 -0.5715  0.0319 -0.2483
   7223SM    OF 9449   5.943   4.103  17.173  0.3256  0.3995  0.2013
   7223SM   C2F 9450   6.122   4.259  17.171 -0.0663 -0.5428  0.4930
   7223SM   H2F 9451   6.157   4.262  17.276 -2.0489  2.3648  1.2025
   7223SM   H2G 9452   6.133   4.366  17.143 -0.6020 -0.3967  0.8166
   7223SM   C3F 9453   6.196   4.172  17.072 -0.2305  0.0344  0.1128
   7223SM   H3F 9454   6.175   4.065  17.095 -2.4215  0.7371  1.6803
   7223SM   H3G 9455   6.303   4.187  17.097  0.3601 -0.6756 -1.7980
   7223SM   C4F 9456   6.162   4.189  16.921 -0.2913 -0.1054 -0.0492
   7223SM   H4F 9457   6.057   4.156  16.908 -0.4410  1.0076 -2.1465
   7223SM   H4G 9458   6.245   4.133  16.872  2.4864  1.6908  2.2578
   7223SM   C5F 9459   6.167   4.332  16.887  0.3752 -0.1437 -0.0063
   7223SM   H5F 9460   6.226   4.396  16.956 -1.5359 -0.0841  1.6902
   7223SM   H5G 9461   6.069   4.385  16.892  0.0329 -0.4699 -2.1600
   7223SM   C6F 9462   6.202   4.362  16.741 -0.2119  0.2810 -0.0159
   7223SM   H6F 9463   6.124   4.307  16.685  0.4247 -2.2037  1.3832
   7223SM   H6G 9464   6.300   4.318  16.714  0.2753 -0.0512  2.0951
   7223SM   C7F 9465   6.197   4.506  16.699  0.6376  0.0714  0.1438
   7223SM   H7F 9466   6.294   4.550  16.732 -0.7604  2.5524  1.2452
   7223SM   H7G 9467   6.120   4.562  16.756 -0.1035  2.0301 -2.5995
   7223SM   C8F 9468   6.167   4.522  16.547  0.3013 -0.1434  0.6719
   7223SM   H8F 9469   6.172   4.631  16.525 -0.9523  0.0554  1.3017
   7223SM   H8G 9470   6.060   4.499  16.531  0.2658 -0.1668  0.9290
   7223SM   C9F 9471   6.254   4.436  16.452 -0.3634 -0.0571  0.1874
   7223SM   H9F 9472   6.265   4.333  16.492  0.9354  0.0548  0.1698
   7223SM   H9G 9473   6.352   4.487  16.462 -1.1397  1.2054  2.0877
   7223SM  C10F 9474   6.187   4.428  16.318 -0.1200 -0.4005 -0.3120
   7223SM  H10F 9475   6.087   4.382  16.333 -0.7728  1.8862  3.5664
   7223SM  H10G 9476   6.246   4.357  16.256 -1.5557 -0.4059 -1.7399
   7223SM  C11F 9477   6.181   4.565  16.247  0.0816  0.0719 -0.3359
   7223SM  H11F 9478   6.273   4.619  16.277  2.1533 -3.2956 -0.1614
   7223SM  H11G 9479   6.095   4.628  16.280 -0.2170  0.8152 -2.3819
   7223SM  C12F 9480   6.169   4.544  16.090  0.9358  0.5426 -0.0752
   7223SM  H12F 9481   6.069   4.514  16.053  1.3277  1.5879 -2.1448
   7223SM  H12G 9482   6.243   4.464  16.067 -0.4362 -0.8613  0.2205
   7223SM  C13F 9483   6.221   4.677  16.024  0.4332 -0.3228  0.8295
   7223SM  H13F 9484   6.330   4.685  16.047  0.8722 -2.0814 -0.4388
   7223SM  H13G 9485   6.166   4.758  16.076  2.0968  1.0990  0.4544
   7223SM  C14F 9486   6.198   4.686  15.874 -0.3913  0.6121  0.2160
   7223SM  H14F 9487   6.207   4.784  15.824  0.1212 -0.0268 -1.0000
   7223SM  H14G 9488   6.094   4.647  15.865 -0.2334  0.0220  0.8442
   7223SM  C15F 9489   6.306   4.596  15.810 -0.3653  0.2421  0.4356
   7223SM  H15F 9490   6.313   4.496  15.859 -1.8017 -1.1621 -2.0544
   7223SM  H15G 9491   6.400   4.653  15.826 -0.6783  0.2878  2.3725
   7223SM  C16F 9492   6.286   4.570  15.660  0.1603  0.2512  0.2537
   7223SM  H16F 9493   6.280   4.663  15.600 -0.8095  0.8966  1.3151
   7223SM  H16G 9494   6.189   4.519  15.644  1.0650 -1.2798 -0.5137
   7223SM  C17F 9495   6.391   4.478  15.595 -1.2549 -0.2284 -0.3894
   7223SM  H17F 9496   6.360   4.373  15.608  2.0104 -1.1319  1.0173
   7223SM  H17G 9497   6.486   4.486  15.651 -1.7496  3.3638  0.1955
   7223SM  C18F 9498   6.414   4.517  15.446  0.2540  0.9725  0.1442
   7223SM  H18F 9499   6.493   4.450  15.406  2.3021  2.7314  1.0623
   7223SM  H18G 9500   6.457   4.619  15.439  2.8687 -0.0666  0.1676
   7223SM  C19F 9501   6.293   4.521  15.361  0.1221  0.1952  0.1392
   7223SM  H19F 9502   6.227   4.609  15.376 -2.8954 -1.0369 -4.0383
   7223SM  H19G 9503   6.229   4.439  15.399  0.7856 -0.2878  0.2270
   7223SM  C20F 9504   6.327   4.497  15.212  0.4272  1.2089 -0.2296
   7223SM  H20F 9505   6.398   4.415  15.190  1.8642  1.9627  1.3200
   7223SM  H20G 9506   6.375   4.590  15.175 -0.4291  2.0005  0.5671
   7223SM  C21F 9507   6.199   4.470  15.131  0.1436  0.0374 -0.2889
   7223SM  H21F 9508   6.128   4.555  15.139  0.0721 -0.0045 -0.4759
   7223SM  H21G 9509   6.144   4.378  15.161 -2.8376  1.5047 -0.8947
   7223SM  C22F 9510   6.231   4.453  14.979 -0.7773 -0.6005  0.4571
   7223SM  H22F 9511   6.268   4.350  14.964  1.1837 -0.0458  1.0533
   7223SM  H22G 9512   6.311   4.528  14.957 -0.2092 -1.2411  0.3163
   7223SM  C23F 9513   6.117   4.488  14.883  0.0226 -0.0950 -0.5727
   7223SM  H23F 9514   6.061   4.579  14.915  1.8051  1.0677 -0.5765
   7223SM  H23G 9515   6.051   4.399  14.878  0.6047 -0.6515  1.1450
   7223SM  H23H 9516   6.150   4.519  14.781 -1.8475 -0.7791 -1.4284
   7323SM     N 9517   4.799   1.086  17.546  0.0245  0.0816 -0.6641
   7323SM   C15 9518   4.923   1.019  17.608 -0.1281  0.4339  0.9329
   7323SM  H15A 9519   5.014   1.077  17.611  0.6493 -0.4283 -2.2578
   7323SM  H15B 9520   4.960   0.936  17.549  1.0734 -0.0728  2.3488
   7323SM  H15C 9521   4.902   0.972  17.703 -1.2625  0.1344  0.5548
   7323SM   C14 9522   4.680   0.989  17.518 -0.8280  0.2292 -0.4127
   7323SM  H14A 9523   4.596   1.033  17.465 -1.1814 -1.1142 -1.0039
   7323SM  H14B 9524   4.630   0.953  17.606 -2.7457 -0.1564 -1.6056
   7323SM  H14C 9525   4.716   0.905  17.460 -1.3923 -0.1938 -0.1532
   7323SM   C13 9526   4.750   1.186  17.646 -0.0885  0.5339  0.7350
   7323SM  H13A 9527   4.715   1.144  17.739  0.2383 -0.1746  0.5417
   7323SM  H13B 9528   4.668   1.247  17.610  0.9052  1.7307  0.4402
   7323SM  H13C 9529   4.824   1.258  17.679  0.0246  1.3243 -1.1248
   7323SM   C12 9530   4.853   1.147  17.418  0.5829  0.0857 -0.2409
   7323SM  H12A 9531   4.902   1.072  17.358  1.2058  0.0545  0.2987
   7323SM  H12B 9532   4.938   1.208  17.444  1.6168 -1.1624 -0.6026
   7323SM   C11 9533   4.770   1.247  17.335 -0.1001 -0.0079 -0.3009
   7323SM  H11A 9534   4.682   1.199  17.289 -0.1582 -0.0915 -0.1044
   7323SM  H11B 9535   4.829   1.290  17.251  1.1497 -0.1007  0.5009
   7323SM     P 9536   4.786   1.478  17.458 -0.5148 -0.2234 -0.3337
   7323SM   O13 9537   4.693   1.553  17.544  0.1367 -0.4375  0.2570
   7323SM   O14 9538   4.922   1.459  17.510 -0.8712 -0.8142 -0.2239
   7323SM   O11 9539   4.811   1.548  17.318  0.3174 -0.9781  0.2511
   7323SM   O12 9540   4.710   1.347  17.418  0.1249  0.0070  0.1256
   7323SM   C1S 9541   4.707   1.559  17.222  0.0921 -0.4709  0.1776
   7323SM   H1S 9542   4.621   1.623  17.254  0.0705  0.6208 -1.8523
   7323SM   H1T 9543   4.675   1.461  17.180 -0.7433  0.1958 -0.7908
   7323SM    NF 9544   4.640   1.643  16.996  0.0264  0.3094 -0.2613
   7323SM   HNF 9545   4.655   1.590  16.913 -0.8270  0.2748 -0.4011
   7323SM   C2S 9546   4.750   1.639  17.091  0.1859 -0.1886  0.0691
   7323SM   H2S 9547   4.769   1.743  17.122 -0.5279 -0.9688  3.5033
   7323SM   C3S 9548   4.882   1.588  17.027 -0.7863  0.7518  0.1679
   7323SM   H3S 9549   4.846   1.492  16.984 -2.4015  1.2449  0.3512
   7323SM    O3 9550   4.996   1.573  17.113 -0.3107  0.3073  0.2533
   7323SM   HO3 9551   4.954   1.576  17.199  0.8491 -2.2417  1.0250
   7323SM   C4S 9552   4.926   1.671  16.911 -0.7021  0.4142  0.9581
   7323SM   H4S 9553   4.874   1.644  16.818  0.1154 -1.4365  0.9910
   7323SM   C5S 9554   5.029   1.762  16.903  0.0709  0.1926  0.3410
   7323SM   H5S 9555   5.091   1.776  16.993 -0.5678 -1.3517  1.0460
   7323SM   C6S 9556   5.068   1.827  16.776 -0.8075 -0.7404 -0.2508
   7323SM   H6S 9557   5.175   1.807  16.756 -0.5023  0.5062  0.0369
   7323SM   H6T 9558   5.052   1.937  16.785 -1.5289 -0.8876  0.3944
   7323SM   C7S 9559   4.992   1.785  16.647 -0.9656 -0.2546  0.5717
   7323SM   H7S 9560   4.883   1.798  16.663 -1.0573  0.1784 -0.3255
   7323SM   H7T 9561   5.014   1.677  16.632  1.4349  0.1945  0.3819
   7323SM   C8S 9562   5.042   1.860  16.520 -0.0807  0.9840  0.3920
   7323SM   H8S 9563   5.151   1.844  16.510 -0.2845 -2.7746  2.4288
   7323SM   H8T 9564   5.018   1.964  16.552  0.3278  0.2994  3.1879
   7323SM   C9S 9565   4.958   1.832  16.393  0.1125  0.3189 -0.1043
   7323SM   H9S 9566   4.850   1.845  16.414 -0.2890  0.2996 -1.9652
   7323SM   H9T 9567   4.975   1.730  16.351 -2.3874 -0.1127 -0.1959
   7323SM  C10S 9568   4.976   1.919  16.264  0.2880  0.7112  0.3434
   7323SM  H10S 9569   5.083   1.943  16.243 -0.0905  1.1191 -1.1972
   7323SM  H10T 9570   4.932   2.018  16.289 -0.6195  0.0766  1.3316
   7323SM  C11S 9571   4.918   1.859  16.140 -0.0221  0.3609 -0.7853
   7323SM  H11S 9572   4.809   1.840  16.144 -0.3410  2.1954  0.8116
   7323SM  H11T 9573   4.977   1.768  16.114  1.9111  1.1070  0.6992
   7323SM  C12S 9574   4.924   1.961  16.027 -0.3416 -0.0926 -0.2629
   7323SM  H12S 9575   5.031   1.987  16.011 -0.6888  2.3971  0.9274
   7323SM  H12T 9576   4.868   2.052  16.058  1.3055  1.2595 -1.1103
   7323SM  C13S 9577   4.862   1.912  15.892  0.9276 -0.1155 -0.6804
   7323SM  H13S 9578   4.759   1.885  15.923  1.0676  1.1974  1.0952
   7323SM  H13T 9579   4.915   1.818  15.867  0.8580 -0.2581 -0.3054
   7323SM  C14S 9580   4.874   2.018  15.782 -0.7403  0.5839 -0.7010
   7323SM  H14S 9581   4.981   2.047  15.777 -0.4677 -0.2863 -0.1442
   7323SM  H14T 9582   4.828   2.115  15.810 -1.6612  0.4197 -1.5674
   7323SM  C15S 9583   4.827   1.964  15.648 -0.2120  0.0598 -0.2672
   7323SM  H15S 9584   4.722   1.928  15.657 -0.5900  0.3228 -2.9944
   7323SM  H15T 9585   4.888   1.874  15.627 -1.7526 -1.0478 -0.1387
   7323SM  C16S 9586   4.831   2.062  15.529  0.7993  0.4349 -0.1833
   7323SM  H16S 9587   4.934   2.099  15.510  1.1520 -0.2982  0.2873
   7323SM  H16T 9588   4.763   2.146  15.555  1.5295  1.1478 -0.5257
   7323SM  C17S 9589   4.765   2.006  15.406  0.3221  0.3121  0.0358
   7323SM  H17S 9590   4.656   2.009  15.427  0.1211 -1.6792 -0.5897
   7323SM  H17T 9591   4.799   1.902  15.390 -0.9319  0.1607 -1.9591
   7323SM  C18S 9592   4.799   2.094  15.278 -0.2511  0.3529 -0.5222
   7323SM  H18S 9593   4.754   2.195  15.288 -0.0505  0.5454 -1.4762
   7323SM  H18T 9594   4.750   2.054  15.186 -0.5481  0.9017 -0.6114
   7323SM  H18U 9595   4.908   2.106  15.260  0.0450 -2.4740 -1.0541
   7323SM   C1F 9596   4.525   1.708  17.015  0.0495  0.1065  0.9922
   7323SM    OF 9597   4.496   1.771  17.119  0.0635  0.7931  0.0588
   7323SM   C2F 9598   4.428   1.699  16.902  0.1952  0.5801  0.5277
   7323SM   H2F 9599   4.402   1.600  16.858 -1.0220  0.9791  0.3146
   7323SM   H2G 9600   4.474   1.751  16.815  2.1549 -2.7986 -0.6473
   7323SM   C3F 9601   4.285   1.757  16.943  0.6739  0.4436  0.8588
   7323SM   H3F 9602   4.289   1.865  16.968  1.3996  0.7490 -0.4842
   7323SM   H3G 9603   4.268   1.719  17.046 -0.3593 -1.0657  0.1720
   7323SM   C4F 9604   4.178   1.721  16.837 -0.0496 -0.4902 -0.0285
   7323SM   H4F 9605   4.080   1.769  16.860  0.1147  1.7951 -3.3884
   7323SM   H4G 9606   4.146   1.615  16.841  0.1619 -0.5243  1.4000
   7323SM   C5F 9607   4.211   1.782  16.702  0.0292 -0.3174 -0.1390
   7323SM   H5F 9608   4.305   1.736  16.664 -1.1825 -0.6973 -2.9238
   7323SM   H5G 9609   4.226   1.892  16.699 -1.1334  0.0073  2.6520
   7323SM   C6F 9610   4.112   1.742  16.594 -0.4947 -0.6982 -0.6613
   7323SM   H6F 9611   4.022   1.806  16.608 -0.3126  1.3636 -6.2327
   7323SM   H6G 9612   4.086   1.634  16.600 -0.0366 -0.7456  0.7629
   7323SM   C7F 9613   4.167   1.779  16.455  0.1486 -0.5472 -0.7427
   7323SM   H7F 9614   4.275   1.758  16.440 -0.1164 -1.6927 -1.2041
   7323SM   H7G 9615   4.159   1.889  16.449 -1.4850 -0.7178 -2.5560
   7323SM   C8F 9616   4.075   1.725  16.341 -0.8141 -0.1404  0.1784
   7323SM   H8F 9617   3.973   1.755  16.373 -0.0103  2.7982  0.2719
   7323SM   H8G 9618   4.075   1.614  16.346 -1.3296 -0.2212 -1.2293
   7323SM   C9F 9619   4.105   1.795  16.208 -0.4768  0.3474 -0.6961
   7323SM   H9F 9620   4.213   1.779  16.185 -0.8157 -0.4339 -1.8643
   7323SM   H9G 9621   4.094   1.905  16.220 -1.0778  0.2331 -0.1469
   7323SM  C10F 9622   4.029   1.731  16.093  1.0607  0.0876  0.7688
   7323SM  H10F 9623   3.923   1.765  16.103  1.6993  2.7609 -0.5593
   7323SM  H10G 9624   4.034   1.620  16.091  2.2911  0.0845 -2.7877
   7323SM  C11F 9625   4.071   1.781  15.959 -0.0637  0.0448 -0.3974
   7323SM  H11F 9626   4.173   1.739  15.946  0.4956  1.5535 -1.0936
   7323SM  H11G 9627   4.076   1.892  15.967  0.1958 -0.0881  1.9065
   7323SM  C12F 9628   3.969   1.731  15.850  0.4241  0.0121 -0.1478
   7323SM  H12F 9629   3.864   1.762  15.872 -0.4026 -2.0626 -0.8661
   7323SM  H12G 9630   3.968   1.620  15.851 -0.1516  0.0097 -0.8219
   7323SM  C13F 9631   4.006   1.771  15.711 -0.4109  0.4766  0.7308
   7323SM  H13F 9632   4.056   1.870  15.703 -0.5672  0.4457 -1.1123
   7323SM  H13G 9633   3.915   1.773  15.648  0.1003 -3.8801 -0.4155
   7323SM  C14F 9634   4.106   1.674  15.653  0.2779  0.0376  0.0265
   7323SM  H14F 9635   4.060   1.574  15.637 -0.4103  0.8082 -3.4487
   7323SM  H14G 9636   4.195   1.659  15.718  0.1095  0.7346  0.4382
   7323SM  C15F 9637   4.164   1.728  15.519  0.3694  0.6109  0.4152
   7323SM  H15F 9638   4.206   1.829  15.542 -0.8487  1.6311 -1.4983
   7323SM  H15G 9639   4.085   1.750  15.444  0.7383 -1.7370 -0.7474
   7323SM  C16F 9640   4.269   1.635  15.456  0.3321  0.3587 -0.0331
   7323SM  H16F 9641   4.225   1.533  15.458  0.4400  0.3180  0.6218
   7323SM  H16G 9642   4.359   1.641  15.521 -0.3365  1.2331  0.8579
   7323SM  C17F 9643   4.310   1.667  15.321  0.1103 -0.6992 -0.2345
   7323SM  H17F 9644   4.235   1.639  15.244 -0.3653  0.8574 -0.3703
   7323SM  H17G 9645   4.400   1.605  15.299  0.1547 -0.5111 -0.5924
   7323SM  C18F 9646   4.356   1.812  15.294  0.2185  0.3418 -0.4385
   7323SM  H18F 9647   4.448   1.840  15.351  1.6516 -0.6904 -2.1588
   7323SM  H18G 9648   4.269   1.874  15.326 -0.3657 -0.4812 -0.4119
   7323SM  C19F 9649   4.398   1.842  15.151 -0.8264  0.0277  0.2110
   7323SM  H19F 9650   4.306   1.826  15.091 -0.8399  3.5483 -0.9102
   7323SM  H19G 9651   4.489   1.786  15.118  1.3516  3.0416  0.7281
   7323SM  C20F 9652   4.424   1.992  15.136 -0.3654  0.2398  0.2642
   7323SM  H20F 9653   4.478   2.027  15.227 -0.6133  2.1453 -0.2814
   7323SM  H20G 9654   4.318   2.024  15.147  0.0430  1.2258  1.5319
   7323SM  C21F 9655   4.486   2.036  15.005 -0.0142  0.2444  0.0722
   7323SM  H21F 9656   4.438   1.981  14.922  0.9901 -2.2383  1.0442
   7323SM  H21G 9657   4.591   1.999  15.005  0.4638  1.5337 -0.0763
   7323SM  C22F 9658   4.471   2.185  14.979  0.4638 -0.0911 -0.0281
   7323SM  H22F 9659   4.535   2.236  15.054  0.5493  0.4892 -0.4886
   7323SM  H22G 9660   4.367   2.219  14.999  0.7558  1.2021 -0.5900
   7323SM  C23F 9661   4.508   2.233  14.838  0.1744  0.6516 -0.1305
   7323SM  H23F 9662   4.446   2.182  14.762  0.6874  1.4006 -1.0675
   7323SM  H23G 9663   4.610   2.198  14.811  0.7818  0.3703  2.2445
   7323SM  H23H 9664   4.505   2.343  14.823 -0.7482  0.6355 -0.0761
   7423SM     N 9665   0.782   5.576  17.941  0.2701  0.3935 -0.6521
   7423SM   C15 9666   0.895   5.491  17.889  0.9395 -0.3181 -0.1447
   7423SM  H15A 9667   0.856   5.405  17.837  1.3592 -0.0024 -1.0097
   7423SM  H15B 9668   0.963   5.463  17.967 -0.7522  0.1986  1.5929
   7423SM  H15C 9669   0.957   5.548  17.821  1.6512 -1.2086 -0.2479
   7423SM   C14 9670   0.707   5.489  18.036  0.0884 -0.1564  0.1280
   7423SM  H14A 9671   0.609   5.526  18.063 -0.0988  0.1001 -0.8572
   7423SM  H14B 9672   0.763   5.478  18.128  3.0989  2.6271 -1.2027
   7423SM  H14C 9673   0.693   5.390  17.996  0.5375 -1.3421  2.6683
   7423SM   C13 9674   0.834   5.688  18.031  0.1491  0.5154 -0.0792
   7423SM  H13A 9675   0.887   5.756  17.965  1.0013 -0.7496 -0.7406
   7423SM  H13B 9676   0.905   5.640  18.096 -0.9657 -0.1840  0.6438
   7423SM  H13C 9677   0.759   5.741  18.088 -2.3774 -2.8132 -0.0020
   7423SM   C12 9678   0.697   5.623  17.827 -0.6184 -0.4716 -0.6495
   7423SM  H12A 9679   0.597   5.649  17.860 -1.8678 -3.3950 -1.8053
   7423SM  H12B 9680   0.696   5.531  17.770 -1.4508 -2.3685  2.1616
   7423SM   C11 9681   0.750   5.726  17.726 -0.0266  0.8514 -0.4217
   7423SM  H11A 9682   0.774   5.817  17.784  4.1983 -0.3442  0.0293
   7423SM  H11B 9683   0.674   5.741  17.646 -0.8520  1.6729  0.4906
   7423SM     P 9684   0.945   5.769  17.568 -0.0974 -0.0925 -0.4738
   7423SM   O13 9685   0.937   5.910  17.608  0.6204  0.8556  0.4279
   7423SM   O14 9686   1.082   5.719  17.553  0.4083 -0.6564 -0.3733
   7423SM   O11 9687   0.870   5.750  17.434  0.4368  0.1546 -0.2207
   7423SM   O12 9688   0.875   5.678  17.674 -0.2498 -0.4463 -0.1800
   7423SM   C1S 9689   0.789   5.642  17.391  0.1966  0.2685  0.9484
   7423SM   H1S 9690   0.683   5.662  17.420 -1.1452 -1.3000 -2.3591
   7423SM   H1T 9691   0.821   5.545  17.435  0.3387  0.4006  1.1414
   7423SM    NF 9692   0.668   5.575  17.188 -0.4327 -0.5322  0.1883
   7423SM   HNF 9693   0.674   5.476  17.177 -0.5517 -0.7439  1.8634
   7423SM   C2S 9694   0.794   5.637  17.237 -0.1206 -0.3847 -0.5640
   7423SM   H2S 9695   0.798   5.741  17.198 -0.9820  0.8714  2.4642
   7423SM   C3S 9696   0.930   5.575  17.188 -0.3527  0.2112  0.2400
   7423SM   H3S 9697   0.953   5.471  17.220  1.3790  0.3373 -0.4694
   7423SM    O3 9698   1.044   5.651  17.235  0.1051 -0.8921  0.3058
   7423SM   HO3 9699   1.002   5.725  17.279  1.6618  1.5156 -1.9325
   7423SM   C4S 9700   0.947   5.584  17.035  0.5343 -0.1635 -0.8584
   7423SM   H4S 9701   0.951   5.686  16.994 -2.0725  0.0426 -0.7506
   7423SM   C5S 9702   0.946   5.472  16.963  0.3811  0.0313 -0.4733
   7423SM   H5S 9703   0.933   5.374  17.010 -0.6132 -0.0510 -0.8871
   7423SM   C6S 9704   0.930   5.472  16.814 -0.3706 -0.6901 -0.4949
   7423SM   H6S 9705   1.022   5.468  16.751 -0.2008 -0.8301 -0.2415
   7423SM   H6T 9706   0.878   5.561  16.772  1.7837  0.5491 -0.7000
   7423SM   C7S 9707   0.855   5.349  16.762 -0.2420 -0.1834 -0.1904
   7423SM   H7S 9708   0.765   5.318  16.819 -1.1642 -0.7928 -1.8947
   7423SM   H7T 9709   0.923   5.261  16.765 -0.4368 -0.3003  2.2182
   7423SM   C8S 9710   0.798   5.377  16.617  0.6927  0.0984  1.1229
   7423SM   H8S 9711   0.723   5.458  16.617  0.6101  0.1201 -1.6657
   7423SM   H8T 9712   0.736   5.287  16.597  0.4497  0.9131 -2.2376
   7423SM   C9S 9713   0.897   5.395  16.504 -0.3024  0.6607 -0.4110
   7423SM   H9S 9714   0.969   5.312  16.490 -1.4345  0.0853 -3.8998
   7423SM   H9T 9715   0.948   5.490  16.530 -0.9295  0.5557  1.2930
   7423SM  C10S 9716   0.823   5.399  16.365 -0.7050 -0.1513 -0.0314
   7423SM  H10S 9717   0.756   5.486  16.350  0.9178  0.8686 -1.7095
   7423SM  H10T 9718   0.771   5.301  16.352 -0.5554 -0.2056 -0.2249
   7423SM  C11S 9719   0.932   5.399  16.254 -0.3988 -0.3397  0.5598
   7423SM  H11S 9720   0.999   5.311  16.259 -0.8121 -0.6190  1.3330
   7423SM  H11T 9721   0.985   5.495  16.272 -0.2875  0.3362 -2.7747
   7423SM  C12S 9722   0.884   5.398  16.107 -0.5132 -0.1521  0.1534
   7423SM  H12S 9723   0.946   5.468  16.048 -3.5636  0.4291 -2.6756
   7423SM  H12T 9724   0.780   5.437  16.104 -0.0281  1.1722 -2.3321
   7423SM  C13S 9725   0.896   5.264  16.049  0.5851 -0.3198 -0.4214
   7423SM  H13S 9726   0.866   5.182  16.118 -1.2916 -0.2182 -1.0624
   7423SM  H13T 9727   1.004   5.257  16.024  0.3468 -0.6222 -1.4185
   7423SM  C14S 9728   0.822   5.247  15.914  0.1140  0.3257 -0.2938
   7423SM  H14S 9729   0.717   5.263  15.946  0.4184  1.4731  0.1673
   7423SM  H14T 9730   0.833   5.142  15.878  0.0682  0.0180  0.5776
   7423SM  C15S 9731   0.855   5.350  15.808 -0.0390 -0.3057  0.6330
   7423SM  H15S 9732   0.964   5.372  15.812  0.4571 -2.7079  1.7250
   7423SM  H15T 9733   0.804   5.447  15.829  0.4862  0.4349 -1.2672
   7423SM  C16S 9734   0.827   5.298  15.667 -0.1686 -0.0797 -0.6491
   7423SM  H16S 9735   0.720   5.283  15.640 -1.2762  0.5943  2.8708
   7423SM  H16T 9736   0.875   5.198  15.656 -0.3154 -0.3329  0.7678
   7423SM  C17S 9737   0.878   5.394  15.562  0.5096 -0.0932 -0.2632
   7423SM  H17S 9738   0.986   5.404  15.587  0.6149  2.8682 -1.4667
   7423SM  H17T 9739   0.837   5.495  15.588 -0.6870 -1.1856  2.5434
   7423SM  C18S 9740   0.854   5.353  15.414 -0.2484  0.5507 -0.5646
   7423SM  H18S 9741   0.899   5.255  15.384 -4.2355 -1.5449 -0.3026
   7423SM  H18T 9742   0.892   5.428  15.342  0.0827 -1.5916 -2.7858
   7423SM  H18U 9743   0.745   5.343  15.397 -0.5363  2.4333  0.0010
   7423SM   C1F 9744   0.553   5.644  17.182 -0.5640  1.1591  0.1149
   7423SM    OF 9745   0.546   5.763  17.208 -0.3585 -0.5027 -0.4138
   7423SM   C2F 9746   0.434   5.567  17.155 -0.5220  0.2093  0.5529
   7423SM   H2F 9747   0.343   5.630  17.145  0.7110  2.3356  1.9191
   7423SM   H2G 9748   0.429   5.501  17.245 -0.2839 -0.9946 -0.2855
   7423SM   C3F 9749   0.435   5.476  17.028  0.0634  0.2843 -0.2107
   7423SM   H3F 9750   0.329   5.443  17.031  0.0465  0.3904  0.6182
   7423SM   H3G 9751   0.508   5.394  17.047 -0.4517  0.0133  0.6514
   7423SM   C4F 9752   0.450   5.551  16.897 -0.2451  0.5033  0.3472
   7423SM   H4F 9753   0.547   5.606  16.900 -0.3080  0.7073 -0.8464
   7423SM   H4G 9754   0.369   5.621  16.872  0.8394  1.0351 -1.9412
   7423SM   C5F 9755   0.452   5.447  16.780  0.7049  0.0821 -0.0372
   7423SM   H5F 9756   0.354   5.393  16.782 -0.0307  1.3910  0.2486
   7423SM   H5G 9757   0.536   5.377  16.798  0.7788  0.1101 -0.2824
   7423SM   C6F 9758   0.474   5.508  16.642 -0.0467 -0.1106 -0.1483
   7423SM   H6F 9759   0.537   5.446  16.575  1.0669 -0.3733  1.0868
   7423SM   H6G 9760   0.533   5.602  16.653 -1.0739  0.4215  1.1445
   7423SM   C7F 9761   0.343   5.559  16.585  0.5284  0.2866  0.3532
   7423SM   H7F 9762   0.290   5.625  16.657  0.8420 -0.4298  1.2422
   7423SM   H7G 9763   0.282   5.467  16.597  1.7509 -0.5350  0.4218
   7423SM   C8F 9764   0.329   5.615  16.443  0.1695  0.3954 -0.2880
   7423SM   H8F 9765   0.411   5.684  16.412 -0.1816  1.8200  1.7471
   7423SM   H8G 9766   0.228   5.658  16.431  0.3310  2.0852  3.1018
   7423SM   C9F 9767   0.338   5.499  16.338 -0.0672 -0.0368  0.3373
   7423SM   H9F 9768   0.273   5.412  16.364 -2.2767  1.1900 -0.8165
   7423SM   H9G 9769   0.439   5.453  16.336  0.2847  0.5316  2.3988
   7423SM  C10F 9770   0.304   5.546  16.197 -0.7060 -0.3805 -0.2443
   7423SM  H10F 9771   0.353   5.645  16.187 -0.7446 -0.2381  0.8672
   7423SM  H10G 9772   0.194   5.551  16.185 -0.7344 -0.1742  0.0932
   7423SM  C11F 9773   0.368   5.456  16.088  0.5887  0.3965 -0.1425
   7423SM  H11F 9774   0.303   5.366  16.092  1.0913  0.0339  3.2731
   7423SM  H11G 9775   0.474   5.433  16.110  1.1056  0.4060 -2.3859
   7423SM  C12F 9776   0.355   5.507  15.948  0.7242 -0.1957  0.0424
   7423SM  H12F 9777   0.403   5.606  15.932 -1.2507  0.5957 -1.3794
   7423SM  H12G 9778   0.248   5.508  15.918  0.3292 -0.1942  1.3853
   7423SM  C13F 9779   0.419   5.404  15.853 -0.3263 -0.0975 -0.0507
   7423SM  H13F 9780   0.408   5.300  15.891 -1.4582  0.3860  1.0468
   7423SM  H13G 9781   0.530   5.410  15.857 -0.3819  0.6192  2.8463
   7423SM  C14F 9782   0.369   5.429  15.705  0.4390  0.2517  0.0984
   7423SM  H14F 9783   0.259   5.437  15.698  0.5838  4.0623  0.5074
   7423SM  H14G 9784   0.400   5.336  15.651 -1.3797  0.1456 -0.8282
   7423SM  C15F 9785   0.431   5.550  15.633  0.0996 -0.1866  0.1882
   7423SM  H15F 9786   0.541   5.551  15.644  0.0613  0.2817  0.6324
   7423SM  H15G 9787   0.406   5.643  15.689 -0.5062  0.0683 -0.4940
   7423SM  C16F 9788   0.395   5.573  15.487  0.9732  0.0607 -0.2268
   7423SM  H16F 9789   0.290   5.608  15.488  0.4635 -1.3919  1.1293
   7423SM  H16G 9790   0.411   5.477  15.434  1.1350  0.9044 -1.7818
   7423SM  C17F 9791   0.484   5.671  15.417 -0.1869  0.2597 -0.6468
   7423SM  H17F 9792   0.577   5.613  15.401  0.5150  1.2290 -0.1787
   7423SM  H17G 9793   0.519   5.754  15.482  1.6614 -0.8765 -0.1326
   7423SM  C18F 9794   0.434   5.726  15.286  0.1562 -0.4968 -0.7967
   7423SM  H18F 9795   0.497   5.805  15.240 -0.8520 -0.2813 -1.8426
   7423SM  H18G 9796   0.332   5.768  15.301  0.3756 -0.5313  1.0267
   7423SM  C19F 9797   0.416   5.616  15.179  0.2591  0.4272 -0.4027
   7423SM  H19F 9798   0.328   5.559  15.216 -0.1015  1.3760  0.2467
   7423SM  H19G 9799   0.505   5.551  15.169  0.1316  0.4869 -2.3233
   7423SM  C20F 9800   0.394   5.674  15.038  0.4296  0.1406 -0.2451
   7423SM  H20F 9801   0.409   5.598  14.959  0.4375 -1.6939  1.4578
   7423SM  H20G 9802   0.471   5.753  15.031 -0.7555  1.3230 -0.4228
   7423SM  C21F 9803   0.258   5.737  15.014 -0.1484 -0.1048  0.3829
   7423SM  H21F 9804   0.231   5.822  15.080 -0.7178 -0.9612  1.2985
   7423SM  H21G 9805   0.184   5.662  15.050  0.0523  0.5956  2.3683
   7423SM  C22F 9806   0.240   5.770  14.853 -0.3821 -0.0529  0.1443
   7423SM  H22F 9807   0.235   5.667  14.811 -1.9791 -0.0883  0.3547
   7423SM  H22G 9808   0.330   5.816  14.808 -0.2750 -2.3494 -2.1955
   7423SM  C23F 9809   0.114   5.850  14.830 -0.0941  0.6253  0.8706
   7423SM  H23F 9810   0.089   5.853  14.721 -0.2281 -0.0058  0.8794
   7423SM  H23G 9811   0.127   5.960  14.842 -0.0828  1.1605 -2.7429
   7423SM  H23H 9812   0.028   5.812  14.889 -1.0174  0.3892 -0.5731
   7523SM     N 9813   6.061   0.551  17.332  0.2267 -0.6037 -0.4884
   7523SM   C15 9814   5.931   0.485  17.298 -0.1582 -0.6020 -0.1678
   7523SM  H15A 9815   5.954   0.414  17.220 -1.6449  0.3558 -1.5281
   7523SM  H15B 9816   5.856   0.550  17.257 -1.7978 -1.4935  1.2760
   7523SM  H15C 9817   5.897   0.433  17.387 -0.8981 -0.2846 -0.2634
   7523SM   C14 9818   6.123   0.586  17.197 -0.0143 -0.1060 -0.0942
   7523SM  H14A 9819   6.123   0.498  17.135 -1.1533 -0.6475  0.6261
   7523SM  H14B 9820   6.223   0.625  17.211 -0.0771  0.9050 -2.0836
   7523SM  H14C 9821   6.066   0.664  17.147  0.1804 -0.9388 -1.6749
   7523SM   C13 9822   6.033   0.680  17.406 -0.0920  0.3275 -0.1621
   7523SM  H13A 9823   5.953   0.736  17.363 -1.5015 -0.4775  1.2903
   7523SM  H13B 9824   6.123   0.739  17.408  0.2353  0.0516 -3.1895
   7523SM  H13C 9825   6.011   0.655  17.509  2.2290 -2.0478 -0.1373
   7523SM   C12 9826   6.149   0.458  17.409  0.4194 -0.2330 -0.9178
   7523SM  H12A 9827   6.096   0.440  17.502  1.2747 -0.2487 -0.4262
   7523SM  H12B 9828   6.239   0.512  17.433 -0.3196  0.7032 -0.1255
   7523SM   C11 9829   6.183   0.320  17.345  0.0212 -0.2988 -0.4798
   7523SM  H11A 9830   6.267   0.267  17.395  0.5854  0.0427 -1.0596
   7523SM  H11B 9831   6.214   0.332  17.239 -1.0461 -1.8756 -1.0033
   7523SM     P 9832   6.084   0.092  17.286 -0.6386 -0.0119 -0.0510
   7523SM   O13 9833   6.187   0.021  17.352  0.3526  0.0037  0.3048
   7523SM   O14 9834   5.954   0.023  17.287 -0.0512 -0.3924  0.0304
   7523SM   O11 9835   6.117   0.129  17.140  0.1233 -0.4052  0.3761
   7523SM   O12 9836   6.065   0.238  17.343  0.0818  0.2376  0.1004
   7523SM   C1S 9837   6.031   0.223  17.069 -0.7539  0.3378  0.8634
   7523SM   H1S 9838   6.079   0.322  17.089 -0.9129  0.2299  1.8570
   7523SM   H1T 9839   5.924   0.216  17.098 -0.2637 -3.5928  2.2410
   7523SM    NF 9840   5.999   0.330  16.842 -0.1539  0.3390  0.1173
   7523SM   HNF 9841   5.912   0.323  16.793 -0.9976  1.4937  1.3479
   7523SM   C2S 9842   6.045   0.210  16.914  0.0096  0.2895 -0.1255
   7523SM   H2S 9843   6.149   0.194  16.878 -0.8070 -3.1816 -1.3756
   7523SM   C3S 9844   5.965   0.078  16.873 -0.3233  0.3387  0.5385
   7523SM   H3S 9845   5.856   0.100  16.880 -0.2317  0.8437  0.4806
   7523SM    O3 9846   5.991  -0.038  16.956  0.0070  0.1093 -0.8573
   7523SM   HO3 9847   6.056  -0.012  17.022 -0.2635 -2.1505  0.4232
   7523SM   C4S 9848   5.986   0.035  16.730  0.7983 -0.0242  0.4761
   7523SM   H4S 9849   5.920   0.080  16.654  0.9463  0.2221  0.4906
   7523SM   C5S 9850   6.093  -0.028  16.686  0.4039  0.0707 -0.2179
   7523SM   H5S 9851   6.172  -0.055  16.757 -0.9481  1.4689  1.9228
   7523SM   C6S 9852   6.137  -0.071  16.548  0.2546 -0.0520  1.0836
   7523SM   H6S 9853   6.150  -0.181  16.538  1.0335  0.1519 -0.7002
   7523SM   H6T 9854   6.236  -0.020  16.536  0.1896  0.0476  0.9597
   7523SM   C7S 9855   6.062  -0.020  16.428  0.4788  0.4482 -0.3815
   7523SM   H7S 9856   6.037   0.088  16.436  0.7957  0.4181  1.3301
   7523SM   H7T 9857   5.968  -0.080  16.428  2.0457 -2.2323 -2.0302
   7523SM   C8S 9858   6.123  -0.037  16.288 -0.1229  0.0847 -0.7920
   7523SM   H8S 9859   6.150  -0.144  16.277 -0.2826  0.0119 -0.4639
   7523SM   H8T 9860   6.211   0.027  16.268  1.5430 -2.0937 -0.8337
   7523SM   C9S 9861   6.022  -0.002  16.173  0.9754 -0.5665 -0.5423
   7523SM   H9S 9862   6.001   0.106  16.190  2.7329 -0.1561 -0.7953
   7523SM   H9T 9863   5.938  -0.074  16.182 -0.1191  0.5394 -1.4748
   7523SM  C10S 9864   6.077  -0.017  16.041  0.4851  0.3601  0.7451
   7523SM  H10S 9865   6.125  -0.117  16.037  0.0742  0.1710  0.4516
   7523SM  H10T 9866   6.152   0.061  16.018  1.5930 -1.1272 -1.0385
   7523SM  C11S 9867   5.980  -0.012  15.928  0.9295 -0.9281  0.7391
   7523SM  H11S 9868   5.925   0.084  15.936  0.8413 -0.8352 -0.6144
   7523SM  H11T 9869   5.900  -0.088  15.920 -0.2628  0.3556  0.0754
   7523SM  C12S 9870   6.051  -0.020  15.792  0.1556  0.9179 -0.6800
   7523SM  H12S 9871   6.135  -0.092  15.792  0.0609  0.7851 -2.3446
   7523SM  H12T 9872   6.104   0.077  15.781  1.3526  0.4112  0.3215
   7523SM  C13S 9873   5.944  -0.044  15.678 -0.3584  0.2126 -0.2351
   7523SM  H13S 9874   5.885   0.049  15.662 -2.0999 -0.6950  0.6526
   7523SM  H13T 9875   5.877  -0.130  15.697 -0.0989 -0.0535 -0.5076
   7523SM  C14S 9876   6.020  -0.070  15.545  0.4725  0.9306 -0.7569
   7523SM  H14S 9877   6.093  -0.153  15.553  1.8786  2.2561  1.4625
   7523SM  H14T 9878   6.079   0.017  15.507  1.5819  0.3140 -0.5012
   7523SM  C15S 9879   5.911  -0.084  15.433 -0.4003  0.0227 -0.1593
   7523SM  H15S 9880   5.853   0.011  15.437 -0.1493  0.1979 -0.6508
   7523SM  H15T 9881   5.846  -0.169  15.463  1.5103 -0.6372  2.4156
   7523SM  C16S 9882   5.964  -0.111  15.293 -0.1324  0.6227  0.4708
   7523SM  H16S 9883   6.000  -0.022  15.237 -2.2257 -0.0269 -2.0847
   7523SM  H16T 9884   5.875  -0.147  15.236  0.5082 -1.7844  0.8728
   7523SM  C17S 9885   6.077  -0.228  15.276 -0.3444 -1.0710  0.2879
   7523SM  H17S 9886   6.041  -0.319  15.327  0.0091  0.5440  3.6911
   7523SM  H17T 9887   6.165  -0.187  15.329 -0.3992 -1.7566  0.9127
   7523SM  C18S 9888   6.110  -0.263  15.134 -0.2487 -0.1110  0.0279
   7523SM  H18S 9889   6.111  -0.173  15.070  0.3407 -1.3259 -1.7422
   7523SM  H18T 9890   6.033  -0.330  15.090 -1.7522  2.1207 -0.9245
   7523SM  H18U 9891   6.213  -0.303  15.124 -0.0275  0.3144  0.5193
   7523SM   C1F 9892   6.055   0.447  16.854 -0.6778 -0.3567 -0.1433
   7523SM    OF 9893   6.165   0.457  16.913  0.1891 -0.6446  0.6285
   7523SM   C2F 9894   5.984   0.563  16.784  0.5279  0.2028 -0.5482
   7523SM   H2F 9895   5.889   0.575  16.839  1.9763 -3.0523  3.1953
   7523SM   H2G 9896   5.943   0.528  16.687  0.5920  1.5572 -1.0869
   7523SM   C3F 9897   6.072   0.682  16.754 -0.4870  0.3550  0.1304
   7523SM   H3F 9898   6.169   0.658  16.705  0.6457  0.6955  2.1244
   7523SM   H3G 9899   6.093   0.731  16.851 -1.5062 -0.9859  1.0581
   7523SM   C4F 9900   6.002   0.791  16.671  0.2109 -0.1043  0.5627
   7523SM   H4F 9901   6.068   0.880  16.668  0.1307 -0.0226 -2.9774
   7523SM   H4G 9902   5.908   0.819  16.723  0.1321 -1.6341  1.3060
   7523SM   C5F 9903   5.976   0.756  16.530 -0.0816  0.1980  0.2248
   7523SM   H5F 9904   5.911   0.667  16.517 -0.5393  0.5339  0.2133
   7523SM   H5G 9905   6.079   0.728  16.498 -0.6350 -1.0893 -0.5293
   7523SM   C6F 9906   5.909   0.865  16.446 -0.1735 -0.0700  1.0692
   7523SM   H6F 9907   5.973   0.955  16.454 -1.2764  1.0043 -1.2396
   7523SM   H6G 9908   5.806   0.884  16.482 -1.0372  2.2587 -2.2229
   7523SM   C7F 9909   5.898   0.823  16.297  0.1799 -0.2391 -0.0451
   7523SM   H7F 9910   5.838   0.730  16.300 -0.3950  0.1035 -0.6955
   7523SM   H7G 9911   6.000   0.804  16.257  1.5631  0.7476  2.7409
   7523SM   C8F 9912   5.826   0.935  16.217 -0.3818 -0.3561 -1.1152
   7523SM   H8F 9913   5.886   1.029  16.225 -0.1442 -0.6294  0.5614
   7523SM   H8G 9914   5.732   0.964  16.267 -1.2606 -0.5527 -2.5873
   7523SM   C9F 9915   5.818   0.915  16.068  0.4028 -0.1862 -0.1418
   7523SM   H9F 9916   5.794   1.016  16.029  1.3013  1.2844  2.8097
   7523SM   H9G 9917   5.726   0.858  16.041  1.1677 -1.1950 -0.6557
   7523SM  C10F 9918   5.942   0.857  16.004 -0.1458 -0.4491 -0.6426
   7523SM  H10F 9919   5.975   0.755  16.036  1.9754  0.7949  1.4176
   7523SM  H10G 9920   6.033   0.909  16.039 -0.4873  1.1158 -1.9972
   7523SM  C11F 9921   5.938   0.863  15.851  0.2107 -0.1874 -0.5171
   7523SM  H11F 9922   5.901   0.964  15.825  1.7547  0.6478  0.3968
   7523SM  H11G 9923   5.863   0.791  15.811  1.7626 -1.5654 -1.0979
   7523SM  C12F 9924   6.071   0.845  15.767  0.9048  0.5917 -0.0849
   7523SM  H12F 9925   6.117   0.745  15.786 -0.5020 -0.1438 -0.3938
   7523SM  H12G 9926   6.136   0.926  15.805 -1.7425  2.0912  1.5879
   7523SM  C13F 9927   6.046   0.862  15.611 -0.0340 -0.6632 -0.6021
   7523SM  H13F 9928   6.024   0.970  15.596  1.4475 -0.1832  0.4748
   7523SM  H13G 9929   5.951   0.806  15.594 -0.0994 -0.5927 -0.4758
   7523SM  C14F 9930   6.153   0.819  15.519 -0.4229 -0.1100 -0.8692
   7523SM  H14F 9931   6.165   0.711  15.538  2.4659  0.5260  1.7199
   7523SM  H14G 9932   6.249   0.873  15.537  0.8995 -2.6952  0.4650
   7523SM  C15F 9933   6.106   0.843  15.379 -0.5536  0.2658  0.5947
   7523SM  H15F 9934   6.068   0.946  15.364 -2.7834 -0.7638 -1.7448
   7523SM  H15G 9935   6.019   0.773  15.380 -0.7305  0.4917  1.2890
   7523SM  C16F 9936   6.198   0.799  15.259 -0.6666 -0.5976 -0.7111
   7523SM  H16F 9937   6.256   0.707  15.286  0.4122  0.1003 -0.5824
   7523SM  H16G 9938   6.281   0.869  15.237 -0.1114 -1.6868 -2.2275
   7523SM  C17F 9939   6.111   0.776  15.135 -1.0982  0.0153  0.8952
   7523SM  H17F 9940   6.052   0.869  15.121 -1.4604 -0.5973 -2.3679
   7523SM  H17G 9941   6.053   0.682  15.150 -0.3366 -0.3390  1.7847
   7523SM  C18F 9942   6.182   0.757  14.995  0.1485 -0.0575 -0.2138
   7523SM  H18F 9943   6.234   0.659  14.993 -0.2855 -0.3686 -4.0398
   7523SM  H18G 9944   6.254   0.841  14.980 -2.1496  1.6799 -2.3813
   7523SM  C19F 9945   6.088   0.768  14.864  0.5143  0.0601  0.7120
   7523SM  H19F 9946   6.021   0.857  14.870 -0.4932 -0.3722 -2.3711
   7523SM  H19G 9947   6.016   0.684  14.873  1.3367 -0.5013  2.4650
   7523SM  C20F 9948   6.162   0.769  14.726 -0.6087  0.0424  0.2179
   7523SM  H20F 9949   6.229   0.680  14.722 -0.6928 -0.0198  0.1862
   7523SM  H20G 9950   6.230   0.856  14.717 -0.1258 -0.3543 -0.0263
   7523SM  C21F 9951   6.065   0.747  14.612 -0.0277 -0.1234 -0.7174
   7523SM  H21F 9952   5.993   0.675  14.658  0.0086 -0.7082 -1.5622
   7523SM  H21G 9953   6.117   0.701  14.526  0.7484 -0.7243  0.0507
   7523SM  C22F 9954   5.997   0.874  14.559 -0.3849  0.0534 -0.8809
   7523SM  H22F 9955   6.073   0.935  14.506 -0.1458  0.0660 -0.5266
   7523SM  H22G 9956   5.967   0.923  14.654 -0.2007  1.9414 -1.7450
   7523SM  C23F 9957   5.890   0.828  14.456  0.5048 -0.1274 -0.9698
   7523SM  H23F 9958   5.842   0.919  14.415 -0.4947 -0.8630 -1.4678
   7523SM  H23G 9959   5.814   0.767  14.508 -0.1174  0.5345 -1.0884
   7523SM  H23H 9960   5.930   0.774  14.367  0.0577  0.0554 -1.2835
   7623SM     N 9961   0.985   0.321  17.316 -0.3709  0.4753 -0.0867
   7623SM   C15 9962   0.881   0.295  17.211  1.0046 -0.1140  0.4327
   7623SM  H15A 9963   0.852   0.384  17.157 -2.2544 -1.1397  0.2889
   7623SM  H15B 9964   0.791   0.268  17.263  1.4368 -0.9717  0.7518
   7623SM  H15C 9965   0.912   0.221  17.139  2.3594  0.2572  0.5939
   7623SM   C14 9966   0.990   0.196  17.405 -0.5187 -0.1489  0.1878
   7623SM  H14A 9967   0.968   0.101  17.358  1.2234 -0.8510  0.6790
   7623SM  H14B 9968   0.922   0.209  17.487 -1.5281  0.7562 -0.7661
   7623SM  H14C 9969   1.086   0.196  17.456 -1.0730  1.1623  1.2764
   7623SM   C13 9970   1.114   0.323  17.239  0.4467 -0.0513 -0.2397
   7623SM  H13A 9971   1.205   0.314  17.298 -0.1663 -1.1765  0.5767
   7623SM  H13B 9972   1.121   0.417  17.187 -0.4761 -0.7684 -1.7166
   7623SM  H13C 9973   1.119   0.237  17.174  0.3641  0.1167 -0.4699
   7623SM   C12 9974   0.950   0.449  17.395 -0.6758  0.3724 -0.3014
   7623SM  H12A 9975   0.958   0.533  17.327 -1.3372  1.3568  0.8088
   7623SM  H12B 9976   1.019   0.471  17.475  0.2816 -1.4137 -0.5908
   7623SM   C11 9977   0.811   0.449  17.464  0.6895 -0.5227  0.7685
   7623SM  H11A 9978   0.748   0.456  17.373 -0.2844 -1.9162  1.3004
   7623SM  H11B 9979   0.805   0.541  17.526  1.1885 -1.6279  2.5146
   7623SM     P 9980   0.651   0.244  17.533 -0.0172 -0.1206  0.0141
   7623SM   O13 9981   0.694   0.108  17.563  0.6376 -0.1288 -0.0193
   7623SM   O14 9982   0.536   0.300  17.602 -0.7044 -0.1169 -0.4926
   7623SM   O11 9983   0.615   0.251  17.377 -0.2657  0.7358  0.0290
   7623SM   O12 9984   0.773   0.341  17.550 -0.2260 -0.2267  0.1654
   7623SM   C1S 9985   0.474   0.254  17.338 -0.3671  0.2764  0.4031
   7623SM   H1S 9986   0.418   0.331  17.395 -1.0775  0.1147 -0.0696
   7623SM   H1T 9987   0.425   0.160  17.371  0.3419 -0.4705 -0.5675
   7623SM    NF 9988   0.319   0.307  17.158 -0.0416  1.0300  0.4819
   7623SM   HNF 9989   0.267   0.232  17.118 -2.6165  2.7293  0.3974
   7623SM   C2S 9990   0.454   0.269  17.181  0.0127 -0.1989  0.0779
   7623SM   H2S 9991   0.522   0.353  17.157  0.7744 -1.0136 -0.7128
   7623SM   C3S 9992   0.509   0.138  17.118 -0.1500  0.4218 -0.2183
   7623SM   H3S 9993   0.446   0.055  17.157 -0.1483 -0.1303 -1.3424
   7623SM    O3 9994   0.640   0.100  17.159  0.6045 -0.2466  0.3189
   7623SM   HO3 9995   0.654   0.158  17.234 -0.8046 -0.9479  1.1764
   7623SM   C4S 9996   0.487   0.136  16.968 -0.0525 -0.0845  1.1727
   7623SM   H4S 9997   0.388   0.120  16.924  0.7577 -2.3225  0.0212
   7623SM   C5S 9998   0.585   0.163  16.882  0.1217  0.4531  0.3542
   7623SM   H5S 9999   0.685   0.195  16.914  0.2382  0.9626 -0.4928
   7623SM   C6S10000   0.576   0.161  16.723  0.4071  0.4250 -0.7124
   7623SM   H6S10001   0.663   0.108  16.678  0.9032 -0.4877  1.2282
   7623SM   H6T10002   0.589   0.266  16.689  3.8742  0.7345  1.1742
   7623SM   C7S10003   0.452   0.095  16.653 -0.1294 -0.3005  0.1265
   7623SM   H7S10004   0.365   0.163  16.660  1.3745  1.5417  2.6802
   7623SM   H7T10005   0.436  -0.001  16.707 -0.0679 -0.0712  0.5575
   7623SM   C8S10006   0.471   0.064  16.507  0.3788 -0.4058  0.1037
   7623SM   H8S10007   0.383   0.004  16.474  0.7353 -0.5053 -0.6760
   7623SM   H8T10008   0.549  -0.008  16.475  1.7431  0.6593  0.9572
   7623SM   C9S10009   0.492   0.193  16.421  0.2758  0.1336 -0.1632
   7623SM   H9S10010   0.592   0.231  16.450  0.9959 -1.1292 -0.9111
   7623SM   H9T10011   0.417   0.269  16.451  2.4038  1.4606  2.1850
   7623SM  C10S10012   0.496   0.170  16.269 -1.2992  0.0712  0.0336
   7623SM  H10S10013   0.529   0.065  16.251  0.3273  0.6174 -0.3687
   7623SM  H10T10014   0.579   0.232  16.227 -1.6821 -0.3163 -1.3512
   7623SM  C11S10015   0.364   0.203  16.188 -0.1001 -0.3315 -0.4665
   7623SM  H11S10016   0.348   0.313  16.195  1.2118 -0.2216  1.3455
   7623SM  H11T10017   0.292   0.138  16.243 -0.6138  0.7844  0.2198
   7623SM  C12S10018   0.368   0.168  16.039  0.0849 -0.3638  0.0898
   7623SM  H12S10019   0.450   0.229  15.995 -1.1766  0.4147 -1.2719
   7623SM  H12T10020   0.276   0.202  15.989  0.7435 -0.0051 -0.9082
   7623SM  C13S10021   0.388   0.018  16.002  0.2844 -0.4279 -0.3961
   7623SM  H13S10022   0.297  -0.036  16.035 -1.5504  0.8701 -3.0102
   7623SM  H13T10023   0.477  -0.015  16.060 -0.4720  1.1032  1.7753
   7623SM  C14S10024   0.408  -0.000  15.859  0.5377 -0.3400 -1.2291
   7623SM  H14S10025   0.459  -0.099  15.854 -1.4482 -1.4877 -0.2521
   7623SM  H14T10026   0.481   0.073  15.820  0.4408  0.1218 -0.5535
   7623SM  C15S10027   0.279   0.007  15.772  0.2844 -0.2743 -0.3803
   7623SM  H15S10028   0.231   0.105  15.792 -0.3593 -0.5171 -0.7097
   7623SM  H15T10029   0.212  -0.070  15.817  0.3444 -1.1277 -1.6799
   7623SM  C16S10030   0.299  -0.032  15.629  0.5417 -0.7496  0.5595
   7623SM  H16S10031   0.202  -0.064  15.587  0.3606 -0.2509  0.5895
   7623SM  H16T10032   0.365  -0.121  15.624  1.4016 -0.0944 -0.1564
   7623SM  C17S10033   0.345   0.093  15.547 -0.1185  0.3067  0.7696
   7623SM  H17S10034   0.446   0.109  15.592 -0.1932  0.2622  0.9530
   7623SM  H17T10035   0.284   0.186  15.542 -0.3974  0.0903  0.1596
   7623SM  C18S10036   0.368   0.060  15.397  0.1218 -0.3651 -0.3059
   7623SM  H18S10037   0.420   0.140  15.341 -2.1415  1.4665  0.0891
   7623SM  H18T10038   0.263   0.051  15.362  0.2008  0.7772 -0.8634
   7623SM  H18U10039   0.424  -0.036  15.385  0.0434 -0.2602 -1.7035
   7623SM   C1F10040   0.265   0.422  17.196 -0.0949 -0.2893  0.8263
   7623SM    OF10041   0.339   0.508  17.248  0.3790 -0.2527  0.1705
   7623SM   C2F10042   0.113   0.431  17.181 -0.3623  0.6830  1.0018
   7623SM   H2F10043   0.073   0.450  17.282  0.5359 -0.2320  1.5495
   7623SM   H2G10044   0.079   0.330  17.148 -1.1973  0.9761  0.9410
   7623SM   C3F10045   0.071   0.535  17.072  0.3494  0.1534  0.2437
   7623SM   H3F10046   0.115   0.632  17.106  0.8609 -0.2766  0.8427
   7623SM   H3G10047  -0.039   0.545  17.068  0.3559 -0.2346 -1.5493
   7623SM   C4F10048   0.122   0.498  16.931  0.2586 -0.6980  0.4073
   7623SM   H4F10049   0.232   0.486  16.929  0.2900 -0.3520 -0.3058
   7623SM   H4G10050   0.107   0.587  16.867  1.1027 -0.1590  0.9499
   7623SM   C5F10051   0.043   0.385  16.864  0.6542  0.2192 -0.3384
   7623SM   H5F10052  -0.062   0.423  16.865  0.9426  1.1894  2.7490
   7623SM   H5G10053   0.044   0.290  16.921 -0.2604  1.4436  1.8435
   7623SM   C6F10054   0.081   0.345  16.723  0.0533 -1.1738 -0.2010
   7623SM   H6F10055   0.000   0.274  16.694 -1.4853 -0.4522  2.0152
   7623SM   H6G10056   0.175   0.288  16.734  2.0652  2.2882  2.5405
   7623SM   C7F10057   0.086   0.459  16.618 -0.2519 -0.1143 -0.4084
   7623SM   H7F10058   0.189   0.500  16.615 -0.0819 -0.5500 -0.4932
   7623SM   H7G10059   0.022   0.544  16.651 -0.6866 -0.6741  0.2192
   7623SM   C8F10060   0.054   0.414  16.476  0.7010  0.1731 -0.2348
   7623SM   H8F10061  -0.050   0.373  16.482  0.5906  0.4711 -0.0695
   7623SM   H8G10062   0.121   0.331  16.446  1.5111  1.0382 -0.8601
   7623SM   C9F10063   0.055   0.519  16.369  0.7988 -0.5583  0.7711
   7623SM   H9F10064   0.161   0.537  16.342  0.4559 -2.3189 -2.2198
   7623SM   H9G10065   0.011   0.618  16.396 -0.9298 -1.3769  1.0521
   7623SM  C10F10066  -0.013   0.461  16.238 -0.3511 -0.4817 -0.0120
   7623SM  H10F10067  -0.119   0.482  16.262 -0.1361  0.3024  0.3257
   7623SM  H10G10068  -0.008   0.351  16.243  1.7603 -0.4309 -0.0676
   7623SM  C11F10069   0.041   0.506  16.108  0.2796  0.1847  0.0743
   7623SM  H11F10070   0.143   0.463  16.100  0.1993  0.2903 -2.1418
   7623SM  H11G10071   0.028   0.616  16.099  0.4492  0.1187 -1.2909
   7623SM  C12F10072  -0.027   0.445  15.983 -0.6867 -0.5712 -0.1062
   7623SM  H12F10073  -0.135   0.457  16.004 -0.3703 -0.9030  1.8919
   7623SM  H12G10074  -0.007   0.336  15.974  0.2413 -0.3889 -0.3666
   7623SM  C13F10075   0.011   0.511  15.851  0.1069  0.1200 -0.5148
   7623SM  H13F10076   0.009   0.622  15.859 -2.1803 -0.0348  2.3631
   7623SM  H13G10077  -0.059   0.491  15.767  3.3089 -0.1241 -3.3611
   7623SM  C14F10078   0.152   0.469  15.817 -0.1926  0.0374  0.3574
   7623SM  H14F10079   0.191   0.382  15.874  2.2148 -0.0763 -1.3218
   7623SM  H14G10080   0.223   0.553  15.825  0.5376 -0.5609  0.2319
   7623SM  C15F10081   0.164   0.418  15.675 -0.2174  0.5820  0.6723
   7623SM  H15F10082   0.100   0.327  15.668  3.1924 -2.3761  3.4713
   7623SM  H15G10083   0.269   0.382  15.660 -0.7036  0.1500 -2.3023
   7623SM  C16F10084   0.133   0.515  15.560  0.0697  0.3134 -0.0451
   7623SM  H16F10085   0.150   0.619  15.596 -0.7769  0.0061  1.3058
   7623SM  H16G10086   0.023   0.508  15.546  0.1778 -1.0243 -0.3216
   7623SM  C17F10087   0.208   0.478  15.427  0.0688 -0.4025 -0.0064
   7623SM  H17F10088   0.304   0.429  15.452  0.6973 -0.0421 -1.6041
   7623SM  H17G10089   0.235   0.567  15.366 -1.3025  0.2969  0.3710
   7623SM  C18F10090   0.132   0.395  15.327  0.8564  0.3521  0.3828
   7623SM  H18F10091   0.044   0.456  15.298 -1.2933 -2.9398 -0.6359
   7623SM  H18G10092   0.098   0.307  15.386  0.7027 -0.9217 -1.5071
   7623SM  C19F10093   0.210   0.351  15.200 -0.0108  0.6862 -0.1445
   7623SM  H19F10094   0.154   0.263  15.162  1.0572 -0.7606  1.4689
   7623SM  H19G10095   0.312   0.322  15.235 -0.2245 -1.7404 -1.3054
   7623SM  C20F10096   0.229   0.462  15.097  0.1542 -0.1939  0.2346
   7623SM  H20F10097   0.287   0.423  15.010  1.8416 -0.8864  1.6107
   7623SM  H20G10098   0.287   0.551  15.131 -0.3834  1.1271 -2.0624
   7623SM  C21F10099   0.097   0.526  15.044 -0.1943 -0.0134 -0.5183
   7623SM  H21F10100   0.053   0.593  15.121  1.7181 -0.0572  0.6744
   7623SM  H21G10101   0.019   0.459  15.001  0.5644 -0.9430 -0.4753
   7623SM  C22F10102   0.122   0.620  14.928  0.4546 -0.3770 -0.1144
   7623SM  H22F10103   0.019   0.656  14.904 -0.5202 -2.1984  1.1177
   7623SM  H22G10104   0.169   0.568  14.842  0.5942  1.0210 -0.9075
   7623SM  C23F10105   0.222   0.740  14.943  0.3873 -0.2009 -0.0668
   7623SM  H23F10106   0.167   0.827  14.985  2.0056  1.3978 -1.1243
   7623SM  H23G10107   0.263   0.759  14.842 -1.8547 -1.5076 -1.3107
   7623SM  H23H10108   0.301   0.712  15.016  0.1909 -1.4960 -0.3113
   7723SM     N10109   0.091   3.486  18.237  0.0945 -0.0736  0.3065
   7723SM   C1510110   0.220   3.532  18.185 -0.0609 -0.0448 -0.3805
   7723SM  H15A10111   0.200   3.561  18.083 -0.4008  0.7492 -0.1002
   7723SM  H15B10112   0.292   3.452  18.181 -1.1248 -1.0101 -1.0962
   7723SM  H15C10113   0.259   3.614  18.243  0.9874 -2.5809  2.8470
   7723SM   C1410114   0.111   3.442  18.385  0.0920 -0.2516 -0.2422
   7723SM  H14A10115   0.126   3.522  18.456  2.4036 -1.8371  1.1682
   7723SM  H14B10116   0.195   3.374  18.392  1.2427  1.3233  2.7942
   7723SM  H14C10117   0.028   3.391  18.432 -0.1674  0.3796 -0.0075
   7723SM   C1310118  -0.007   3.600  18.223  0.2875  0.5335  0.0208
   7723SM  H13A10119  -0.030   3.619  18.119 -0.7353 -2.7711 -0.5008
   7723SM  H13B10120   0.037   3.689  18.264  0.4370  0.9022 -0.9108
   7723SM  H13C10121  -0.098   3.582  18.278 -0.1755  1.1272 -0.5401
   7723SM   C1210122   0.046   3.368  18.159 -0.7922 -0.5639 -0.7222
   7723SM  H12A10123  -0.051   3.346  18.201 -0.2936 -1.4673  0.0031
   7723SM  H12B10124   0.104   3.278  18.177 -1.1923 -0.7277 -0.2189
   7723SM   C1110125   0.036   3.375  18.007 -0.0950  0.2747  0.3355
   7723SM  H11A10126  -0.032   3.453  17.967 -1.6693 -1.2857 -0.1736
   7723SM  H11B10127  -0.010   3.285  17.961  0.6293  0.2801 -0.4298
   7723SM     P10128   0.249   3.268  17.907 -0.4303 -0.1120 -0.0832
   7723SM   O1310129   0.384   3.312  17.870  0.5636  0.2369 -0.3356
   7723SM   O1410130   0.234   3.158  18.009  0.2487  0.0841 -0.3896
   7723SM   O1110131   0.166   3.230  17.779 -0.4176 -0.0715 -0.0725
   7723SM   O1210132   0.162   3.393  17.945 -0.3608 -0.3535  0.1673
   7723SM   C1S10133   0.122   3.311  17.667 -0.9004  0.1651 -0.6496
   7723SM   H1S10134   0.100   3.414  17.704  1.7328  0.3970  0.5128
   7723SM   H1T10135   0.033   3.261  17.624 -0.0345 -1.2590 -0.8511
   7723SM    NF10136   0.184   3.427  17.454  0.4279  0.0915 -0.0064
   7723SM   HNF10137   0.129   3.419  17.371 -0.7589  1.5878  0.5740
   7723SM   C2S10138   0.214   3.313  17.543  0.0526 -0.4578  0.3014
   7723SM   H2S10139   0.318   3.330  17.577  0.8941 -0.0891 -2.2942
   7723SM   C3S10140   0.218   3.174  17.479 -0.0496  0.1227  0.1110
   7723SM   H3S10141   0.117   3.158  17.435  0.5249  0.3516 -1.3427
   7723SM    O310142   0.245   3.070  17.572 -0.9922  0.4418 -0.8963
   7723SM   HO310143   0.260   3.116  17.655 -2.5527  0.5041 -0.6269
   7723SM   C4S10144   0.321   3.161  17.365 -0.1795  0.7434  0.6689
   7723SM   H4S10145   0.423   3.182  17.401 -0.3814  0.8540  1.1980
   7723SM   C5S10146   0.299   3.140  17.230 -0.4959 -0.5663 -0.2374
   7723SM   H5S10147   0.195   3.137  17.193 -0.3449  1.3147 -0.9725
   7723SM   C6S10148   0.399   3.145  17.118  0.3000  0.2201 -0.3385
   7723SM   H6S10149   0.372   3.063  17.048 -1.2420  0.5838 -0.2041
   7723SM   H6T10150   0.497   3.113  17.159 -0.0141 -2.6463 -1.6094
   7723SM   C7S10151   0.401   3.267  17.020 -0.7277 -0.8223 -0.2348
   7723SM   H7S10152   0.452   3.358  17.059  0.0230 -2.1030  1.9611
   7723SM   H7T10153   0.293   3.293  17.015 -0.4167  0.3705 -1.6412
   7723SM   C8S10154   0.442   3.237  16.877  0.0477  1.3440 -0.6696
   7723SM   H8S10155   0.393   3.147  16.835  0.7357  0.9804 -0.7017
   7723SM   H8T10156   0.550   3.210  16.880 -0.5637 -1.4150 -0.8527
   7723SM   C9S10157   0.427   3.355  16.779  0.0079  0.0660  0.3943
   7723SM   H9S10158   0.507   3.427  16.805  1.4257 -0.8599 -1.2445
   7723SM   H9T10159   0.329   3.405  16.794  0.7462  1.6305  0.2145
   7723SM  C10S10160   0.432   3.313  16.637  0.1195  0.2409 -0.1320
   7723SM  H10S10161   0.366   3.226  16.617  0.3907 -0.3068  1.2584
   7723SM  H10T10162   0.533   3.279  16.608 -0.3051 -1.1561 -0.0117
   7723SM  C11S10163   0.395   3.428  16.545  0.2503  0.2173 -0.3141
   7723SM  H11S10164   0.429   3.526  16.586  1.4401 -0.5775  0.6562
   7723SM  H11T10165   0.284   3.433  16.542  0.1838 -1.4054 -1.9535
   7723SM  C12S10166   0.458   3.428  16.403 -0.7611 -0.5516 -0.6033
   7723SM  H12S10167   0.452   3.327  16.358  0.9932 -1.2348  0.5806
   7723SM  H12T10168   0.563   3.441  16.438 -1.0262 -0.9705  0.3721
   7723SM  C13S10169   0.426   3.543  16.306  0.4006 -0.1196 -0.4813
   7723SM  H13S10170   0.430   3.642  16.356  1.6786 -0.2773 -0.2400
   7723SM  H13T10171   0.320   3.531  16.273  1.3108 -0.7329 -3.4687
   7723SM  C14S10172   0.507   3.559  16.178  0.1477 -0.0196 -0.0234
   7723SM  H14S10173   0.511   3.456  16.135  0.1617 -0.4214  0.9044
   7723SM  H14T10174   0.615   3.582  16.186  0.3670 -1.5553  2.8973
   7723SM  C15S10175   0.443   3.659  16.083 -0.4837  0.8191  0.1938
   7723SM  H15S10176   0.446   3.761  16.128 -0.8625  1.7929 -1.8984
   7723SM  H15T10177   0.334   3.638  16.070 -0.6619  1.8042  0.0215
   7723SM  C16S10178   0.497   3.664  15.942 -0.5769 -0.0830 -0.3994
   7723SM  H16S10179   0.605   3.689  15.930 -1.3548  4.2890  0.0471
   7723SM  H16T10180   0.436   3.737  15.884 -1.6799  0.0833  0.9225
   7723SM  C17S10181   0.468   3.534  15.857  0.4502  0.1219 -0.1644
   7723SM  H17S10182   0.358   3.523  15.847  0.5248 -1.4430  0.3568
   7723SM  H17T10183   0.497   3.442  15.913 -1.3046 -0.1252  0.4028
   7723SM  C18S10184   0.517   3.546  15.710 -0.1640  0.2724  0.2851
   7723SM  H18S10185   0.516   3.448  15.658  0.8788  0.9703 -1.1214
   7723SM  H18T10186   0.624   3.576  15.716 -0.5552  1.6409  0.9116
   7723SM  H18U10187   0.461   3.624  15.654 -0.6068 -1.2275 -1.4371
   7723SM   C1F10188   0.208   3.554  17.492 -0.1456 -0.0347 -0.3096
   7723SM    OF10189   0.285   3.561  17.587 -0.1669 -0.3622  0.0701
   7723SM   C2F10190   0.148   3.678  17.425 -0.1853 -0.0480  0.7902
   7723SM   H2F10191   0.077   3.737  17.486  0.3643  1.0155  0.4220
   7723SM   H2G10192   0.086   3.644  17.339 -1.1656 -0.9216  1.8133
   7723SM   C3F10193   0.267   3.775  17.389  0.2518  0.8275 -0.5169
   7723SM   H3F10194   0.298   3.823  17.484 -0.5327 -0.8012  0.6206
   7723SM   H3G10195   0.216   3.848  17.322 -0.2222  1.0289  0.0543
   7723SM   C4F10196   0.385   3.708  17.309 -0.0190  0.4533 -0.2247
   7723SM   H4F10197   0.434   3.634  17.375 -0.2069  0.7634  0.2687
   7723SM   H4G10198   0.460   3.787  17.285  0.2811 -0.1427 -1.3367
   7723SM   C5F10199   0.347   3.628  17.180 -0.2764  0.3738 -0.4932
   7723SM   H5F10200   0.308   3.531  17.218 -1.4570  0.8713 -0.3738
   7723SM   H5G10201   0.440   3.608  17.124  1.1827 -0.4113  2.0730
   7723SM   C6F10202   0.242   3.697  17.093  0.3067  0.0994 -0.3343
   7723SM   H6F10203   0.265   3.806  17.094 -3.4633  1.0635  1.5070
   7723SM   H6G10204   0.140   3.697  17.137 -0.5981 -0.6927 -2.3380
   7723SM   C7F10205   0.246   3.648  16.944 -0.5412 -0.4139 -0.2110
   7723SM   H7F10206   0.258   3.538  16.942  0.3147 -0.4824  3.3621
   7723SM   H7G10207   0.342   3.689  16.905 -1.2622  2.5273  0.8728
   7723SM   C8F10208   0.145   3.702  16.849  0.2553  0.1170 -0.2099
   7723SM   H8F10209   0.150   3.812  16.858  3.1958 -0.0093  1.1193
   7723SM   H8G10210   0.048   3.666  16.890  1.2041 -2.3916  0.0457
   7723SM   C9F10211   0.172   3.672  16.697  0.1650  0.4967 -0.6726
   7723SM   H9F10212   0.171   3.561  16.688  0.8415  0.3692  0.6377
   7723SM   H9G10213   0.274   3.706  16.672  0.0589  1.4231  0.1292
   7723SM  C10F10214   0.068   3.742  16.606  0.0601 -0.3248 -0.0428
   7723SM  H10F10215   0.068   3.852  16.615 -1.1796 -0.3382  0.3247
   7723SM  H10G10216  -0.033   3.717  16.645  0.3977  0.3004  1.3007
   7723SM  C11F10217   0.093   3.704  16.456 -0.1070  0.3228  1.0016
   7723SM  H11F10218   0.075   3.596  16.432 -0.6132  0.5741  0.2172
   7723SM  H11G10219   0.195   3.732  16.423 -1.9394  1.7344 -4.5931
   7723SM  C12F10220   0.003   3.768  16.352 -0.2711 -0.3929  0.8053
   7723SM  H12F10221   0.025   3.876  16.370  4.4219 -0.7909 -1.1438
   7723SM  H12G10222  -0.104   3.739  16.359 -0.7144  1.0233  0.2845
   7723SM  C13F10223   0.044   3.749  16.202  0.6974  0.5327  0.0684
   7723SM  H13F10224   0.025   3.642  16.177 -0.3017  0.9109 -0.8863
   7723SM  H13G10225   0.148   3.771  16.172  0.8834  0.5302  0.6913
   7723SM  C14F10226  -0.061   3.804  16.101 -0.0259  0.0620  0.2350
   7723SM  H14F10227  -0.057   3.915  16.105 -3.2312  0.3333 -1.3899
   7723SM  H14G10228  -0.163   3.766  16.124 -1.1775  2.0028 -1.3548
   7723SM  C15F10229  -0.033   3.759  15.953 -0.4748 -0.1261 -0.8992
   7723SM  H15F10230  -0.045   3.649  15.959 -0.6236 -0.0593  0.2285
   7723SM  H15G10231   0.075   3.783  15.941 -0.5100  2.7586  2.7895
   7723SM  C16F10232  -0.127   3.815  15.850  0.6385  0.0949  0.2207
   7723SM  H16F10233  -0.107   3.925  15.849 -0.0447  0.2552  1.4648
   7723SM  H16G10234  -0.230   3.794  15.886  1.4290 -1.6610  1.5859
   7723SM  C17F10235  -0.112   3.767  15.711 -0.0850  0.7146  0.1012
   7723SM  H17F10236  -0.181   3.824  15.644  0.7672  2.1635  0.4040
   7723SM  H17G10237  -0.121   3.657  15.704  2.1363  0.4833  0.2450
   7723SM  C18F10238   0.036   3.804  15.654  0.4997  0.0844  0.4381
   7723SM  H18F10239   0.094   3.739  15.723  0.0955 -0.8981 -0.1283
   7723SM  H18G10240   0.059   3.913  15.659 -0.4463  0.4605 -2.0246
   7723SM  C19F10241   0.045   3.763  15.512  0.0321  0.0471 -0.3252
   7723SM  H19F10242   0.012   3.836  15.434  2.4828 -1.2642 -2.7305
   7723SM  H19G10243  -0.016   3.670  15.509 -1.9951  1.2866  0.3163
   7723SM  C20F10244   0.189   3.730  15.483  0.2198  0.5658  0.0774
   7723SM  H20F10245   0.201   3.653  15.404  1.0589  0.2473  0.5100
   7723SM  H20G10246   0.223   3.698  15.584 -1.0502 -0.0644  0.3284
   7723SM  C21F10247   0.273   3.850  15.442  0.1031  0.2554 -0.3491
   7723SM  H21F10248   0.276   3.929  15.521  1.9223  0.9687 -1.0867
   7723SM  H21G10249   0.233   3.905  15.354  2.4335  1.7427 -0.5410
   7723SM  C22F10250   0.420   3.802  15.422  0.5860 -0.1145 -0.3446
   7723SM  H22F10251   0.430   3.704  15.371 -1.4649 -1.5593  1.8336
   7723SM  H22G10252   0.460   3.771  15.521 -1.0784 -0.0387  0.3769
   7723SM  C23F10253   0.497   3.903  15.343 -0.1013 -0.0525  0.7019
   7723SM  H23F10254   0.494   4.003  15.391 -1.4564 -1.5678  4.1883
   7723SM  H23G10255   0.471   3.921  15.237 -0.0642 -0.9481  0.5314
   7723SM  H23H10256   0.597   3.854  15.348 -0.4726 -0.7752  1.5878
   7823SM     N10257   1.379   1.535  17.517 -0.3023 -0.3814 -0.7293
   7823SM   C1510258   1.290   1.650  17.513 -0.3739  0.9109  0.1911
   7823SM  H15A10259   1.184   1.626  17.513 -0.6922  2.2247  0.0027
   7823SM  H15B10260   1.301   1.709  17.423  0.0278  1.7841  0.7979
   7823SM  H15C10261   1.309   1.722  17.591 -1.1771  1.9393 -0.5227
   7823SM   C1410262   1.517   1.590  17.534 -0.4211  0.2416  0.0512
   7823SM  H14A10263   1.546   1.664  17.461 -2.6442 -0.3939 -1.5995
   7823SM  H14B10264   1.596   1.516  17.533  0.8209  1.5299 -0.5667
   7823SM  H14C10265   1.526   1.628  17.634  0.1224  2.2060 -0.7105
   7823SM   C1310266   1.346   1.445  17.632 -0.3674 -0.1057  0.1154
   7823SM  H13A10267   1.345   1.495  17.728 -1.2803 -2.6240  1.4888
   7823SM  H13B10268   1.394   1.349  17.634 -1.9069 -0.9034  0.5181
   7823SM  H13C10269   1.244   1.421  17.607  0.5564 -3.0282 -1.3079
   7823SM   C1210270   1.367   1.456  17.389  0.9904  0.2380 -0.5680
   7823SM  H12A10271   1.440   1.377  17.384  0.2023 -0.7012  1.8014
   7823SM  H12B10272   1.392   1.524  17.309  0.9527 -1.2361 -1.8909
   7823SM   C1110273   1.231   1.399  17.356 -0.4489  0.9829  0.7317
   7823SM  H11A10274   1.223   1.373  17.249 -0.4389  0.8232  0.7699
   7823SM  H11B10275   1.145   1.468  17.370 -0.4401  1.2590 -0.5249
   7823SM     P10276   1.262   1.141  17.407  0.0664 -0.0041 -0.1871
   7823SM   O1310277   1.409   1.144  17.394  0.1262 -0.1428  0.3181
   7823SM   O1410278   1.206   1.037  17.499  0.6504 -0.0745 -0.5271
   7823SM   O1110279   1.205   1.107  17.264 -0.4014 -0.8245 -0.0546
   7823SM   O1210280   1.204   1.287  17.437  0.8853 -0.0405 -0.7014
   7823SM   C1S10281   1.060   1.107  17.254  0.3185 -0.7561  0.4744
   7823SM   H1S10282   1.002   1.173  17.323  1.1399  0.2551  0.2213
   7823SM   H1T10283   1.028   1.005  17.284 -0.6006 -0.4364  0.6309
   7823SM    NF10284   0.880   1.164  17.100  0.9097  0.4018 -0.6182
   7823SM   HNF10285   0.823   1.088  17.130  2.2574 -0.0378  1.0381
   7823SM   C2S10286   1.025   1.134  17.102  0.2673  0.1729 -0.2500
   7823SM   H2S10287   1.073   1.224  17.059  1.8800  0.9208  2.8154
   7823SM   C3S10288   1.053   1.007  17.027 -0.1509 -0.3362  0.0133
   7823SM   H3S10289   1.005   0.925  17.085 -1.7367  0.7144  0.2631
   7823SM    O310290   1.186   0.962  17.012  0.1218 -0.2852 -0.1340
   7823SM   HO310291   1.240   1.022  17.065 -0.8916 -0.7163  1.4429
   7823SM   C4S10292   0.999   1.016  16.885  0.5934  0.0073 -0.1589
   7823SM   H4S10293   0.931   0.934  16.861  0.6473 -0.6302  1.7061
   7823SM   C5S10294   1.028   1.112  16.794 -0.3978 -0.1058 -0.3271
   7823SM   H5S10295   1.088   1.200  16.823  0.5671 -0.7181 -0.4374
   7823SM   C6S10296   0.957   1.123  16.663  0.2454  0.4618 -0.3336
   7823SM   H6S10297   0.892   1.213  16.653  0.1948  0.4135 -0.4412
   7823SM   H6T10298   0.893   1.034  16.646  0.1504  0.5222 -0.2949
   7823SM   C7S10299   1.060   1.138  16.549  0.2497  0.1457  0.0268
   7823SM   H7S10300   1.115   1.041  16.551  0.5804  0.3384  1.4227
   7823SM   H7T10301   1.139   1.213  16.569  0.6508 -0.1055 -0.5906
   7823SM   C8S10302   0.998   1.164  16.413  0.4492 -0.0667  0.0106
   7823SM   H8S10303   0.898   1.117  16.402  0.2326  0.6286 -1.1709
   7823SM   H8T10304   1.065   1.123  16.336  0.2335  1.0055 -0.7727
   7823SM   C9S10305   0.985   1.306  16.370 -0.4433  0.4436  0.3728
   7823SM   H9S10306   1.075   1.363  16.403  1.9452 -2.8797  0.0595
   7823SM   H9T10307   0.906   1.365  16.421  0.3614  1.5995  0.3337
   7823SM  C10S10308   0.953   1.317  16.219 -0.3418 -0.4047 -0.0522
   7823SM  H10S10309   0.863   1.256  16.196 -0.0255  0.2815 -3.6594
   7823SM  H10T10310   1.031   1.272  16.154 -1.1302 -1.1933 -0.4776
   7823SM  C11S10311   0.917   1.462  16.175 -0.0679  0.1221 -0.4035
   7823SM  H11S10312   0.985   1.525  16.235  0.7244 -1.2619  0.2167
   7823SM  H11T10313   0.809   1.486  16.178 -0.3711 -0.9186 -1.8219
   7823SM  C12S10314   0.960   1.480  16.026 -0.0645 -0.4284  0.4933
   7823SM  H12S10315   0.904   1.402  15.970 -0.4933 -0.6666  1.2355
   7823SM  H12T10316   1.069   1.458  16.026 -0.0094 -0.3612 -1.9213
   7823SM  C13S10317   0.925   1.619  15.970  0.8765 -0.1574 -0.2661
   7823SM  H13S10318   0.973   1.698  16.031 -0.2025  0.1212  0.2449
   7823SM  H13T10319   0.818   1.631  15.996  1.2916 -0.0054  1.4756
   7823SM  C14S10320   0.964   1.635  15.828  0.2975  0.0926 -0.0912
   7823SM  H14S10321   0.888   1.584  15.765 -1.0438  1.3874  0.4030
   7823SM  H14T10322   1.065   1.594  15.808 -0.6006 -1.8683 -0.9484
   7823SM  C15S10323   0.972   1.778  15.789 -0.0658 -0.5827  0.0666
   7823SM  H15S10324   1.065   1.821  15.833  0.1300  2.6606 -3.0235
   7823SM  H15T10325   0.894   1.847  15.827  1.6276  2.5447 -1.6608
   7823SM  C16S10326   0.979   1.800  15.639  0.5345  0.0610  0.5601
   7823SM  H16S10327   1.062   1.740  15.595  1.9622  3.1643 -1.2960
   7823SM  H16T10328   1.018   1.901  15.615  0.0594 -0.3960 -2.4959
   7823SM  C17S10329   0.843   1.779  15.571  0.6749 -0.0801  0.0811
   7823SM  H17S10330   0.762   1.826  15.631 -0.2167 -1.0479 -0.3391
   7823SM  H17T10331   0.826   1.670  15.564  0.2237 -0.1441  1.7357
   7823SM  C18S10332   0.853   1.823  15.427  0.3192 -0.8064 -0.0067
   7823SM  H18S10333   0.943   1.777  15.381  0.4143 -1.0951  0.4622
   7823SM  H18T10334   0.864   1.934  15.419 -1.3222 -0.6354 -0.1170
   7823SM  H18U10335   0.768   1.782  15.368  1.1065  0.8549 -2.4539
   7823SM   C1F10336   0.841   1.290  17.125  0.0259  0.4078 -0.3240
   7823SM    OF10337   0.919   1.386  17.124 -0.3327 -0.0962 -0.0059
   7823SM   C2F10338   0.702   1.311  17.183 -0.1710 -0.1470 -0.3554
   7823SM   H2F10339   0.710   1.339  17.290 -0.3697  0.3071 -0.4587
   7823SM   H2G10340   0.655   1.210  17.180  1.4642 -0.9316 -1.0520
   7823SM   C3F10341   0.619   1.419  17.103  0.3386  0.0502  0.1475
   7823SM   H3F10342   0.684   1.509  17.109 -0.7378  0.8379  0.3028
   7823SM   H3G10343   0.527   1.438  17.162 -0.4052 -0.3585 -0.8543
   7823SM   C4F10344   0.574   1.389  16.957  0.3165  0.2326  0.1900
   7823SM   H4F10345   0.667   1.384  16.896  0.1228 -0.2084 -0.0794
   7823SM   H4G10346   0.525   1.482  16.923 -2.5873 -0.9680  0.7581
   7823SM   C5F10347   0.490   1.255  16.938  0.4454 -0.8538 -0.0940
   7823SM   H5F10348   0.395   1.283  16.988  0.3634  0.3532 -0.8764
   7823SM   H5G10349   0.535   1.175  17.001  1.5945 -1.0896 -1.1521
   7823SM   C6F10350   0.467   1.232  16.786 -0.0499 -0.5991  0.4666
   7823SM   H6F10351   0.473   1.328  16.731  2.1307 -0.1683  1.3517
   7823SM   H6G10352   0.370   1.178  16.774 -1.1464  1.0718  1.4018
   7823SM   C7F10353   0.583   1.160  16.717  0.1503  0.1158 -0.0169
   7823SM   H7F10354   0.577   1.061  16.768 -0.2814  0.9189  1.5414
   7823SM   H7G10355   0.678   1.199  16.759 -1.1491  1.4797  1.8341
   7823SM   C8F10356   0.563   1.141  16.569  0.0269  0.3312 -0.1762
   7823SM   H8F10357   0.475   1.075  16.551  0.0219 -0.7376  3.1174
   7823SM   H8G10358   0.659   1.089  16.551 -0.5588 -1.4843  1.5827
   7823SM   C9F10359   0.555   1.266  16.484  0.2387  0.4292 -0.0478
   7823SM   H9F10360   0.632   1.343  16.508  0.5730  0.1981 -0.3677
   7823SM   H9G10361   0.453   1.304  16.504 -0.8701 -2.4440  0.2065
   7823SM  C10F10362   0.571   1.230  16.331  0.2206 -0.0808  0.2995
   7823SM  H10F10363   0.483   1.167  16.305 -0.5662  0.6695  1.0741
   7823SM  H10G10364   0.666   1.174  16.318  1.0729  1.2350  0.7051
   7823SM  C11F10365   0.558   1.360  16.249  0.0518 -0.5011  0.4935
   7823SM  H11F10366   0.650   1.415  16.278 -0.1666  0.5098 -0.6767
   7823SM  H11G10367   0.469   1.419  16.279  2.9044  2.6019  3.8614
   7823SM  C12F10368   0.555   1.336  16.098  0.4491  0.4877 -0.0636
   7823SM  H12F10369   0.464   1.275  16.082 -0.4204  2.0417 -1.3676
   7823SM  H12G10370   0.645   1.281  16.063 -0.3857 -0.7291 -0.3443
   7823SM  C13F10371   0.564   1.466  16.020  0.0269 -0.4751  0.9857
   7823SM  H13F10372   0.670   1.497  16.017 -0.3401  0.9798  2.0533
   7823SM  H13G10373   0.503   1.544  16.071 -1.3504  1.7787 -3.5247
   7823SM  C14F10374   0.506   1.463  15.884  0.2559 -0.4761 -0.1203
   7823SM  H14F10375   0.398   1.439  15.894 -0.1627  1.3895  0.1013
   7823SM  H14G10376   0.555   1.395  15.811  0.4721  0.9548 -1.3347
   7823SM  C15F10377   0.502   1.606  15.827  0.1976  0.1594 -0.3881
   7823SM  H15F10378   0.602   1.632  15.786 -0.2896  2.7415 -0.1310
   7823SM  H15G10379   0.461   1.684  15.895 -0.7346 -0.3877 -0.2979
   7823SM  C16F10380   0.410   1.603  15.702  0.4091  0.0916  0.3030
   7823SM  H16F10381   0.303   1.609  15.731  0.0850 -0.2614 -0.7635
   7823SM  H16G10382   0.412   1.510  15.641 -0.1154  0.2170  0.0865
   7823SM  C17F10383   0.451   1.708  15.599  0.7729  0.2270 -0.3665
   7823SM  H17F10384   0.560   1.707  15.580  0.9157  1.0599  0.3598
   7823SM  H17G10385   0.432   1.809  15.642  0.1176 -1.2398  3.1925
   7823SM  C18F10386   0.373   1.681  15.471 -0.0429 -0.5725  0.0172
   7823SM  H18F10387   0.266   1.692  15.500  0.4633  3.5985  0.9778
   7823SM  H18G10388   0.405   1.588  15.420 -2.0863 -0.8202 -0.9252
   7823SM  C19F10389   0.399   1.783  15.356  0.5407  0.2544  0.7315
   7823SM  H19F10390   0.492   1.757  15.302 -0.2369 -0.4506 -0.2995
   7823SM  H19G10391   0.404   1.882  15.407 -3.4049  1.1716 -0.2780
   7823SM  C20F10392   0.284   1.802  15.263 -0.0060  0.1231 -0.2393
   7823SM  H20F10393   0.328   1.876  15.192  0.7288 -1.5987 -1.6620
   7823SM  H20G10394   0.199   1.844  15.321 -1.9023 -2.2679 -1.1416
   7823SM  C21F10395   0.235   1.679  15.189  0.3428 -0.2657  0.2617
   7823SM  H21F10396   0.183   1.598  15.243  1.4194 -2.5232 -1.8876
   7823SM  H21G10397   0.329   1.635  15.149  0.1405  0.3585 -0.9717
   7823SM  C22F10398   0.161   1.727  15.061 -0.0761 -0.4827  0.7215
   7823SM  H22F10399   0.231   1.803  15.021  0.4211 -0.8965  0.8026
   7823SM  H22G10400   0.069   1.777  15.099  0.0656 -0.3894  0.9423
   7823SM  C23F10401   0.126   1.626  14.950 -0.7188 -0.7425  0.3706
   7823SM  H23F10402   0.216   1.573  14.914 -1.0721 -1.6351  0.7869
   7823SM  H23G10403   0.070   1.672  14.866 -1.8306 -2.4238  0.1367
   7823SM  H23H10404   0.050   1.556  14.991 -1.3085  0.2932  1.0929
   7923SM     N10405   5.557   0.963  18.018  0.9312  0.5468  0.4777
   7923SM   C1510406   5.415   0.927  18.058 -0.5006 -0.0182 -0.3132
   7923SM  H15A10407   5.376   0.844  18.000 -0.8482  0.1422 -0.3109
   7923SM  H15B10408   5.350   1.008  18.029 -0.6128 -0.8218 -2.4885
   7923SM  H15C10409   5.414   0.902  18.163  1.0536 -0.9800 -0.4947
   7923SM   C1410410   5.583   1.094  18.084  0.4241  0.9912 -0.2204
   7923SM  H14A10411   5.563   1.087  18.190 -2.9319 -2.5108 -0.8394
   7923SM  H14B10412   5.510   1.163  18.045  0.8773  1.3674 -0.4088
   7923SM  H14C10413   5.689   1.110  18.087  0.2329  2.4383 -0.7835
   7923SM   C1310414   5.646   0.862  18.078 -0.5042 -0.3092 -0.1597
   7923SM  H13A10415   5.749   0.891  18.064 -0.1519 -1.2347  0.4542
   7923SM  H13B10416   5.640   0.767  18.028 -1.7062 -0.3714  0.0723
   7923SM  H13C10417   5.622   0.855  18.183 -0.7463 -0.8156 -0.2441
   7923SM   C1210418   5.574   0.971  17.869 -0.6275  0.2533 -0.0867
   7923SM  H12A10419   5.577   0.868  17.837  2.1040 -0.8226  2.9786
   7923SM  H12B10420   5.670   1.014  17.845 -0.7059  1.2084  1.2077
   7923SM   C1110421   5.471   1.056  17.794  0.2035  0.0954 -0.0818
   7923SM  H11A10422   5.365   1.029  17.812  1.4302 -3.5361  2.7675
   7923SM  H11B10423   5.471   1.032  17.685 -0.6546 -1.2786  0.1927
   7923SM     P10424   5.440   1.312  17.733  0.3010 -0.6636  0.1891
   7923SM   O1310425   5.313   1.273  17.661 -1.1649  0.0162  0.5456
   7923SM   O1410426   5.432   1.430  17.819  0.4369 -0.5391 -0.3117
   7923SM   O1110427   5.567   1.316  17.635 -0.4431  0.4195  0.1062
   7923SM   O1210428   5.492   1.196  17.822 -0.3906 -0.4219 -0.2833
   7923SM   C1S10429   5.548   1.290  17.493 -0.6265 -0.1683 -0.1682
   7923SM   H1S10430   5.443   1.268  17.462 -0.2909 -2.2092 -0.0215
   7923SM   H1T10431   5.609   1.204  17.459  2.1477  2.1053 -1.2920
   7923SM    NF10432   5.549   1.412  17.266  0.1250  0.1270  0.6657
   7923SM   HNF10433   5.612   1.404  17.189  0.7771 -0.6196  1.2601
   7923SM   C2S10434   5.591   1.415  17.406 -0.2205 -0.1693 -0.0722
   7923SM   H2S10435   5.537   1.498  17.456 -1.9286 -2.1418  1.5158
   7923SM   C3S10436   5.746   1.441  17.433  0.1818 -0.4402 -0.0662
   7923SM   H3S10437   5.809   1.352  17.409  2.1066  0.8053  0.1426
   7923SM    O310438   5.769   1.477  17.569 -0.9013 -0.0093 -0.0945
   7923SM   HO310439   5.688   1.466  17.620 -0.7056  3.2123  1.1820
   7923SM   C4S10440   5.789   1.562  17.355 -0.2955 -0.1780 -0.0995
   7923SM   H4S10441   5.810   1.655  17.411 -0.3665  2.0494 -3.4627
   7923SM   C5S10442   5.867   1.555  17.245 -0.1395  0.1243 -0.2474
   7923SM   H5S10443   5.896   1.457  17.204  0.8031  0.5376 -0.5885
   7923SM   C6S10444   5.927   1.655  17.157 -0.3811  0.1716  0.5541
   7923SM   H6S10445   5.904   1.635  17.050  0.4035 -0.0196  0.4100
   7923SM   H6T10446   6.038   1.649  17.165 -0.3855 -0.7464  0.1481
   7923SM   C7S10447   5.890   1.802  17.185 -0.3760 -0.1557  0.5318
   7923SM   H7S10448   5.942   1.828  17.279  2.3923  1.6174 -1.3492
   7923SM   H7T10449   5.779   1.816  17.182 -0.5150 -0.6572 -3.6079
   7923SM   C8S10450   5.937   1.905  17.080 -0.7459 -0.3845 -0.4393
   7923SM   H8S10451   6.043   1.879  17.060 -0.0185  3.0395 -1.7219
   7923SM   H8T10452   5.938   1.994  17.145 -1.6132 -1.7912  1.5994
   7923SM   C9S10453   5.854   1.923  16.958 -0.3191 -0.4912  0.4522
   7923SM   H9S10454   5.748   1.944  16.984 -0.1248 -0.1495  0.9775
   7923SM   H9T10455   5.853   1.824  16.907  2.5034 -0.3692 -0.0415
   7923SM  C10S10456   5.925   2.018  16.856 -0.1498  0.0033  0.3006
   7923SM  H10S10457   6.025   1.972  16.844 -0.0868  0.7688 -3.5503
   7923SM  H10T10458   5.930   2.114  16.912 -0.5706 -0.0262  0.3902
   7923SM  C11S10459   5.858   2.027  16.717  0.4452 -0.1237 -0.5302
   7923SM  H11S10460   5.756   2.070  16.723  0.3423 -0.3160 -0.8559
   7923SM  H11T10461   5.839   1.924  16.680 -2.4915  1.0518 -2.6825
   7923SM  C12S10462   5.931   2.108  16.614  0.0686 -0.0611  0.1245
   7923SM  H12S10463   6.040   2.121  16.633  0.2499  2.4875 -2.0539
   7923SM  H12T10464   5.895   2.213  16.619 -1.4756 -0.6136  1.6959
   7923SM  C13S10465   5.911   2.047  16.469 -0.1471  0.2986  0.4982
   7923SM  H13S10466   5.811   2.072  16.428 -1.3622 -2.3248  1.6159
   7923SM  H13T10467   5.921   1.936  16.464 -1.7723  0.1774 -3.4168
   7923SM  C14S10468   5.998   2.111  16.362  0.7583  0.1107  0.2599
   7923SM  H14S10469   6.101   2.070  16.356 -0.3391 -2.8123 -0.1709
   7923SM  H14T10470   6.006   2.220  16.384 -1.9474  0.5798 -0.7134
   7923SM  C15S10471   5.940   2.097  16.223 -0.8189 -0.5826 -0.0419
   7923SM  H15S10472   5.830   2.111  16.231 -0.5742  1.1138  0.9231
   7923SM  H15T10473   5.967   1.996  16.186  3.1108  1.1422 -2.6039
   7923SM  C16S10474   6.006   2.188  16.117  0.0981 -0.3095  1.0431
   7923SM  H16S10475   6.113   2.170  16.092  0.2948  1.9537 -0.0491
   7923SM  H16T10476   6.008   2.296  16.144  0.6955  0.1502 -0.6866
   7923SM  C17S10477   5.918   2.189  15.988  0.3894  0.0388 -0.2766
   7923SM  H17S10478   5.821   2.225  16.029  1.2039 -1.0743  2.9615
   7923SM  H17T10479   5.904   2.088  15.945  0.9796 -1.1554  2.1301
   7923SM  C18S10480   5.978   2.270  15.878  0.0051  0.0788 -0.3925
   7923SM  H18S10481   5.912   2.285  15.790  1.3860  0.6981 -1.3620
   7923SM  H18T10482   6.075   2.230  15.841 -0.8633 -1.9922 -0.5512
   7923SM  H18U10483   5.992   2.375  15.914  1.1760  1.1134 -3.5122
   7923SM   C1F10484   5.426   1.407  17.232 -0.0509  0.7715  1.0853
   7923SM    OF10485   5.338   1.450  17.302  0.0645  0.5611  0.5194
   7923SM   C2F10486   5.400   1.339  17.100  0.6139  0.4924  0.6811
   7923SM   H2F10487   5.401   1.229  17.115  0.7418  0.4514  0.3622
   7923SM   H2G10488   5.487   1.369  17.038  1.3207 -1.0795  0.8838
   7923SM   C3F10489   5.259   1.375  17.045  0.5624 -0.3265  0.4147
   7923SM   H3F10490   5.254   1.485  17.053 -0.2854 -0.4438  1.7021
   7923SM   H3G10491   5.180   1.333  17.111 -0.0516 -0.7501 -0.5674
   7923SM   C4F10492   5.236   1.340  16.898  0.1023  0.2429  0.2330
   7923SM   H4F10493   5.127   1.326  16.880  0.3842 -2.2226  0.0147
   7923SM   H4G10494   5.282   1.245  16.862  0.4217  0.3147  0.4413
   7923SM   C5F10495   5.278   1.456  16.807 -0.1212  0.7149 -0.7284
   7923SM   H5F10496   5.378   1.492  16.838 -0.2513 -0.2483  0.9019
   7923SM   H5G10497   5.192   1.526  16.815 -0.2528  0.3829  1.0746
   7923SM   C6F10498   5.290   1.414  16.658 -0.0132 -0.5216 -0.7682
   7923SM   H6F10499   5.196   1.363  16.628 -0.4941 -0.4955  0.6271
   7923SM   H6G10500   5.376   1.344  16.645 -1.0312 -1.7623 -1.0711
   7923SM   C7F10501   5.299   1.530  16.560  0.3370  0.8268 -0.0854
   7923SM   H7F10502   5.404   1.568  16.563  0.5817  0.1416  0.6313
   7923SM   H7G10503   5.231   1.613  16.587 -0.2174  1.0713 -2.0658
   7923SM   C8F10504   5.271   1.469  16.412  0.6905 -0.5679  0.1864
   7923SM   H8F10505   5.168   1.432  16.397  0.0900  1.5413 -1.5272
   7923SM   H8G10506   5.348   1.391  16.391 -0.7973 -1.3733 -2.8736
   7923SM   C9F10507   5.304   1.578  16.298  0.0396  0.0164 -0.7613
   7923SM   H9F10508   5.415   1.577  16.288  0.1619 -0.7623  0.4928
   7923SM   H9G10509   5.266   1.674  16.341  3.7769  1.0882  0.5664
   7923SM  C10F10510   5.240   1.524  16.169 -0.0573  0.0318 -0.9335
   7923SM  H10F10511   5.129   1.520  16.165 -0.0406 -0.3454 -0.9728
   7923SM  H10G10512   5.278   1.422  16.150 -1.4908 -1.1346  1.9258
   7923SM  C11F10513   5.286   1.610  16.042 -0.5302  0.8972  0.8353
   7923SM  H11F10514   5.396   1.621  16.045 -0.5165  2.5229 -1.9213
   7923SM  H11G10515   5.243   1.712  16.056  0.4445  1.6124 -1.0573
   7923SM  C12F10516   5.233   1.548  15.907 -0.0787 -1.4338  0.1128
   7923SM  H12F10517   5.134   1.590  15.877  0.3029 -0.5440  0.0591
   7923SM  H12G10518   5.221   1.440  15.927 -0.4941 -1.3097  0.5478
   7923SM  C13F10519   5.331   1.551  15.792 -0.2369 -0.0468 -0.4252
   7923SM  H13F10520   5.436   1.542  15.827 -0.0413 -0.2733 -1.0690
   7923SM  H13G10521   5.330   1.647  15.736  0.9317 -0.3239 -0.9612
   7923SM  C14F10522   5.302   1.430  15.697 -0.6828  0.2261  0.3268
   7923SM  H14F10523   5.193   1.424  15.673 -0.9804  1.5715  1.2623
   7923SM  H14G10524   5.344   1.338  15.742 -0.7116  0.3056  0.5183
   7923SM  C15F10525   5.383   1.435  15.562 -0.2926 -0.3167 -0.0224
   7923SM  H15F10526   5.364   1.335  15.519  0.0425 -0.8722  1.0799
   7923SM  H15G10527   5.494   1.436  15.569 -0.3667 -0.1480  1.6434
   7923SM  C16F10528   5.336   1.546  15.469 -0.4044  0.3294  0.2296
   7923SM  H16F10529   5.370   1.647  15.500 -2.5296  1.0907  0.2398
   7923SM  H16G10530   5.225   1.553  15.471 -0.3126  2.1688  2.2933
   7923SM  C17F10531   5.383   1.526  15.320  0.0527 -0.4551 -0.2515
   7923SM  H17F10532   5.327   1.598  15.256 -0.0280  0.6204  0.9944
   7923SM  H17G10533   5.340   1.428  15.289  3.0725 -1.2018 -2.5973
   7923SM  C18F10534   5.534   1.523  15.297  0.3246  0.4376 -0.0632
   7923SM  H18F10535   5.586   1.431  15.331  0.6435  0.1012 -1.4125
   7923SM  H18G10536   5.585   1.606  15.350  1.7764 -0.2953 -0.2590
   7923SM  C19F10537   5.570   1.538  15.148 -0.2063 -0.7048  0.4039
   7923SM  H19F10538   5.552   1.642  15.113  0.2248 -0.5548  0.6222
   7923SM  H19G10539   5.506   1.466  15.092  0.4313 -1.2243  0.3329
   7923SM  C20F10540   5.718   1.495  15.125 -0.6098 -0.2202 -0.6749
   7923SM  H20F10541   5.724   1.385  15.120  0.6100 -0.2532  0.8261
   7923SM  H20G10542   5.775   1.523  15.216  1.5276  1.7533 -2.5045
   7923SM  C21F10543   5.790   1.548  14.997 -0.0091 -0.4973 -0.1165
   7923SM  H21F10544   5.891   1.502  14.989 -0.6225 -1.8488 -0.3407
   7923SM  H21G10545   5.798   1.658  14.991 -1.4283 -0.3413  0.4512
   7923SM  C22F10546   5.705   1.502  14.872 -0.4193  0.0043 -0.5756
   7923SM  H22F10547   5.748   1.556  14.785  0.9785  2.1445  1.3044
   7923SM  H22G10548   5.600   1.537  14.883 -1.1223 -1.7772 -1.3820
   7923SM  C23F10549   5.693   1.354  14.850 -0.3210 -0.1877 -0.2881
   7923SM  H23F10550   5.795   1.309  14.843  1.0372  2.0547  2.7056
   7923SM  H23G10551   5.643   1.346  14.751  1.7317  2.6783 -1.6826
   7923SM  H23H10552   5.621   1.310  14.923 -0.0063  1.7364  1.2619
   8023SM     N10553   0.553   1.818  18.122 -0.0315  0.4882 -0.1667
   8023SM   C1510554   0.422   1.886  18.125 -0.3116  0.2583  0.3133
   8023SM  H15A10555   0.403   1.943  18.035  3.1813  0.3400 -0.4846
   8023SM  H15B10556   0.394   1.938  18.215 -0.5829  1.3122 -0.3625
   8023SM  H15C10557   0.350   1.805  18.130 -0.9004  0.8252  1.2658
   8023SM   C1410558   0.661   1.915  18.124 -0.0359 -0.6920  0.2545
   8023SM  H14A10559   0.666   1.966  18.219 -0.1579 -1.3070  0.5971
   8023SM  H14B10560   0.653   1.988  18.045  1.4963 -0.0032  0.6945
   8023SM  H14C10561   0.763   1.882  18.112  1.1032  3.0136 -1.5618
   8023SM   C1310562   0.556   1.732  18.242 -0.0987  0.6454  0.0830
   8023SM  H13A10563   0.543   1.785  18.335  0.5205  1.6466 -0.3829
   8023SM  H13B10564   0.647   1.674  18.242 -0.3551  0.2453  0.1795
   8023SM  H13C10565   0.469   1.669  18.252 -0.0347  0.7348  1.3160
   8023SM   C1210566   0.566   1.738  17.992  0.6448  0.4069 -0.1626
   8023SM  H12A10567   0.663   1.692  17.980  0.3704 -0.7594  1.6881
   8023SM  H12B10568   0.548   1.813  17.916  0.0596  0.8072  0.3634
   8023SM   C1110569   0.468   1.616  17.968  0.0653  0.6125 -0.1034
   8023SM  H11A10570   0.463   1.545  18.054 -0.1933  0.4613 -0.2446
   8023SM  H11B10571   0.499   1.558  17.879  0.3294  1.2601 -0.4372
   8023SM     P10572   0.217   1.551  17.933  0.3527  0.0494 -0.2366
   8023SM   O1310573   0.267   1.425  17.996 -0.2607  0.2755  0.0474
   8023SM   O1410574   0.087   1.597  17.988  0.2442 -0.4130  0.6446
   8023SM   O1110575   0.200   1.525  17.780 -0.0381 -0.0623  0.3430
   8023SM   O1210576   0.333   1.658  17.942  0.2788 -0.1769 -0.0450
   8023SM   C1S10577   0.259   1.602  17.678 -0.1442 -0.8777 -0.8608
   8023SM   H1S10578   0.370   1.600  17.678 -0.1381 -2.1600  0.7229
   8023SM   H1T10579   0.238   1.711  17.687  1.8507 -0.5716  0.6774
   8023SM    NF10580   0.272   1.646  17.434 -0.3458 -0.5314  0.2286
   8023SM   HNF10581   0.232   1.736  17.425 -0.0298 -0.5427 -1.6653
   8023SM   C2S10582   0.212   1.563  17.535  0.5143 -0.2958 -0.1248
   8023SM   H2S10583   0.245   1.459  17.516  4.6969  1.0356 -1.2823
   8023SM   C3S10584   0.058   1.575  17.525 -0.0331  1.1403  0.2885
   8023SM   H3S10585   0.014   1.673  17.554 -0.9547  0.6088  0.7308
   8023SM    O310586  -0.015   1.480  17.605  0.6356  0.3022  0.2896
   8023SM   HO310587   0.056   1.442  17.657  2.5903  0.4069 -2.0830
   8023SM   C4S10588   0.007   1.552  17.383  0.7084 -0.7366 -0.9492
   8023SM   H4S10589   0.036   1.455  17.340  2.2062 -0.4548 -0.6284
   8023SM   C5S10590  -0.061   1.641  17.309  0.2361  0.0032  0.6266
   8023SM   H5S10591  -0.087   1.735  17.361  0.7640 -1.3015  3.4655
   8023SM   C6S10592  -0.103   1.635  17.166 -0.5913  0.7239 -0.3650
   8023SM   H6S10593  -0.051   1.714  17.109  1.2126 -1.0385 -1.2765
   8023SM   H6T10594  -0.213   1.650  17.155 -0.6288  1.2484  0.5853
   8023SM   C7S10595  -0.057   1.506  17.098  0.5951  0.0801  0.2723
   8023SM   H7S10596  -0.107   1.417  17.143  0.8423  0.2711  0.9416
   8023SM   H7T10597   0.053   1.492  17.094  0.9776  2.8992 -1.7120
   8023SM   C8S10598  -0.099   1.505  16.946 -0.3879  0.3903 -0.6864
   8023SM   H8S10599  -0.030   1.565  16.883 -0.8021  1.5234 -0.0935
   8023SM   H8T10600  -0.205   1.534  16.931 -0.7805 -0.2015  0.7468
   8023SM   C9S10601  -0.078   1.365  16.887  0.0932  0.4621 -0.2746
   8023SM   H9S10602  -0.154   1.308  16.945  1.8312  0.7803  2.4577
   8023SM   H9T10603   0.015   1.315  16.920 -1.2976 -1.9864  0.2059
   8023SM  C10S10604  -0.098   1.347  16.738 -0.7447 -0.5634 -0.4267
   8023SM  H10S10605  -0.064   1.244  16.712 -2.2855 -0.7937 -1.6699
   8023SM  H10T10606  -0.042   1.420  16.676 -0.7545 -0.4211 -0.2679
   8023SM  C11S10607  -0.245   1.349  16.687  0.0031  0.6437  0.1391
   8023SM  H11S10608  -0.305   1.427  16.739  0.3880  0.1729  1.3274
   8023SM  H11T10609  -0.290   1.249  16.702 -1.2574  1.3283  1.0976
   8023SM  C12S10610  -0.245   1.394  16.542  0.2425  0.0403  0.2764
   8023SM  H12S10611  -0.189   1.490  16.545  1.8739 -0.8433 -0.2327
   8023SM  H12T10612  -0.347   1.417  16.506  1.6670  3.4771 -2.0852
   8023SM  C13S10613  -0.176   1.307  16.442  0.2325 -0.4371  0.3955
   8023SM  H13S10614  -0.217   1.204  16.437 -3.0878  0.6468  2.0573
   8023SM  H13T10615  -0.069   1.297  16.472  0.4090 -0.4431 -0.2326
   8023SM  C14S10616  -0.179   1.372  16.305  0.5647  0.1712  0.5371
   8023SM  H14S10617  -0.176   1.482  16.319  1.9172  0.1206  0.8047
   8023SM  H14T10618  -0.281   1.352  16.265  0.8474 -3.1200  1.2125
   8023SM  C15S10619  -0.085   1.308  16.210 -0.4291 -0.5080 -0.3277
   8023SM  H15S10620  -0.088   1.199  16.228 -1.0165 -1.0894 -3.4653
   8023SM  H15T10621   0.021   1.342  16.218  0.2049 -1.7408 -2.6248
   8023SM  C16S10622  -0.124   1.341  16.064  0.4026  0.0326  0.5850
   8023SM  H16S10623  -0.121   1.452  16.057  0.4793  0.0750  1.2817
   8023SM  H16T10624  -0.229   1.311  16.047  1.5193 -3.0098 -1.9068
   8023SM  C17S10625  -0.039   1.278  15.959 -1.0530 -0.3378  0.0991
   8023SM  H17S10626  -0.033   1.167  15.970  0.9542 -0.0796  2.9885
   8023SM  H17T10627   0.064   1.313  15.984 -0.8954  0.3697 -1.4677
   8023SM  C18S10628  -0.064   1.311  15.815  0.3884 -0.0203  0.0513
   8023SM  H18S10629  -0.169   1.340  15.791  0.7483  1.3230 -0.0258
   8023SM  H18T10630  -0.033   1.223  15.756  2.5214  0.9577 -0.4146
   8023SM  H18U10631   0.006   1.392  15.783  0.9723 -1.4665 -2.6007
   8023SM   C1F10632   0.392   1.622  17.380 -0.0017  0.1799  0.0674
   8023SM    OF10633   0.463   1.530  17.413  0.0722  0.3739 -0.2158
   8023SM   C2F10634   0.440   1.712  17.273  0.4120  0.0558 -0.2459
   8023SM   H2F10635   0.544   1.676  17.261  0.4620  0.1931 -0.2278
   8023SM   H2G10636   0.452   1.817  17.308 -2.1891  0.0329  0.9227
   8023SM   C3F10637   0.359   1.701  17.141  0.0363 -0.1304 -0.2857
   8023SM   H3F10638   0.250   1.720  17.155 -0.3119  0.2677 -2.9377
   8023SM   H3G10639   0.384   1.600  17.101  1.7174  0.3729 -0.5859
   8023SM   C4F10640   0.393   1.818  17.041 -0.1982  0.5976 -0.2875
   8023SM   H4F10641   0.503   1.808  17.026 -0.2232 -1.2550  0.4630
   8023SM   H4G10642   0.371   1.910  17.098  0.2612 -0.5653  1.8629
   8023SM   C5F10643   0.314   1.813  16.908 -0.1670  0.1884 -0.2890
   8023SM   H5F10644   0.325   1.912  16.858 -0.3676 -0.3920 -1.5040
   8023SM   H5G10645   0.208   1.798  16.937  0.2116 -0.4176  0.8100
   8023SM   C6F10646   0.343   1.694  16.817 -0.2302  0.5834  0.5279
   8023SM   H6F10647   0.351   1.594  16.864 -1.2600 -1.0926 -2.5541
   8023SM   H6G10648   0.446   1.715  16.781  0.0886  1.2657  1.7674
   8023SM   C7F10649   0.259   1.686  16.693 -0.2851  0.2690 -0.2357
   8023SM   H7F10650   0.263   1.786  16.643 -1.0689  0.2528 -0.3441
   8023SM   H7G10651   0.159   1.656  16.729 -0.5984 -0.8552 -1.9161
   8023SM   C8F10652   0.315   1.572  16.603 -0.2647 -0.8649  0.2587
   8023SM   H8F10653   0.324   1.485  16.671 -1.1730 -0.5559  0.7980
   8023SM   H8G10654   0.416   1.591  16.561 -0.6360  0.1232 -0.2275
   8023SM   C9F10655   0.223   1.524  16.486 -0.9025  0.6838  0.0411
   8023SM   H9F10656   0.120   1.487  16.507  0.3756 -2.6837  0.9816
   8023SM   H9G10657   0.262   1.436  16.431  1.2987  0.4995  1.7449
   8023SM  C10F10658   0.223   1.632  16.381 -0.7454 -0.1370  0.0962
   8023SM  H10F10659   0.332   1.650  16.375 -0.6289 -0.5958  0.6554
   8023SM  H10G10660   0.170   1.722  16.417  0.6175  0.5259  0.5098
   8023SM  C11F10661   0.169   1.583  16.243 -0.6060 -0.3410  0.1983
   8023SM  H11F10662   0.061   1.559  16.253 -0.9124  0.9434  0.1143
   8023SM  H11G10663   0.238   1.505  16.205  0.6203  1.2601 -1.0219
   8023SM  C12F10664   0.171   1.702  16.139 -0.2999 -0.0424 -0.1637
   8023SM  H12F10665   0.276   1.740  16.144  0.4069 -1.9480  0.4516
   8023SM  H12G10666   0.106   1.790  16.159  0.1773  0.0868  0.8801
   8023SM  C13F10667   0.132   1.663  15.997 -0.8982  0.9037  0.0216
   8023SM  H13F10668   0.045   1.595  15.988 -0.2279  0.1970 -1.6188
   8023SM  H13G10669   0.213   1.606  15.947 -0.0907  0.8278  1.3636
   8023SM  C14F10670   0.091   1.791  15.911  0.2247  1.3323 -0.2680
   8023SM  H14F10671   0.188   1.844  15.900  2.1540 -2.1561 -1.6466
   8023SM  H14G10672   0.014   1.835  15.978  0.5711 -1.3664  2.0485
   8023SM  C15F10673   0.018   1.768  15.776 -0.0093 -0.1797  0.2025
   8023SM  H15F10674  -0.061   1.693  15.802 -0.2602 -0.8366 -2.2332
   8023SM  H15G10675   0.067   1.714  15.693  0.5067 -3.6013  2.5133
   8023SM  C16F10676  -0.035   1.904  15.732 -0.5978  0.0359  0.1880
   8023SM  H16F10677   0.048   1.963  15.688 -1.9077  1.8906  0.0870
   8023SM  H16G10678  -0.061   1.960  15.825  2.0311 -1.0614  1.7048
   8023SM  C17F10679  -0.141   1.869  15.626 -0.2063 -0.0546 -0.7369
   8023SM  H17F10680  -0.203   1.958  15.605 -0.5631  0.0294  0.5773
   8023SM  H17G10681  -0.192   1.782  15.674  1.7573 -0.3219  1.0423
   8023SM  C18F10682  -0.084   1.834  15.487 -0.5092  0.1153  0.0546
   8023SM  H18F10683  -0.025   1.743  15.507 -0.0874  0.4575  0.3964
   8023SM  H18G10684  -0.013   1.915  15.458  0.7508 -0.3481  1.6590
   8023SM  C19F10685  -0.188   1.807  15.383  0.1888  0.6819 -0.4121
   8023SM  H19F10686  -0.133   1.789  15.289 -0.5382 -2.6293 -0.3323
   8023SM  H19G10687  -0.258   1.893  15.377 -0.6762  0.0356  0.1467
   8023SM  C20F10688  -0.275   1.677  15.408 -0.1580 -0.3238 -0.4741
   8023SM  H20F10689  -0.322   1.670  15.509  2.0776 -0.2999  0.6376
   8023SM  H20G10690  -0.198   1.598  15.402  0.2848  0.1020 -0.4892
   8023SM  C21F10691  -0.383   1.655  15.305 -0.4381 -0.5492 -0.0246
   8023SM  H21F10692  -0.422   1.552  15.324  2.3226 -1.8167 -0.7567
   8023SM  H21G10693  -0.346   1.654  15.200 -0.0922 -1.5266  0.0953
   8023SM  C22F10694  -0.492   1.761  15.315  0.0000  0.3659  0.1386
   8023SM  H22F10695  -0.468   1.838  15.238 -0.9420 -0.4190 -0.9640
   8023SM  H22G10696  -0.507   1.817  15.410  1.7226  1.6657 -0.2973
   8023SM  C23F10697  -0.625   1.692  15.287  0.7013 -0.2055 -0.1342
   8023SM  H23F10698  -0.706   1.769  15.280  0.1498 -0.8202 -0.5684
   8023SM  H23G10699  -0.664   1.629  15.370 -1.1257  0.3269 -0.5232
   8023SM  H23H10700  -0.613   1.635  15.193  4.4586  0.7912 -0.3982
   8123SM     N10701   3.384   5.592  12.245  1.0429 -0.8262  0.0367
   8123SM   C1510702   3.439   5.716  12.192 -0.6870 -0.1320  0.3892
   8123SM  H15A10703   3.399   5.740  12.094 -0.9224 -2.3525 -0.1201
   8123SM  H15B10704   3.546   5.722  12.174 -0.6079 -1.2465  0.3967
   8123SM  H15C10705   3.424   5.801  12.256  1.3170 -0.8894  1.9866
   8123SM   C1410706   3.236   5.586  12.234  0.7891 -0.3247 -0.2967
   8123SM  H14A10707   3.197   5.490  12.264  0.4345 -0.5881 -1.5308
   8123SM  H14B10708   3.209   5.595  12.130 -0.1020  3.2839  0.1205
   8123SM  H14C10709   3.180   5.665  12.281 -0.1807 -0.4876 -1.1516
   8123SM   C1310710   3.441   5.478  12.163 -0.0713 -0.1754 -0.8863
   8123SM  H13A10711   3.392   5.382  12.163  0.8171 -0.6705 -2.7654
   8123SM  H13B10712   3.544   5.458  12.189 -0.6952 -0.1852  1.9790
   8123SM  H13C10713   3.442   5.520  12.064  1.1042 -0.1800 -0.8938
   8123SM   C1210714   3.433   5.575  12.388  0.2515 -0.2043 -0.5566
   8123SM  H12A10715   3.415   5.471  12.411  1.2672 -0.2971 -0.1381
   8123SM  H12B10716   3.371   5.629  12.457  1.9275  0.1470  0.7421
   8123SM   C1110717   3.578   5.616  12.428  0.2466 -0.1378 -1.2013
   8123SM  H11A10718   3.611   5.573  12.525  1.9930  0.3192 -1.5604
   8123SM  H11B10719   3.583   5.727  12.435 -0.9124 -0.1636  0.9093
   8123SM     P10720   3.759   5.439  12.349 -0.0854  0.1550 -0.5610
   8123SM   O1310721   3.674   5.320  12.336  0.1613 -0.5799 -0.0820
   8123SM   O1410722   3.872   5.441  12.251  0.5317 -0.7107  0.0476
   8123SM   O1110723   3.820   5.440  12.500  0.2236  0.2434  0.0672
   8123SM   O1210724   3.675   5.578  12.332 -0.0866  0.2974  0.0695
   8123SM   C1S10725   3.893   5.559  12.540 -0.8256  0.6207  0.1139
   8123SM   H1S10726   3.871   5.650  12.481 -0.3546  0.8288  0.2559
   8123SM   H1T10727   4.003   5.552  12.529 -0.8131  2.9162 -2.0514
   8123SM    NF10728   3.906   5.729  12.733  0.1973 -0.0498  0.4276
   8123SM   HNF10729   3.987   5.735  12.792  0.4654  0.3370  0.0218
   8123SM   C2S10730   3.855   5.598  12.687  0.2272  0.5274 -0.3701
   8123SM   H2S10731   3.745   5.608  12.700  0.0549  0.3203 -1.5144
   8123SM   C3S10732   3.897   5.486  12.793  0.3300  0.5659  0.0064
   8123SM   H3S10733   4.007   5.479  12.806  0.2674 -1.8298 -0.3266
   8123SM    O310734   3.846   5.357  12.756  0.2909  0.4247 -0.1946
   8123SM   HO310735   3.826   5.371  12.663  0.1480  1.1973 -0.0550
   8123SM   C4S10736   3.845   5.508  12.934  0.0184  0.3131  0.7780
   8123SM   H4S10737   3.738   5.487  12.943 -0.1140 -0.2034 -1.4517
   8123SM   C5S10738   3.926   5.533  13.046 -0.2604  0.0025  0.8871
   8123SM   H5S10739   4.036   5.530  13.040 -0.0765  3.9312 -1.0877
   8123SM   C6S10740   3.872   5.552  13.178  0.0861  0.1687 -0.0631
   8123SM   H6S10741   3.929   5.492  13.252 -2.0602  0.7156  2.1719
   8123SM   H6T10742   3.769   5.511  13.190 -0.7515  2.1886  0.0332
   8123SM   C7S10743   3.879   5.699  13.235  0.1964 -0.1149 -0.0866
   8123SM   H7S10744   3.804   5.752  13.172  0.0833 -0.0387  0.1082
   8123SM   H7T10745   3.974   5.752  13.210  0.6151 -0.5721  0.5197
   8123SM   C8S10746   3.846   5.718  13.383 -0.2086 -0.7569  0.4191
   8123SM   H8S10747   3.747   5.667  13.385  0.1627 -1.5031  0.3066
   8123SM   H8T10748   3.823   5.820  13.420 -0.6235 -0.8750  0.5004
   8123SM   C9S10749   3.931   5.650  13.488 -0.2445  0.8074 -0.1117
   8123SM   H9S10750   4.035   5.688  13.474  1.9406 -4.1846  0.5010
   8123SM   H9T10751   3.941   5.541  13.469  1.7189  0.8341  0.5317
   8123SM  C10S10752   3.891   5.674  13.636  0.2859  0.2131 -0.0093
   8123SM  H10S10753   3.782   5.661  13.651  0.5205 -0.1882  1.5028
   8123SM  H10T10754   3.918   5.779  13.658  4.3441 -1.3354  3.9771
   8123SM  C11S10755   3.968   5.590  13.738 -0.3711  0.1916 -0.3888
   8123SM  H11S10756   4.073   5.622  13.718 -1.0950  1.8021 -1.9183
   8123SM  H11T10757   3.961   5.484  13.708  2.3887 -0.2843  0.3823
   8123SM  C12S10758   3.933   5.610  13.886  0.5114 -0.1886 -0.2063
   8123SM  H12S10759   3.942   5.717  13.915 -4.0284  0.6104 -1.0212
   8123SM  H12T10760   3.996   5.546  13.952 -0.2950 -1.5647 -0.7161
   8123SM  C13S10761   3.781   5.588  13.921 -0.5304  0.2639  0.0936
   8123SM  H13S10762   3.746   5.493  13.876  1.5371 -1.4902  1.9053
   8123SM  H13T10763   3.729   5.667  13.864 -1.1931 -1.0992 -1.2443
   8123SM  C14S10764   3.753   5.600  14.071 -0.2571 -0.7066  0.6470
   8123SM  H14S10765   3.797   5.695  14.108  1.0240 -0.4221 -1.4502
   8123SM  H14T10766   3.802   5.516  14.126  1.5832  0.2511  0.5408
   8123SM  C15S10767   3.608   5.610  14.110  0.5713 -0.1891 -0.3393
   8123SM  H15S10768   3.552   5.520  14.076 -0.3047  0.5620 -0.9383
   8123SM  H15T10769   3.570   5.702  14.059  1.0173  1.4763  2.1581
   8123SM  C16S10770   3.572   5.615  14.262 -0.4564  0.7884 -0.2573
   8123SM  H16S10771   3.466   5.649  14.267 -0.3189  1.3206 -0.9055
   8123SM  H16T10772   3.640   5.696  14.295 -0.8206  1.1725 -0.4411
   8123SM  C17S10773   3.587   5.480  14.333  0.4927  0.6839 -0.4275
   8123SM  H17S10774   3.691   5.452  14.308  0.3532  0.1087 -0.3856
   8123SM  H17T10775   3.520   5.405  14.285  0.0555  1.5802 -1.2611
   8123SM  C18S10776   3.578   5.469  14.481 -0.0947  0.6075  0.0090
   8123SM  H18S10777   3.610   5.366  14.504 -0.8753  0.8331  2.3498
   8123SM  H18T10778   3.474   5.480  14.520 -0.1421 -0.4335  0.1830
   8123SM  H18U10779   3.636   5.545  14.539  0.9868 -1.8330  2.3324
   8123SM   C1F10780   3.871   5.849  12.688 -0.0502  0.2899 -0.2602
   8123SM    OF10781   3.784   5.865  12.606 -0.0211  0.5524 -0.5387
   8123SM   C2F10782   3.947   5.966  12.743  0.0233  0.5532 -0.0166
   8123SM   H2F10783   3.919   6.056  12.684 -0.0024  0.9927  0.6520
   8123SM   H2G10784   4.053   5.952  12.714 -0.5267 -0.5890 -1.6114
   8123SM   C3F10785   3.931   5.980  12.897 -0.4029 -0.0606 -0.1593
   8123SM   H3F10786   3.984   5.893  12.940  1.3367  1.9602  2.0609
   8123SM   H3G10787   3.821   5.972  12.912 -0.6602 -0.8667 -2.2130
   8123SM   C4F10788   3.998   6.093  12.978 -0.1290 -0.9687 -0.0315
   8123SM   H4F10789   3.964   6.197  12.961  0.5725 -0.2166  2.5764
   8123SM   H4G10790   4.108   6.087  12.970  0.1220  1.6510  0.4431
   8123SM   C5F10791   3.978   6.078  13.135  0.4309  0.0827  0.6324
   8123SM   H5F10792   4.012   5.975  13.161  1.1999  0.4273  1.0126
   8123SM   H5G10793   3.869   6.074  13.158  0.8204 -0.7644  2.5055
   8123SM   C6F10794   4.022   6.198  13.222 -0.1745  0.7798 -0.0003
   8123SM   H6F10795   3.978   6.295  13.193  1.1337  1.4730  0.2536
   8123SM   H6G10796   4.131   6.212  13.208  0.1276  0.7601  2.0811
   8123SM   C7F10797   3.996   6.178  13.371  0.1089 -0.0588  0.0847
   8123SM   H7F10798   3.887   6.160  13.383  0.0930 -1.2189 -1.5616
   8123SM   H7G10799   4.012   6.276  13.422  0.8761  0.2447 -0.7141
   8123SM   C8F10800   4.077   6.065  13.435 -0.0543  0.0689 -0.1422
   8123SM   H8F10801   4.184   6.093  13.447  0.2476 -0.7268 -0.8535
   8123SM   H8G10802   4.064   5.975  13.371 -0.4794 -2.1264  2.8096
   8123SM   C9F10803   4.026   6.010  13.571 -0.5179 -0.4830  0.3172
   8123SM   H9F10804   4.074   5.911  13.587  0.6935 -0.8071 -4.0197
   8123SM   H9G10805   3.919   5.981  13.560 -0.4996 -0.6849  0.6347
   8123SM  C10F10806   4.043   6.110  13.684  0.1660  0.0432  0.0552
   8123SM  H10F10807   3.951   6.171  13.673 -0.5890 -0.8189  1.3098
   8123SM  H10G10808   4.142   6.160  13.688  0.3784 -0.3483 -0.2649
   8123SM  C11F10809   4.025   6.043  13.826 -0.5840  0.4136  0.2299
   8123SM  H11F10810   4.113   5.978  13.846  1.8135  3.2410 -0.3649
   8123SM  H11G10811   3.929   5.987  13.823 -1.0325  1.1610  0.5270
   8123SM  C12F10812   4.039   6.135  13.949 -0.0142 -0.2246  0.3411
   8123SM  H12F10813   3.973   6.223  13.934  0.7009  0.2024 -0.4493
   8123SM  H12G10814   4.143   6.174  13.948  0.1241 -0.5830  0.7612
   8123SM  C13F10815   4.010   6.056  14.073  0.2464  0.1356 -0.4961
   8123SM  H13F10816   4.074   5.966  14.087  0.1045 -0.0218 -0.8529
   8123SM  H13G10817   3.900   6.039  14.070 -0.0596  1.4240  1.5411
   8123SM  C14F10818   4.046   6.138  14.203 -0.1501 -0.1545 -0.3959
   8123SM  H14F10819   3.998   6.238  14.199 -1.4981 -0.8283 -3.2481
   8123SM  H14G10820   4.156   6.153  14.197  0.3922 -2.3928  2.1827
   8123SM  C15F10821   4.025   6.054  14.336 -1.0853  0.0369  0.1527
   8123SM  H15F10822   4.085   5.961  14.327 -2.4161 -1.0723  1.8331
   8123SM  H15G10823   3.917   6.030  14.348 -1.3726  1.8086  1.5166
   8123SM  C16F10824   4.059   6.127  14.462 -0.3858 -0.5368  0.3753
   8123SM  H16F10825   4.002   6.221  14.476  0.5304  0.0256  0.4330
   8123SM  H16G10826   4.166   6.155  14.469 -0.6249  0.5714 -0.1440
   8123SM  C17F10827   4.020   6.050  14.586  0.0793 -0.2657 -0.1502
   8123SM  H17F10828   4.053   6.111  14.673  2.4454 -0.7543 -0.6474
   8123SM  H17G10829   4.082   5.960  14.603  0.4199 -0.0262 -0.1234
   8123SM  C18F10830   3.877   5.992  14.591  0.0655 -0.2740  0.6784
   8123SM  H18F10831   3.866   5.911  14.516 -1.9529  1.4789 -1.0429
   8123SM  H18G10832   3.811   6.074  14.556  1.4223  0.7335  0.4245
   8123SM  C19F10833   3.835   5.929  14.725 -0.1104 -1.2191  0.1130
   8123SM  H19F10834   3.815   6.009  14.800 -1.2471 -1.8021  0.4430
   8123SM  H19G10835   3.922   5.869  14.759  1.9800  1.2316 -0.5472
   8123SM  C20F10836   3.705   5.848  14.709 -0.0935  0.2412  0.4739
   8123SM  H20F10837   3.733   5.788  14.620 -0.3010  0.1001  0.5021
   8123SM  H20G10838   3.629   5.925  14.684 -3.1140 -2.2375  1.2628
   8123SM  C21F10839   3.665   5.748  14.817 -0.6709 -0.0014 -0.5496
   8123SM  H21F10840   3.663   5.796  14.918  2.0151 -2.2350  0.7091
   8123SM  H21G10841   3.739   5.665  14.816 -0.1990  0.3823  0.4179
   8123SM  C22F10842   3.533   5.682  14.789 -0.0478  0.2320 -0.1047
   8123SM  H22F10843   3.527   5.592  14.854 -0.2796  0.8066  0.6776
   8123SM  H22G10844   3.522   5.643  14.686 -0.9217  0.5969 -0.1562
   8123SM  C23F10845   3.400   5.765  14.809 -0.1869  0.5144 -0.1215
   8123SM  H23F10846   3.404   5.851  14.739  2.0384  0.4180 -0.1779
   8123SM  H23G10847   3.398   5.810  14.910 -0.8687 -0.5785  0.3765
   8123SM  H23H10848   3.312   5.698  14.794  1.3966 -1.2866 -1.9673
   8223SM     N10849   3.790   0.154  12.203  0.1076  0.3703  0.0101
   8223SM   C1510850   3.854   0.145  12.337  0.3936  0.0099 -0.5361
   8223SM  H15A10851   3.960   0.126  12.340  0.1184 -1.7767 -1.0996
   8223SM  H15B10852   3.810   0.058  12.385 -0.1437  0.3969 -0.3130
   8223SM  H15C10853   3.826   0.221  12.408 -3.1659 -1.2634 -0.3355
   8223SM   C1410854   3.639   0.159  12.225  0.1757 -0.1049  0.0133
   8223SM  H14A10855   3.604   0.224  12.304  2.9486  0.7632  0.6165
   8223SM  H14B10856   3.617   0.064  12.272  0.9447  1.2929  3.5428
   8223SM  H14C10857   3.573   0.160  12.140  0.0271  0.7631  0.1344
   8223SM   C1310858   3.837   0.276  12.131  0.3194  0.5065 -0.0216
   8223SM  H13A10859   3.775   0.292  12.044  1.3008 -0.4077 -0.9202
   8223SM  H13B10860   3.943   0.266  12.112  0.7029  1.0796  1.6539
   8223SM  H13C10861   3.829   0.359  12.199  1.0219 -0.4031  1.2143
   8223SM   C1210862   3.836   0.033  12.120  0.4248 -0.1447  0.6090
   8223SM  H12A10863   3.944   0.042  12.126  0.7166 -0.9556 -2.1232
   8223SM  H12B10864   3.813   0.047  12.015  4.0113 -0.8543 -0.4273
   8223SM   C1110865   3.793  -0.105  12.173  0.1004  0.2573 -0.4769
   8223SM  H11A10866   3.818  -0.188  12.104 -1.5800 -2.6363  2.1120
   8223SM  H11B10867   3.683  -0.106  12.189  0.2429  0.6557  0.6342
   8223SM     P10868   3.995  -0.186  12.320  0.0630  0.1651  0.1354
   8223SM   O1310869   3.999  -0.335  12.323  0.1210  0.2677  0.0322
   8223SM   O1410870   4.071  -0.115  12.214 -0.2493 -0.0223 -0.4448
   8223SM   O1110871   4.039  -0.134  12.463  0.1026 -0.1268 -0.3517
   8223SM   O1210872   3.845  -0.136  12.308 -0.2348 -0.3338 -0.7803
   8223SM   C1S10873   3.938  -0.131  12.569  0.5017 -0.1300  0.4098
   8223SM   H1S10874   3.846  -0.188  12.543 -1.1101  1.1898  2.8538
   8223SM   H1T10875   3.909  -0.025  12.589  2.1918  0.2358  1.0697
   8223SM    NF10876   3.883  -0.225  12.801 -0.1969 -0.1195 -0.3338
   8223SM   HNF10877   3.857  -0.167  12.878 -0.6581 -1.5627  0.6362
   8223SM   C2S10878   3.993  -0.190  12.707 -0.0385 -0.3905  0.6518
   8223SM   H2S10879   4.045  -0.286  12.686  1.3587 -0.1448  2.6943
   8223SM   C3S10880   4.107  -0.098  12.761  0.0610 -0.2421 -0.3596
   8223SM   H3S10881   4.063  -0.003  12.800 -1.1296 -0.0506 -2.0728
   8223SM    O310882   4.199  -0.064  12.663 -0.3597  0.1376  0.1193
   8223SM   HO310883   4.157  -0.091  12.581  0.3633 -0.7892  0.0398
   8223SM   C4S10884   4.183  -0.169  12.862 -0.0661  0.5964 -0.0723
   8223SM   H4S10885   4.254  -0.242  12.818 -0.1598 -0.5158  1.5042
   8223SM   C5S10886   4.186  -0.152  12.998  0.0410 -0.4787  0.3515
   8223SM   H5S10887   4.116  -0.076  13.037 -1.5836 -1.3636 -0.7140
   8223SM   C6S10888   4.276  -0.218  13.099 -0.6532 -0.0929 -0.0856
   8223SM   H6S10889   4.381  -0.232  13.064 -0.7127  0.7121 -0.6120
   8223SM   H6T10890   4.235  -0.319  13.124 -0.7467 -0.1387 -0.4232
   8223SM   C7S10891   4.274  -0.142  13.238 -0.1332  0.2890 -0.0435
   8223SM   H7S10892   4.168  -0.120  13.263 -0.3177  0.5863 -1.0185
   8223SM   H7T10893   4.319  -0.040  13.240 -0.8563  0.5925  1.4157
   8223SM   C8S10894   4.317  -0.230  13.356 -0.2244 -0.6714  0.4250
   8223SM   H8S10895   4.423  -0.265  13.352  0.3655  0.9537  1.0437
   8223SM   H8T10896   4.256  -0.323  13.366  0.6546 -1.1309  1.8354
   8223SM   C9S10897   4.302  -0.166  13.491  0.4888 -0.2590  0.5425
   8223SM   H9S10898   4.204  -0.115  13.504  1.8309  2.8858 -0.5574
   8223SM   H9T10899   4.370  -0.079  13.504  0.2115 -0.2281  1.8814
   8223SM  C10S10900   4.327  -0.255  13.614 -0.3322  1.0447 -0.5405
   8223SM  H10S10901   4.429  -0.297  13.614 -0.8120 -0.2404  0.9094
   8223SM  H10T10902   4.261  -0.344  13.608 -1.2432  1.4121  2.3837
   8223SM  C11S10903   4.288  -0.179  13.741 -0.2391 -0.8204  0.3782
   8223SM  H11S10904   4.191  -0.127  13.725 -0.5453 -1.1676  1.0592
   8223SM  H11T10905   4.369  -0.104  13.758 -1.2699 -0.1331  2.7045
   8223SM  C12S10906   4.273  -0.267  13.863  0.7080 -0.9503 -0.0364
   8223SM  H12S10907   4.362  -0.333  13.867  0.6511 -0.9920  2.1149
   8223SM  H12T10908   4.185  -0.329  13.836 -0.5216  0.8231 -0.2842
   8223SM  C13S10909   4.275  -0.186  13.999 -0.4518  0.8886  0.4952
   8223SM  H13S10910   4.188  -0.117  13.998  0.0715  1.5549 -0.4988
   8223SM  H13T10911   4.363  -0.118  13.995 -0.6197  1.0475 -0.8345
   8223SM  C14S10912   4.292  -0.281  14.122 -0.4332 -0.0270 -0.3782
   8223SM  H14S10913   4.389  -0.335  14.130 -0.1111  0.5829 -0.0600
   8223SM  H14T10914   4.210  -0.356  14.123 -1.2155  0.7882 -1.2816
   8223SM  C15S10915   4.307  -0.196  14.258 -0.1031 -0.0803  0.2451
   8223SM  H15S10916   4.226  -0.121  14.248 -0.4948 -0.6228 -0.8581
   8223SM  H15T10917   4.407  -0.146  14.263 -0.9255  1.5258  1.6610
   8223SM  C16S10918   4.292  -0.286  14.376 -0.0576  0.4798 -0.7570
   8223SM  H16S10919   4.391  -0.335  14.385 -0.5351 -0.2978  0.6744
   8223SM  H16T10920   4.207  -0.357  14.364 -0.5306  0.5390  1.6284
   8223SM  C17S10921   4.266  -0.215  14.508  0.0243 -0.5175  0.1289
   8223SM  H17S10922   4.355  -0.152  14.531  1.1983 -2.0729 -0.0164
   8223SM  H17T10923   4.262  -0.279  14.599  2.4365 -0.2853  0.4465
   8223SM  C18S10924   4.135  -0.135  14.500  0.3118 -0.5186  0.2968
   8223SM  H18S10925   4.099  -0.108  14.602  0.0389 -1.1350  0.3657
   8223SM  H18T10926   4.065  -0.208  14.455  1.5592 -1.3810 -0.2935
   8223SM  H18U10927   4.141  -0.044  14.436  1.9442 -0.3387  0.6599
   8223SM   C1F10928   3.804  -0.324  12.767  0.6562  0.5396 -0.4526
   8223SM    OF10929   3.820  -0.404  12.677  0.5057  0.4740  0.3327
   8223SM   C2F10930   3.679  -0.345  12.854 -0.0431 -0.4144  0.1366
   8223SM   H2F10931   3.595  -0.281  12.821  0.2312  0.1251  0.4809
   8223SM   H2G10932   3.706  -0.305  12.954 -0.5548  3.0775 -1.0094
   8223SM   C3F10933   3.636  -0.490  12.869 -0.5480 -0.1597  0.2363
   8223SM   H3F10934   3.713  -0.548  12.923 -0.2241 -0.2301 -0.2906
   8223SM   H3G10935   3.630  -0.547  12.773 -1.1279  0.6433 -0.2240
   8223SM   C4F10936   3.497  -0.504  12.942  0.2731  0.8468 -0.9651
   8223SM   H4F10937   3.426  -0.456  12.873 -1.5433  0.1538  0.3471
   8223SM   H4G10938   3.500  -0.443  13.035 -0.5586  1.6776 -1.4633
   8223SM   C5F10939   3.447  -0.643  12.946 -0.2967  0.0048  0.6969
   8223SM   H5F10940   3.458  -0.686  12.844  0.4395  0.8738  0.3993
   8223SM   H5G10941   3.338  -0.650  12.965 -0.4425 -0.7446 -0.2918
   8223SM   C6F10942   3.516  -0.731  13.061  0.5751 -0.6590 -0.3388
   8223SM   H6F10943   3.620  -0.751  13.027  0.4698  1.0358 -1.8357
   8223SM   H6G10944   3.466  -0.829  13.076  0.3553 -0.2769  1.5767
   8223SM   C7F10945   3.532  -0.662  13.200 -0.1310  0.4296  0.0879
   8223SM   H7F10946   3.438  -0.606  13.216  0.7036  2.0816 -0.4573
   8223SM   H7G10947   3.621  -0.595  13.195  1.2535 -1.2662  1.0402
   8223SM   C8F10948   3.551  -0.755  13.312  0.8262  0.1669 -0.3702
   8223SM   H8F10949   3.633  -0.829  13.296 -0.5620 -1.6538  0.5930
   8223SM   H8G10950   3.460  -0.817  13.327  0.2836  1.2784  1.1677
   8223SM   C9F10951   3.589  -0.683  13.444  0.2850  0.2275  0.1322
   8223SM   H9F10952   3.513  -0.604  13.462 -1.1104 -0.8852 -0.6560
   8223SM   H9G10953   3.690  -0.636  13.439  0.1948  0.5177  0.9235
   8223SM  C10F10954   3.587  -0.780  13.561  0.3402 -0.2551 -0.3852
   8223SM  H10F10955   3.663  -0.851  13.521  0.2404  0.3834 -1.7705
   8223SM  H10G10956   3.488  -0.827  13.577 -0.0179  0.7421  0.4147
   8223SM  C11F10957   3.612  -0.711  13.696  0.4710  0.1251  0.3473
   8223SM  H11F10958   3.537  -0.630  13.711 -0.5314 -0.7751  0.2636
   8223SM  H11G10959   3.709  -0.656  13.689  0.3166  0.3046 -0.3961
   8223SM  C12F10960   3.619  -0.810  13.806  0.2840 -0.4519  0.2503
   8223SM  H12F10961   3.710  -0.872  13.787 -0.1096 -1.0309  0.2110
   8223SM  H12G10962   3.525  -0.869  13.797 -0.9516  1.7585 -3.4366
   8223SM  C13F10963   3.626  -0.744  13.949  0.2161 -0.0411  0.1138
   8223SM  H13F10964   3.668  -0.645  13.922 -1.5383  0.2780 -1.5949
   8223SM  H13G10965   3.698  -0.802  14.012 -1.8798 -1.5389  1.2557
   8223SM  C14F10966   3.501  -0.737  14.037  0.1388 -0.0453  0.2050
   8223SM  H14F10967   3.476  -0.844  14.055  1.5844 -0.1423  1.9236
   8223SM  H14G10968   3.415  -0.692  13.982 -0.3761 -0.9366  0.2637
   8223SM  C15F10969   3.530  -0.667  14.169 -0.7149 -0.2101  0.0743
   8223SM  H15F10970   3.531  -0.557  14.157 -0.1907 -0.1457  0.6376
   8223SM  H15G10971   3.636  -0.683  14.198 -0.1648  0.9827 -1.1608
   8223SM  C16F10972   3.438  -0.702  14.281  0.5895 -0.2771 -0.1335
   8223SM  H16F10973   3.432  -0.812  14.291  1.5287 -0.2535  0.8662
   8223SM  H16G10974   3.338  -0.659  14.259  0.6573  1.5360  2.5961
   8223SM  C17F10975   3.479  -0.639  14.415 -0.7849  0.3950 -0.3773
   8223SM  H17F10976   3.503  -0.534  14.386 -1.7924  0.0212 -2.8199
   8223SM  H17G10977   3.567  -0.692  14.456 -0.7343 -0.3961 -1.4701
   8223SM  C18F10978   3.363  -0.639  14.520 -0.0749 -0.5015 -0.7436
   8223SM  H18F10979   3.313  -0.738  14.516  0.4651 -0.8496  0.5660
   8223SM  H18G10980   3.292  -0.569  14.472  2.5094  1.3477 -2.1162
   8223SM  C19F10981   3.390  -0.589  14.659 -0.3859 -0.7539  0.1325
   8223SM  H19F10982   3.432  -0.487  14.650 -1.9909 -0.0394  0.4099
   8223SM  H19G10983   3.463  -0.654  14.712 -0.2414 -0.3835  0.3854
   8223SM  C20F10984   3.264  -0.567  14.745 -0.6671  0.4624  0.4721
   8223SM  H20F10985   3.231  -0.671  14.769  0.7015 -0.5823 -1.7807
   8223SM  H20G10986   3.184  -0.515  14.689 -1.3562 -1.5153 -0.4858
   8223SM  C21F10987   3.300  -0.486  14.873  0.3332 -0.2483 -0.0802
   8223SM  H21F10988   3.342  -0.390  14.837  0.4449 -0.4857 -0.5890
   8223SM  H21G10989   3.377  -0.534  14.938  1.3717 -1.1893 -1.9288
   8223SM  C22F10990   3.173  -0.458  14.955  0.2630  0.6541 -0.3835
   8223SM  H22F10991   3.125  -0.550  14.995  0.0683  0.4541 -1.0739
   8223SM  H22G10992   3.093  -0.424  14.887 -1.1898  0.7981  1.3365
   8223SM  C23F10993   3.210  -0.355  15.063 -0.1388  0.5292  0.4677
   8223SM  H23F10994   3.112  -0.330  15.109 -0.8930  3.2850 -2.3096
   8223SM  H23G10995   3.252  -0.268  15.009  0.5139  0.4682  0.8711
   8223SM  H23H10996   3.285  -0.403  15.129  0.1050  0.4235  0.1214
   8323SM     N10997   4.133   5.619  12.035  0.2182  0.6121  0.2815
   8323SM   C1510998   4.252   5.717  12.009  0.8152 -0.4042  0.3142
   8323SM  H15A10999   4.336   5.689  12.071  1.5925  1.3440  0.1061
   8323SM  H15B11000   4.227   5.821  12.024 -1.0862 -0.7421 -0.2678
   8323SM  H15C11001   4.282   5.700  11.907  0.0385 -0.7419  0.1353
   8323SM   C1411002   4.011   5.657  11.951 -0.3685  0.1087 -0.6085
   8323SM  H14A11003   3.993   5.764  11.951 -1.5708 -0.0793 -0.0994
   8323SM  H14B11004   3.923   5.608  11.988  0.7234 -1.2055  0.3535
   8323SM  H14C11005   4.032   5.623  11.851  1.1630  0.4261 -0.4327
   8323SM   C1311006   4.177   5.481  12.005  0.0284 -0.2760  0.2371
   8323SM  H13A11007   4.095   5.410  12.013 -0.8985  0.9780  2.8946
   8323SM  H13B11008   4.253   5.454  12.076  1.3480  2.7529  0.1059
   8323SM  H13C11009   4.223   5.470  11.908  2.1124  1.2481  0.9792
   8323SM   C1211010   4.089   5.634  12.183  0.0066  0.3300  0.1942
   8323SM  H12A11011   3.999   5.574  12.183  0.4494 -0.3630 -1.0284
   8323SM  H12B11012   4.057   5.736  12.202  0.5430  0.6088 -0.3836
   8323SM   C1111013   4.189   5.601  12.292 -0.2594 -0.6515 -0.1242
   8323SM  H11A11014   4.251   5.521  12.247  0.3372 -0.9118  1.1189
   8323SM  H11B11015   4.146   5.549  12.380  2.0547 -0.4883  1.1980
   8323SM     P11016   4.234   5.826  12.421 -0.3814  0.0427  0.1645
   8323SM   O1311017   4.335   5.936  12.398  0.4364  0.1220 -0.0307
   8323SM   O1411018   4.095   5.864  12.397 -0.3519 -0.2482  0.0862
   8323SM   O1111019   4.254   5.761  12.562 -0.1282  0.2727 -0.0883
   8323SM   O1211020   4.277   5.710  12.324 -0.2498  0.2990 -0.3321
   8323SM   C1S11021   4.354   5.662  12.572  0.1541 -0.1977  0.0281
   8323SM   H1S11022   4.450   5.690  12.523 -0.2116 -1.7758 -1.6962
   8323SM   H1T11023   4.319   5.567  12.527  2.0920  0.2777 -2.7733
   8323SM    NF11024   4.482   5.525  12.732 -0.3157  0.1626  0.0273
   8323SM   HNF11025   4.440   5.440  12.763 -0.6299 -0.7645 -2.6420
   8323SM   C2S11026   4.390   5.634  12.723 -0.6036  0.3556  0.2937
   8323SM   H2S11027   4.442   5.726  12.757  0.0951  0.8148 -1.8392
   8323SM   C3S11028   4.262   5.626  12.807 -0.0570 -0.0501 -0.2535
   8323SM   H3S11029   4.210   5.535  12.770  2.6697 -2.4100  1.2548
   8323SM    O311030   4.167   5.736  12.791  0.5944  0.4377  0.0681
   8323SM   HO311031   4.192   5.773  12.706 -1.0167 -0.1527 -0.7219
   8323SM   C4S11032   4.311   5.601  12.950 -0.2485 -0.0704 -0.2154
   8323SM   H4S11033   4.323   5.492  12.965 -1.8713 -0.1135  1.0671
   8323SM   C5S11034   4.335   5.689  13.048 -0.2861  0.6369  0.6144
   8323SM   H5S11035   4.327   5.795  13.018 -0.4334  0.3947 -0.2182
   8323SM   C6S11036   4.387   5.656  13.186  0.2491  0.5194 -0.9280
   8323SM   H6S11037   4.485   5.704  13.206  0.1289  1.5771 -2.6342
   8323SM   H6T11038   4.412   5.548  13.196  0.7201  0.5917 -1.2754
   8323SM   C7S11039   4.275   5.692  13.294 -0.7345  0.9835  0.8437
   8323SM   H7S11040   4.184   5.639  13.260  0.9518 -1.3372 -0.3517
   8323SM   H7T11041   4.256   5.801  13.291 -0.0318  1.0975 -0.9344
   8323SM   C8S11042   4.315   5.652  13.429  0.1377 -0.2568 -0.3989
   8323SM   H8S11043   4.379   5.562  13.422  0.8710  0.2065  0.2358
   8323SM   H8T11044   4.225   5.628  13.490 -1.1179  0.2169 -1.9785
   8323SM   C9S11045   4.386   5.764  13.503 -0.2951 -0.4177  0.6787
   8323SM   H9S11046   4.317   5.847  13.527  0.3845  0.3838 -0.0663
   8323SM   H9T11047   4.461   5.807  13.433  0.2480 -0.2028  1.3755
   8323SM  C10S11048   4.455   5.719  13.633  0.0847 -0.3235  0.1711
   8323SM  H10S11049   4.530   5.792  13.669 -1.0232  0.5405  0.7946
   8323SM  H10T11050   4.497   5.616  13.628 -0.4682 -0.7142  2.4013
   8323SM  C11S11051   4.351   5.709  13.746 -0.3353  0.2051 -0.1534
   8323SM  H11S11052   4.291   5.616  13.736  1.2919 -1.2733  2.6410
   8323SM  H11T11053   4.281   5.794  13.727 -0.2655 -0.0770 -1.8178
   8323SM  C12S11054   4.406   5.722  13.887 -0.2242 -0.4220  0.2246
   8323SM  H12S11055   4.456   5.820  13.895  0.2013 -0.5840 -0.3676
   8323SM  H12T11056   4.488   5.651  13.912 -0.8441 -1.8955 -1.6574
   8323SM  C13S11057   4.301   5.713  13.991  0.9105 -0.1328  0.6738
   8323SM  H13S11058   4.249   5.615  13.979  0.6428 -0.0187  0.8910
   8323SM  H13T11059   4.234   5.801  13.989 -0.1702 -0.8806  2.1099
   8323SM  C14S11060   4.354   5.706  14.137 -0.8367  0.3065  0.6574
   8323SM  H14S11061   4.448   5.765  14.146  0.3006 -1.2694 -0.1575
   8323SM  H14T11062   4.387   5.600  14.151  0.6799  0.8280  1.2484
   8323SM  C15S11063   4.263   5.745  14.247  0.4308 -0.0431  0.5819
   8323SM  H15S11064   4.215   5.846  14.244  1.9075  0.6738  0.4299
   8323SM  H15T11065   4.323   5.753  14.340  0.8200 -4.4921  0.9301
   8323SM  C16S11066   4.163   5.631  14.288 -0.1267  0.0838 -0.4756
   8323SM  H16S11067   4.219   5.535  14.295  0.1520  0.2442 -0.5072
   8323SM  H16T11068   4.094   5.632  14.201 -0.2556  0.7898 -0.3673
   8323SM  C17S11069   4.075   5.675  14.406 -0.0188  0.5445  0.3279
   8323SM  H17S11070   4.043   5.777  14.374 -0.8683  0.6294  1.4066
   8323SM  H17T11071   4.145   5.679  14.492 -1.0106  0.4886  1.1605
   8323SM  C18S11072   3.959   5.583  14.439 -0.5028 -0.7399  0.2795
   8323SM  H18S11073   3.890   5.615  14.520 -2.5307 -0.9593 -1.2542
   8323SM  H18T11074   3.998   5.481  14.459  2.3922 -0.0667 -1.3004
   8323SM  H18U11075   3.897   5.571  14.347 -1.1151 -3.7125  0.9811
   8323SM   C1F11076   4.610   5.517  12.676 -0.1053  0.1805 -0.7214
   8323SM    OF11077   4.668   5.619  12.630 -0.0520  0.0532 -0.3253
   8323SM   C2F11078   4.680   5.382  12.682  0.2820  0.1075 -0.1889
   8323SM   H2F11079   4.784   5.398  12.645  0.3159  0.3448  0.0105
   8323SM   H2G11080   4.625   5.320  12.608  1.1201 -1.1910  0.2330
   8323SM   C3F11081   4.677   5.315  12.829  0.0826  0.2857  0.5850
   8323SM   H3F11082   4.765   5.247  12.826 -0.4791 -0.4362 -2.0602
   8323SM   H3G11083   4.594   5.242  12.841  2.1472 -2.5393 -1.1564
   8323SM   C4F11084   4.680   5.398  12.957  0.5925  0.1304  0.3753
   8323SM   H4F11085   4.578   5.442  12.963  0.8973  0.8159  0.6627
   8323SM   H4G11086   4.761   5.474  12.948 -0.0675  0.8824  0.6079
   8323SM   C5F11087   4.705   5.310  13.082 -0.3978  0.0830  0.5054
   8323SM   H5F11088   4.796   5.249  13.059  0.1694  0.3472  1.9261
   8323SM   H5G11089   4.619   5.242  13.098  0.7966 -1.9058 -0.9836
   8323SM   C6F11090   4.719   5.392  13.213 -0.4694 -0.1631  0.0415
   8323SM   H6F11091   4.634   5.464  13.213 -2.6882 -2.6176 -1.0072
   8323SM   H6G11092   4.814   5.450  13.211  0.6881 -1.9960 -0.3823
   8323SM   C7F11093   4.701   5.302  13.347 -0.9046 -0.0223 -0.2276
   8323SM   H7F11094   4.753   5.204  13.349 -0.6385  0.1285  0.5884
   8323SM   H7G11095   4.592   5.282  13.357 -1.3495  2.5850  1.1253
   8323SM   C8F11096   4.745   5.372  13.478 -0.2916 -0.0063 -0.2615
   8323SM   H8F11097   4.700   5.473  13.481 -1.1015 -0.3802  2.6823
   8323SM   H8G11098   4.854   5.393  13.473  0.2482 -2.2930  0.7144
   8323SM   C9F11099   4.721   5.286  13.607 -0.0119  0.2342 -0.1973
   8323SM   H9F11100   4.777   5.194  13.577 -1.0980 -0.4689 -0.1321
   8323SM   H9G11101   4.611   5.269  13.603 -0.3141  1.5105  1.6783
   8323SM  C10F11102   4.747   5.358  13.738 -0.5851 -0.0943 -0.2136
   8323SM  H10F11103   4.670   5.438  13.743  0.2676  0.6714  1.6031
   8323SM  H10G11104   4.844   5.408  13.721 -0.7805 -0.4283 -2.6692
   8323SM  C11F11105   4.751   5.276  13.873 -0.0602 -0.9398 -0.5336
   8323SM  H11F11106   4.848   5.222  13.875  0.9746  0.7068  3.2993
   8323SM  H11G11107   4.663   5.208  13.875 -0.1731 -0.7867 -0.1210
   8323SM  C12F11108   4.751   5.369  14.001  0.0677  0.3816  0.6840
   8323SM  H12F11109   4.653   5.419  14.016  0.9768  2.5250 -0.1430
   8323SM  H12G11110   4.829   5.446  13.986  0.6803  0.4875  3.8706
   8323SM  C13F11111   4.789   5.291  14.131 -0.4627  0.1706  0.2294
   8323SM  H13F11112   4.895   5.259  14.121 -0.4806  0.2787 -0.3222
   8323SM  H13G11113   4.728   5.203  14.158 -0.2086  0.4699  1.8669
   8323SM  C14F11114   4.769   5.383  14.256 -0.7100 -0.0786 -0.2204
   8323SM  H14F11115   4.797   5.490  14.247 -1.0866 -0.0596 -1.3821
   8323SM  H14G11116   4.843   5.343  14.328 -0.4749 -0.5290 -0.7020
   8323SM  C15F11117   4.624   5.393  14.307 -0.4936 -0.4950  1.0532
   8323SM  H15F11118   4.596   5.287  14.326 -1.2226 -0.3877  0.6068
   8323SM  H15G11119   4.561   5.440  14.229  0.6726  0.6347  0.7654
   8323SM  C16F11120   4.612   5.466  14.442 -0.0980 -0.1717 -0.1518
   8323SM  H16F11121   4.627   5.575  14.424  2.0590 -0.5351 -0.8665
   8323SM  H16G11122   4.685   5.437  14.521  0.4994  0.6221 -0.3961
   8323SM  C17F11123   4.478   5.462  14.511 -0.6226 -0.2623  0.2111
   8323SM  H17F11124   4.455   5.358  14.542  1.4402 -1.0025 -0.5778
   8323SM  H17G11125   4.393   5.489  14.445 -0.2521 -4.3952 -2.2957
   8323SM  C18F11126   4.485   5.554  14.639  0.4674 -0.1273 -0.0936
   8323SM  H18F11127   4.504   5.658  14.604  0.8043 -0.2587 -0.3156
   8323SM  H18G11128   4.575   5.523  14.696  2.7170  0.7366 -2.8945
   8323SM  C19F11129   4.356   5.546  14.731  0.1001  0.1110 -0.4159
   8323SM  H19F11130   4.370   5.457  14.797  0.7525  0.5205  0.0154
   8323SM  H19G11131   4.273   5.536  14.659 -0.2672  3.9798 -0.7283
   8323SM  C20F11132   4.323   5.665  14.824  0.3488  0.2790 -0.3929
   8323SM  H20F11133   4.294   5.749  14.757 -0.2915  0.2329 -0.1862
   8323SM  H20G11134   4.410   5.683  14.890 -0.8605 -0.3215  1.4554
   8323SM  C21F11135   4.195   5.640  14.920 -0.0921  0.2347  0.8453
   8323SM  H21F11136   4.226   5.558  14.988 -0.7746 -1.2528 -0.5653
   8323SM  H21G11137   4.115   5.611  14.849  0.3437  2.6354 -0.7472
   8323SM  C22F11138   4.138   5.763  15.002  0.0444 -0.0556  0.0379
   8323SM  H22F11139   4.128   5.850  14.934 -0.3597 -1.2988 -1.5765
   8323SM  H22G11140   4.206   5.793  15.085  0.6117  1.9001 -1.0784
   8323SM  C23F11141   3.999   5.733  15.061  0.6203  0.3695  0.2909
   8323SM  H23F11142   4.013   5.645  15.128 -2.8660 -2.0500 -1.8176
   8323SM  H23G11143   3.933   5.709  14.975  1.3530 -3.9493  0.7122
   8323SM  H23H11144   3.953   5.818  15.115 -0.2860 -0.4146  0.7630
   8423SM     N11145   3.605   4.077  12.067 -0.8145  0.2597  0.2882
   8423SM   C1511146   3.616   4.119  11.923  0.3019 -0.2031 -0.5967
   8423SM  H15A11147   3.643   4.223  11.916 -0.1539 -0.0210  0.2828
   8423SM  H15B11148   3.522   4.119  11.870 -0.1206  2.3224  0.0125
   8423SM  H15C11149   3.688   4.058  11.869  0.9035  1.2601 -1.5091
   8423SM   C1411150   3.522   4.164  12.148 -0.3391 -0.3989 -0.2287
   8423SM  H14A11151   3.493   4.112  12.237 -0.1169 -0.5460 -0.2412
   8423SM  H14B11152   3.435   4.212  12.104  0.3027  2.0203  0.9631
   8423SM  H14C11153   3.576   4.253  12.176 -2.1343  0.5784  0.2880
   8423SM   C1311154   3.539   3.938  12.066  0.1098 -0.3764  0.5270
   8423SM  H13A11155   3.531   3.891  12.162 -1.5175 -2.8113 -0.6814
   8423SM  H13B11156   3.609   3.872  12.018  0.8801  0.0308  1.0721
   8423SM  H13C11157   3.447   3.961  12.014  0.9628  3.4358  0.3999
   8423SM   C1211158   3.745   4.056  12.117 -0.1207 -0.1818  0.4985
   8423SM  H12A11159   3.786   4.150  12.149  0.7335 -0.6768  0.9006
   8423SM  H12B11160   3.803   4.025  12.031 -0.6466 -0.4415  0.2333
   8423SM   C1111161   3.762   3.968  12.246  0.1973 -0.7823  0.0843
   8423SM  H11A11162   3.678   4.006  12.308  1.8449  2.2430  0.6692
   8423SM  H11B11163   3.852   3.995  12.306  0.7982 -1.6651 -0.4065
   8423SM     P11164   3.887   3.753  12.175 -0.0017  0.1643  0.5697
   8423SM   O1311165   3.834   3.630  12.106  0.3898  0.2260  0.1588
   8423SM   O1411166   3.979   3.840  12.099 -0.3065 -0.7459 -0.0822
   8423SM   O1111167   3.953   3.711  12.314 -0.4420 -0.2774 -0.0846
   8423SM   O1211168   3.756   3.823  12.222 -0.5135 -0.0946  0.0804
   8423SM   C1S11169   3.884   3.655  12.424  0.1808 -0.1454 -0.1077
   8423SM   H1S11170   3.865   3.551  12.390 -0.8923 -0.0597  0.1736
   8423SM   H1T11171   3.792   3.707  12.460 -0.1270 -1.2903  0.8194
   8423SM    NF11172   3.922   3.548  12.652  0.1539  0.4008  0.3185
   8423SM   HNF11173   3.910   3.596  12.739  1.4317  2.0679 -0.3829
   8423SM   C2S11174   3.980   3.636  12.549 -0.4712  0.3718  0.2172
   8423SM   H2S11175   4.070   3.581  12.513 -0.3208  1.2801 -0.8504
   8423SM   C3S11176   4.029   3.775  12.603  0.9714  0.3114  0.2391
   8423SM   H3S11177   3.931   3.825  12.617  1.6205  2.5128 -2.2774
   8423SM    O311178   4.094   3.849  12.509 -0.1294  0.3200  0.6693
   8423SM   HO311179   4.082   3.808  12.424 -0.2414  1.8911 -0.1200
   8423SM   C4S11180   4.102   3.756  12.733  0.8887 -0.3197 -0.2295
   8423SM   H4S11181   4.174   3.674  12.744  0.5436 -0.6835 -0.6319
   8423SM   C5S11182   4.093   3.837  12.836 -0.1612  0.0237  0.6142
   8423SM   H5S11183   4.027   3.925  12.831  1.1730  1.0075 -0.2345
   8423SM   C6S11184   4.168   3.820  12.968  0.5611 -0.1904 -0.1209
   8423SM   H6S11185   4.220   3.918  12.972  0.1462  0.1341 -1.9010
   8423SM   H6T11186   4.243   3.739  12.959  0.7639 -0.2466  1.7641
   8423SM   C7S11187   4.071   3.801  13.085  0.2509 -0.5658  0.3507
   8423SM   H7S11188   3.992   3.728  13.061 -0.2839 -0.7710  2.5007
   8423SM   H7T11189   4.023   3.901  13.097 -0.3729 -0.7828 -0.2492
   8423SM   C8S11190   4.132   3.758  13.221 -0.8512  0.0088 -0.2706
   8423SM   H8S11191   4.227   3.817  13.221 -0.8481  0.0080 -0.6966
   8423SM   H8T11192   4.145   3.648  13.223 -0.2855  0.0759  0.1195
   8423SM   C9S11193   4.044   3.789  13.346  0.1180 -0.1052 -0.6244
   8423SM   H9S11194   3.944   3.742  13.333 -0.9784  1.5179  1.3137
   8423SM   H9T11195   4.027   3.898  13.361  0.6191 -0.3277  2.2179
   8423SM  C10S11196   4.112   3.734  13.476 -0.0411 -0.1610  0.2988
   8423SM  H10S11197   4.212   3.782  13.482 -0.6382  1.0572  0.9938
   8423SM  H10T11198   4.121   3.627  13.449 -0.3399 -0.4175  1.1955
   8423SM  C11S11199   4.037   3.778  13.600  0.5759  0.1700  0.3453
   8423SM  H11S11200   3.953   3.708  13.618  1.1981 -0.7736 -0.3476
   8423SM  H11T11201   4.014   3.887  13.592  1.7699  0.5526  1.7124
   8423SM  C12S11202   4.125   3.772  13.726 -0.3023 -0.2028  0.1661
   8423SM  H12S11203   4.191   3.861  13.724  0.2586 -0.5576 -2.9630
   8423SM  H12T11204   4.191   3.683  13.731 -0.0873 -0.0461  0.0945
   8423SM  C13S11205   4.038   3.769  13.848 -0.3834 -0.3100 -0.0727
   8423SM  H13S11206   3.977   3.676  13.856 -0.4282 -0.6838 -3.2613
   8423SM  H13T11207   3.975   3.860  13.847 -0.3181 -0.2008  1.9042
   8423SM  C14S11208   4.125   3.793  13.973 -0.6257  0.7512 -0.2586
   8423SM  H14S11209   4.168   3.895  13.969  1.7856 -0.1132  1.5598
   8423SM  H14T11210   4.214   3.727  13.967 -1.8031 -0.8309 -1.3501
   8423SM  C15S11211   4.047   3.762  14.102 -0.1326 -0.0526 -0.6841
   8423SM  H15S11212   4.007   3.658  14.099 -0.2805  0.0127 -0.9904
   8423SM  H15T11213   3.961   3.831  14.111  0.1119 -0.0504  3.0338
   8423SM  C16S11214   4.131   3.781  14.233  0.5777 -0.1000 -0.0708
   8423SM  H16S11215   4.171   3.884  14.223 -0.7155  0.6384  1.7608
   8423SM  H16T11216   4.211   3.704  14.236 -0.4546 -1.1817  0.5317
   8423SM  C17S11217   4.048   3.758  14.358  0.5440  0.3606 -0.1114
   8423SM  H17S11218   3.987   3.669  14.331 -1.2727  0.9030  1.8502
   8423SM  H17T11219   3.970   3.836  14.371 -2.0223 -2.3039  1.8219
   8423SM  C18S11220   4.136   3.736  14.476  0.0784 -0.0313 -0.3867
   8423SM  H18S11221   4.086   3.739  14.575  1.5465 -0.0777  0.3668
   8423SM  H18T11222   4.205   3.821  14.491 -1.9000  1.3988  1.1624
   8423SM  H18U11223   4.200   3.646  14.474 -1.8120 -1.4916  1.0167
   8423SM   C1F11224   3.923   3.417  12.643  0.5146  1.0777 -0.4690
   8423SM    OF11225   3.957   3.366  12.539  0.3612 -0.2246  0.1788
   8423SM   C2F11226   3.876   3.334  12.758 -0.0505 -0.1182  0.3152
   8423SM   H2F11227   3.891   3.226  12.736  0.5949  0.0752 -0.2145
   8423SM   H2G11228   3.772   3.362  12.786 -0.3729  2.2792 -2.6391
   8423SM   C3F11229   3.965   3.369  12.874 -0.2529  0.0463  0.3431
   8423SM   H3F11230   3.934   3.301  12.956  0.8061  0.4117  1.0692
   8423SM   H3G11231   3.942   3.469  12.919  2.2171  0.3724  1.0318
   8423SM   C4F11232   4.116   3.359  12.863 -0.2094  0.0967  0.4699
   8423SM   H4F11233   4.151   3.439  12.795  0.2338  0.7644  1.4599
   8423SM   H4G11234   4.142   3.257  12.826  0.8084  1.0733 -1.6765
   8423SM   C5F11235   4.185   3.389  12.996 -0.4474  0.7937 -0.0907
   8423SM   H5F11236   4.152   3.485  13.041 -0.7560 -0.4827  2.6308
   8423SM   H5G11237   4.295   3.403  12.987 -0.5135  2.0355  0.9205
   8423SM   C6F11238   4.164   3.287  13.108  0.1120  0.2724 -0.1438
   8423SM   H6F11239   4.200   3.189  13.070  0.3809 -0.3036  1.5000
   8423SM   H6G11240   4.055   3.293  13.126  0.4111  1.2345  1.5078
   8423SM   C7F11241   4.245   3.328  13.231  0.3061  0.4610 -0.4649
   8423SM   H7F11242   4.240   3.439  13.235 -0.8657  0.4768 -1.6074
   8423SM   H7G11243   4.351   3.306  13.205  1.0268  0.3749  2.2792
   8423SM   C8F11244   4.210   3.260  13.358  0.1361  0.3480 -0.4554
   8423SM   H8F11245   4.215   3.151  13.340  1.2673  0.9298 -4.6779
   8423SM   H8G11246   4.104   3.267  13.390  0.3770 -0.4500  0.5710
   8423SM   C9F11247   4.288   3.307  13.481  0.1046  0.0950 -0.4407
   8423SM   H9F11248   4.304   3.415  13.457  3.0585 -0.5657 -1.9035
   8423SM   H9G11249   4.394   3.273  13.478  0.0157 -0.0942 -2.5854
   8423SM  C10F11250   4.218   3.286  13.620  0.1122  0.0210  0.0255
   8423SM  H10F11251   4.221   3.175  13.632 -1.1121 -0.1390 -0.8426
   8423SM  H10G11252   4.111   3.316  13.623 -0.1831 -1.0402  0.9911
   8423SM  C11F11253   4.283   3.365  13.728  0.7002  0.2006 -0.3396
   8423SM  H11F11254   4.265   3.474  13.719  0.1105  0.0199 -1.4261
   8423SM  H11G11255   4.392   3.345  13.716  0.9168 -0.3215  1.9060
   8423SM  C12F11256   4.235   3.312  13.870  0.1902  0.3573  0.2698
   8423SM  H12F11257   4.270   3.207  13.872 -0.0934  0.1795 -1.7835
   8423SM  H12G11258   4.125   3.304  13.886  0.3733 -1.2284  0.8649
   8423SM  C13F11259   4.284   3.383  13.991  0.3983 -0.1999  0.2998
   8423SM  H13F11260   4.246   3.486  13.977  0.4098 -0.3309 -0.7523
   8423SM  H13G11261   4.395   3.391  13.997  0.4043  1.4708 -1.3394
   8423SM  C14F11262   4.238   3.321  14.123 -1.0919 -0.0160  0.5926
   8423SM  H14F11263   4.260   3.212  14.129 -2.8686 -0.4904 -0.7863
   8423SM  H14G11264   4.128   3.335  14.124 -1.1684 -0.4801 -0.3997
   8423SM  C15F11265   4.307   3.377  14.249  0.0696 -0.3843  0.0496
   8423SM  H15F11266   4.271   3.481  14.268  1.0384  0.1268 -0.8624
   8423SM  H15G11267   4.417   3.382  14.232 -0.0119  1.6512 -0.1837
   8423SM  C16F11268   4.302   3.282  14.364  0.3089  0.2270 -0.1972
   8423SM  H16F11269   4.379   3.306  14.440 -1.7286 -0.2830  2.1253
   8423SM  H16G11270   4.327   3.179  14.330 -0.4843  0.0883 -0.3729
   8423SM  C17F11271   4.162   3.294  14.434 -0.3178 -0.0788 -0.2264
   8423SM  H17F11272   4.082   3.282  14.358 -0.2797  0.8949 -0.4347
   8423SM  H17G11273   4.153   3.399  14.470  0.7823  0.0779 -0.3763
   8423SM  C18F11274   4.143   3.182  14.545  0.4629 -0.1640 -0.2917
   8423SM  H18F11275   4.233   3.164  14.607 -0.5282 -0.3888  1.1333
   8423SM  H18G11276   4.109   3.091  14.490 -2.1504  1.5237 -1.6895
   8423SM  C19F11277   4.029   3.226  14.638 -0.9857 -0.8637  0.1085
   8423SM  H19F11278   3.939   3.258  14.581 -1.1971 -0.1634  0.8199
   8423SM  H19G11279   4.071   3.313  14.693 -1.8120 -0.4672  0.1126
   8423SM  C20F11280   3.996   3.128  14.753 -0.0509  0.4532  0.0683
   8423SM  H20F11281   3.952   3.178  14.842 -0.4022 -3.6845  2.4568
   8423SM  H20G11282   4.095   3.083  14.777  0.4883  0.6997 -1.5892
   8423SM  C21F11283   3.908   3.009  14.709 -0.8153 -0.4106 -0.3196
   8423SM  H21F11284   3.966   2.934  14.651 -1.0461 -2.0868  1.5176
   8423SM  H21G11285   3.825   3.039  14.642 -0.5252 -0.8292 -0.8793
   8423SM  C22F11286   3.862   2.926  14.831  0.0536  0.3034 -0.1616
   8423SM  H22F11287   3.952   2.878  14.876 -1.4855  0.2129  3.0964
   8423SM  H22G11288   3.804   2.837  14.799  0.4902  1.0259 -3.3567
   8423SM  C23F11289   3.778   2.989  14.945  0.3494 -0.6282 -0.4374
   8423SM  H23F11290   3.675   3.026  14.930  1.0144  2.9788  2.5734
   8423SM  H23G11291   3.830   3.080  14.982 -2.5510  0.0783  2.2213
   8423SM  H23H11292   3.783   2.914  15.026  0.5348  0.6801  0.7947
   8523SM     N11293   5.415   5.150  12.185 -0.4577 -0.1969  0.0392
   8523SM   C1511294   5.531   5.126  12.095  0.3173  0.2895  0.3299
   8523SM  H15A11295   5.621   5.184  12.113  0.3358  0.5119 -0.4560
   8523SM  H15B11296   5.509   5.128  11.989  0.5931 -1.5441  0.2023
   8523SM  H15C11297   5.575   5.028  12.104 -0.2711  0.1809  2.5639
   8523SM   C1411298   5.459   5.178  12.325 -0.5571 -0.4723  0.7904
   8523SM  H14A11299   5.517   5.098  12.368  1.3962  0.6721  0.4388
   8523SM  H14B11300   5.379   5.210  12.389  1.3530 -0.1853  3.1865
   8523SM  H14C11301   5.535   5.255  12.328  1.3338 -2.1699 -0.5550
   8523SM   C1311302   5.352   5.275  12.142 -0.7034 -0.4878  0.3558
   8523SM  H13A11303   5.304   5.275  12.045  1.5479  2.1651 -0.9017
   8523SM  H13B11304   5.415   5.361  12.159  1.0323 -0.9760 -2.7214
   8523SM  H13C11305   5.264   5.292  12.202 -1.4431  0.9672 -1.0655
   8523SM   C1211306   5.324   5.030  12.177 -0.5012 -0.1713  0.3399
   8523SM  H12A11307   5.295   5.026  12.073  0.0215 -2.5179  0.2409
   8523SM  H12B11308   5.237   5.047  12.238 -2.6010 -0.2082 -2.4361
   8523SM   C1111309   5.378   4.884  12.205 -0.5259 -0.2916 -0.1432
   8523SM  H11A11310   5.469   4.871  12.143 -0.8092 -1.4865 -0.3311
   8523SM  H11B11311   5.309   4.808  12.162  0.3137 -1.6269  0.7973
   8523SM     P11312   5.302   4.817  12.436  0.1924  0.1384  0.8730
   8523SM   O1311313   5.166   4.852  12.384  0.3851 -0.7462 -0.3676
   8523SM   O1411314   5.317   4.673  12.463 -0.1671  0.1073  0.0636
   8523SM   O1111315   5.331   4.878  12.572 -0.0800 -0.2905  0.0353
   8523SM   O1211316   5.417   4.866  12.340 -0.2485 -0.3327 -0.1592
   8523SM   C1S11317   5.459   4.931  12.601 -0.6806  0.0853 -0.2643
   8523SM   H1S11318   5.483   5.027  12.550 -1.0863  0.1824 -0.2770
   8523SM   H1T11319   5.545   4.867  12.573  2.0140  3.3985 -0.3063
   8523SM    NF11320   5.578   5.062  12.773 -0.3865  0.3044  0.4459
   8523SM   HNF11321   5.654   5.023  12.825 -0.8946  0.9923  1.7506
   8523SM   C2S11322   5.467   4.968  12.755  0.5956 -0.1107  0.2691
   8523SM   H2S11323   5.373   5.013  12.793  1.5783  1.7644  0.5811
   8523SM   C3S11324   5.479   4.830  12.836  0.0240 -0.1758 -0.5903
   8523SM   H3S11325   5.572   4.776  12.809 -1.4034 -2.8456 -0.4960
   8523SM    O311326   5.376   4.741  12.806 -0.0839  0.3797  0.6089
   8523SM   HO311327   5.344   4.774  12.722  1.4722  0.5620  0.0464
   8523SM   C4S11328   5.479   4.862  12.984 -0.3928 -0.3897  0.2491
   8523SM   H4S11329   5.385   4.878  13.040  0.4902 -0.8391  1.9098
   8523SM   C5S11330   5.592   4.845  13.055  0.0935  0.5184 -0.9939
   8523SM   H5S11331   5.674   4.789  13.008 -0.8652  0.3312 -2.5245
   8523SM   C6S11332   5.609   4.845  13.206  0.1322  0.6883 -0.2292
   8523SM   H6S11333   5.620   4.947  13.250  0.5256  0.7071 -0.3664
   8523SM   H6T11334   5.692   4.784  13.247 -0.6600  0.2478  0.7657
   8523SM   C7S11335   5.488   4.774  13.268 -0.3487 -0.1436  0.3498
   8523SM   H7S11336   5.467   4.675  13.223 -0.0005 -0.4073  0.7569
   8523SM   H7T11337   5.398   4.837  13.256  0.2343  0.7373  0.4471
   8523SM   C8S11338   5.501   4.755  13.425 -0.7216 -0.4410  0.7400
   8523SM   H8S11339   5.599   4.707  13.445  0.0045  1.7869  3.1075
   8523SM   H8T11340   5.419   4.682  13.439 -1.8722  0.3364 -1.4835
   8523SM   C9S11341   5.495   4.883  13.514 -0.2370  0.7958  0.7124
   8523SM   H9S11342   5.404   4.935  13.478 -1.1341 -0.7207  0.7041
   8523SM   H9T11343   5.578   4.955  13.498  0.7880 -0.5348 -0.2071
   8523SM  C10S11344   5.501   4.862  13.669  0.1884 -0.4675  0.3766
   8523SM  H10S11345   5.421   4.791  13.698  1.9253 -2.7542 -0.1433
   8523SM  H10T11346   5.473   4.957  13.720 -1.0721 -0.2900 -0.5947
   8523SM  C11S11347   5.637   4.817  13.731 -0.6462  0.0194 -0.1933
   8523SM  H11S11348   5.702   4.907  13.721 -1.7087  0.6561 -1.6510
   8523SM  H11T11349   5.668   4.729  13.672 -2.1333 -0.4674 -0.2786
   8523SM  C12S11350   5.612   4.779  13.874  0.3835  0.3201  0.1307
   8523SM  H12S11351   5.651   4.676  13.886  2.2363  0.9965  0.2424
   8523SM  H12T11352   5.504   4.777  13.899  0.0688  0.5414 -1.1084
   8523SM  C13S11353   5.699   4.860  13.970  0.8909 -0.0776 -0.9573
   8523SM  H13S11354   5.659   4.962  13.989 -0.5006 -0.4143 -1.9516
   8523SM  H13T11355   5.798   4.873  13.922  1.7718  1.4724  1.1480
   8523SM  C14S11356   5.690   4.785  14.105 -0.3534 -0.1450 -0.1408
   8523SM  H14S11357   5.750   4.693  14.093  0.1400  0.3944 -2.0221
   8523SM  H14T11358   5.584   4.765  14.132 -0.5621  1.8431  0.6612
   8523SM  C15S11359   5.751   4.871  14.224  0.2374 -0.1688  0.2969
   8523SM  H15S11360   5.673   4.949  14.239 -1.8858 -1.4387 -3.0966
   8523SM  H15T11361   5.842   4.921  14.184 -0.0348 -0.0514 -0.1791
   8523SM  C16S11362   5.790   4.789  14.349  0.2812 -0.6592  0.1724
   8523SM  H16S11363   5.843   4.696  14.319 -0.1998 -0.9536  0.2388
   8523SM  H16T11364   5.692   4.754  14.386  0.0744 -0.7081 -0.4144
   8523SM  C17S11365   5.865   4.875  14.445  0.0393 -0.4522  0.2999
   8523SM  H17S11366   5.811   4.957  14.496 -0.1065 -1.5542  2.0005
   8523SM  H17T11367   5.947   4.917  14.383 -1.4455  0.2281 -1.2881
   8523SM  C18S11368   5.935   4.793  14.560  0.6837  0.7934  0.2741
   8523SM  H18S11369   5.968   4.695  14.519  0.1258  0.5703  0.3514
   8523SM  H18T11370   5.852   4.768  14.629 -0.1928 -1.0692 -1.3409
   8523SM  H18U11371   6.023   4.844  14.605  2.0240  0.9025 -2.2719
   8523SM   C1F11372   5.568   5.192  12.743  0.0601  0.1299  0.7662
   8523SM    OF11373   5.469   5.236  12.680  0.0270  0.0506 -0.1361
   8523SM   C2F11374   5.675   5.282  12.799  0.3344 -0.1662  0.8531
   8523SM   H2F11375   5.740   5.325  12.721 -0.1687  1.2435  1.1770
   8523SM   H2G11376   5.750   5.225  12.858 -0.4608 -2.2968 -0.0710
   8523SM   C3F11377   5.618   5.393  12.878  0.2398 -0.0144 -0.4021
   8523SM   H3F11378   5.563   5.470  12.820 -1.2559  0.3044  1.3105
   8523SM   H3G11379   5.702   5.462  12.902 -0.5339  1.4876 -1.8106
   8523SM   C4F11380   5.538   5.352  13.004  0.3516  0.0072  0.9758
   8523SM   H4F11381   5.464   5.274  12.977  0.5211  0.1782 -0.0468
   8523SM   H4G11382   5.486   5.446  13.031 -1.0951 -0.9179  1.5390
   8523SM   C5F11383   5.627   5.319  13.119  0.0106  0.0031 -0.1688
   8523SM   H5F11384   5.683   5.413  13.139  0.4099 -0.3207  0.2472
   8523SM   H5G11385   5.700   5.238  13.095  0.2045 -0.0296  0.5227
   8523SM   C6F11386   5.565   5.281  13.255  0.1504 -0.5959 -0.0731
   8523SM   H6F11387   5.487   5.204  13.238 -1.4967  0.8627  0.4793
   8523SM   H6G11388   5.510   5.368  13.298 -1.5310 -1.1550 -1.0028
   8523SM   C7F11389   5.648   5.228  13.373  0.2016  0.3348  0.2376
   8523SM   H7F11390   5.745   5.283  13.361 -0.8111  1.9827 -0.8450
   8523SM   H7G11391   5.667   5.120  13.355  1.9213  0.7021 -0.4266
   8523SM   C8F11392   5.590   5.260  13.510 -0.3962 -0.6974 -0.0001
   8523SM   H8F11393   5.488   5.222  13.532  0.1124 -1.9300  0.3382
   8523SM   H8G11394   5.584   5.370  13.516 -1.1221 -0.8051  1.9907
   8523SM   C9F11395   5.679   5.212  13.629 -0.0268  0.7316 -0.2325
   8523SM   H9F11396   5.776   5.266  13.620 -0.5684  1.5630 -1.2914
   8523SM   H9G11397   5.703   5.104  13.621 -0.1921  0.8128 -2.6030
   8523SM  C10F11398   5.613   5.241  13.765 -0.2217 -0.2991  0.2917
   8523SM  H10F11399   5.539   5.161  13.784 -3.2184  2.5355  1.5513
   8523SM  H10G11400   5.544   5.327  13.751  0.6694  0.5083  0.7691
   8523SM  C11F11401   5.708   5.251  13.877  0.1180 -0.8710 -0.5902
   8523SM  H11F11402   5.782   5.334  13.864  0.1196 -0.7778  0.0235
   8523SM  H11G11403   5.769   5.159  13.889  0.0036 -0.9580 -0.6712
   8523SM  C12F11404   5.628   5.272  14.012  0.8229 -0.6885  0.1968
   8523SM  H12F11405   5.545   5.199  14.015 -0.0244  0.2857  1.6457
   8523SM  H12G11406   5.576   5.370  14.016  0.3732 -0.9426  0.8722
   8523SM  C13F11407   5.722   5.267  14.126  0.1607  0.2125 -1.2374
   8523SM  H13F11408   5.800   5.346  14.116  1.5549 -0.9417 -0.0547
   8523SM  H13G11409   5.785   5.176  14.136 -0.3576 -0.0800 -0.5012
   8523SM  C14F11410   5.658   5.276  14.264 -0.2211 -0.1968  0.4747
   8523SM  H14F11411   5.597   5.184  14.277 -1.1837  0.3850  0.1856
   8523SM  H14G11412   5.594   5.368  14.264  0.4447  0.2926 -0.8747
   8523SM  C15F11413   5.763   5.296  14.369  0.2144 -0.0352  0.3089
   8523SM  H15F11414   5.833   5.380  14.349  0.1810  0.2614  1.3690
   8523SM  H15G11415   5.832   5.208  14.370 -0.9524 -1.0771 -2.3223
   8523SM  C16F11416   5.701   5.314  14.503  0.3419  0.2808 -0.1347
   8523SM  H16F11417   5.657   5.220  14.544 -2.4487  1.1518 -0.8896
   8523SM  H16G11418   5.625   5.395  14.500  0.5963  0.5124 -2.8787
   8523SM  C17F11419   5.810   5.329  14.614  0.1313 -0.2185  0.6182
   8523SM  H17F11420   5.898   5.261  14.604  0.5029  0.3489 -0.1481
   8523SM  H17G11421   5.759   5.316  14.712  0.6371 -1.1745  0.7606
   8523SM  C18F11422   5.887   5.468  14.626 -0.2665  0.0069 -0.6303
   8523SM  H18F11423   5.950   5.463  14.535  2.8236  0.4573  1.3087
   8523SM  H18G11424   5.942   5.470  14.723  0.4894 -0.9714 -1.0272
   8523SM  C19F11425   5.793   5.583  14.643 -0.6214  0.5280 -0.1562
   8523SM  H19F11426   5.723   5.569  14.729 -1.6922 -2.0129 -1.3426
   8523SM  H19G11427   5.730   5.580  14.552 -0.4782  2.6593 -0.3881
   8523SM  C20F11428   5.867   5.721  14.645  0.5043  0.0613  0.0153
   8523SM  H20F11429   5.784   5.795  14.649  0.7937  0.3474  1.7164
   8523SM  H20G11430   5.946   5.750  14.573  1.0392  0.7894  0.8744
   8523SM  C21F11431   5.944   5.741  14.780 -0.0233  0.0690  0.4065
   8523SM  H21F11432   6.043   5.692  14.773 -0.2591 -0.3523 -0.0975
   8523SM  H21G11433   5.893   5.698  14.869  1.0528  1.4930  1.7498
   8523SM  C22F11434   5.958   5.893  14.784  0.2709 -0.4835 -0.0652
   8523SM  H22F11435   5.867   5.948  14.752  0.4810 -0.5678 -0.8127
   8523SM  H22G11436   6.022   5.925  14.700  0.6307  2.6268  1.2541
   8523SM  C23F11437   6.011   5.946  14.921 -0.1152  0.6036 -0.1776
   8523SM  H23F11438   5.937   5.935  15.003  0.0737 -0.5587 -0.1428
   8523SM  H23G11439   6.037   6.053  14.908 -1.2984  1.0876  1.1367
   8523SM  H23H11440   6.103   5.894  14.954 -1.4238 -0.6091  1.7725
   8623SM     N11441   3.896   2.841  12.115  0.2555 -0.5396  0.0540
   8623SM   C1511442   3.999   2.760  12.048 -0.6854 -0.4104 -0.2846
   8623SM  H15A11443   4.060   2.829  11.991 -0.1899 -1.3150 -0.8863
   8623SM  H15B11444   3.968   2.679  11.984  3.9538 -2.4910 -0.3141
   8623SM  H15C11445   4.063   2.730  12.129  1.8631  2.9769 -0.7887
   8623SM   C1411446   3.829   2.924  12.007 -0.2278  0.6792  0.9376
   8623SM  H14A11447   3.793   2.865  11.924 -2.1162  2.4467  0.4329
   8623SM  H14B11448   3.904   2.990  11.966 -0.7945  1.5694  1.3078
   8623SM  H14C11449   3.748   2.980  12.049 -0.9303  1.4436 -1.2965
   8623SM   C1311450   3.802   2.745  12.180  0.2149 -0.4610 -0.1155
   8623SM  H13A11451   3.847   2.692  12.263  0.7440  0.0925 -0.0381
   8623SM  H13B11452   3.776   2.667  12.111 -2.1261 -0.9651  1.2294
   8623SM  H13C11453   3.719   2.800  12.221  1.4426  1.0512  0.4353
   8623SM   C1211454   3.954   2.934  12.219 -0.1485  0.4536 -0.5490
   8623SM  H12A11455   4.007   2.882  12.298  0.0800 -0.1039 -1.0625
   8623SM  H12B11456   3.867   2.976  12.267  0.0974 -1.0164  1.3340
   8623SM   C1111457   4.052   3.043  12.176  0.0148  0.1342 -0.2721
   8623SM  H11A11458   4.077   3.106  12.264  0.3602  2.2589 -1.8068
   8623SM  H11B11459   4.007   3.107  12.098  0.8329  0.1411 -0.7561
   8623SM     P11460   4.311   2.993  12.170  0.2392 -0.0310 -0.0289
   8623SM   O1311461   4.392   2.888  12.108  0.3369 -0.0611  0.2444
   8623SM   O1411462   4.349   3.136  12.160  0.1212  0.0333  0.1674
   8623SM   O1111463   4.299   2.952  12.328  0.3420 -0.0394  0.5625
   8623SM   O1211464   4.163   2.981  12.113 -0.1331  0.1710  0.7075
   8623SM   C1S11465   4.395   3.001  12.419 -0.1726  0.3129 -0.4675
   8623SM   H1S11466   4.369   3.107  12.437  1.1759  1.0650 -2.6336
   8623SM   H1T11467   4.494   3.005  12.368 -0.4243 -0.2435 -1.0203
   8623SM    NF11468   4.480   2.984  12.655  0.4114 -0.1014 -0.0305
   8623SM   HNF11469   4.568   2.940  12.669 -0.0526 -0.3025  2.9259
   8623SM   C2S11470   4.399   2.919  12.550  0.3898  0.0416  0.0279
   8623SM   H2S11471   4.293   2.923  12.583  1.1893  0.3498  2.8196
   8623SM   C3S11472   4.440   2.777  12.521 -1.1824  0.2897  0.4508
   8623SM   H3S11473   4.549   2.779  12.498 -0.9963  0.8610  1.3184
   8623SM    O311474   4.373   2.711  12.414  0.0433  0.7467 -0.0800
   8623SM   HO311475   4.334   2.786  12.370  0.1843  1.6871  1.3282
   8623SM   C4S11476   4.429   2.697  12.646  0.1898  0.2329  0.1239
   8623SM   H4S11477   4.325   2.675  12.673  0.2656 -0.9887 -0.5040
   8623SM   C5S11478   4.525   2.630  12.717 -0.8643 -0.1700  0.9837
   8623SM   H5S11479   4.629   2.649  12.686 -1.6029  2.0432 -0.3885
   8623SM   C6S11480   4.506   2.555  12.843  0.4158 -0.1839 -0.3069
   8623SM   H6S11481   4.585   2.580  12.917  0.5543  2.1467 -1.1454
   8623SM   H6T11482   4.511   2.449  12.810  0.1690  0.1976 -1.6534
   8623SM   C7S11483   4.375   2.579  12.920  1.1201 -0.3007 -0.1038
   8623SM   H7S11484   4.288   2.583  12.850  0.8743 -0.0340  0.2142
   8623SM   H7T11485   4.379   2.680  12.966 -2.7369 -0.4900  0.9574
   8623SM   C8S11486   4.345   2.481  13.028 -0.2030  0.3181 -0.5463
   8623SM   H8S11487   4.425   2.469  13.104 -2.2348 -2.4170  1.3653
   8623SM   H8T11488   4.324   2.381  12.985  1.7063  0.3246 -1.6016
   8623SM   C9S11489   4.216   2.512  13.112  0.5212  0.7861 -0.4070
   8623SM   H9S11490   4.136   2.485  13.041  1.3486 -1.2672 -0.6286
   8623SM   H9T11491   4.218   2.621  13.132 -1.9464  0.4998  1.9698
   8623SM  C10S11492   4.195   2.438  13.241  0.1730  0.4399 -0.3749
   8623SM  H10S11493   4.239   2.336  13.233  0.8026  0.6397  0.3966
   8623SM  H10T11494   4.085   2.427  13.250  0.0937 -2.6396 -3.1909
   8623SM  C11S11495   4.254   2.502  13.362  0.2262 -0.0149 -0.9436
   8623SM  H11S11496   4.258   2.612  13.347 -0.3005 -0.2037 -2.6801
   8623SM  H11T11497   4.361   2.471  13.363 -0.4300 -2.4842 -0.0555
   8623SM  C12S11498   4.171   2.456  13.478 -0.6175 -0.6344  0.7371
   8623SM  H12S11499   4.174   2.345  13.485 -1.7311 -0.7743 -0.5883
   8623SM  H12T11500   4.070   2.491  13.450  0.0506  1.2484  0.5540
   8623SM  C13S11501   4.207   2.517  13.619  0.0141 -0.6553  1.4257
   8623SM  H13S11502   4.205   2.628  13.615  0.6635 -0.6734 -0.3188
   8623SM  H13T11503   4.311   2.481  13.633 -0.4830 -4.0209 -1.8969
   8623SM  C14S11504   4.115   2.468  13.728  0.0424 -1.5538 -0.0109
   8623SM  H14S11505   4.095   2.361  13.704 -2.0292 -1.2316  0.0712
   8623SM  H14T11506   4.021   2.525  13.710  0.6307 -0.2818  0.7897
   8623SM  C15S11507   4.174   2.515  13.866  0.4092  0.4190  0.0641
   8623SM  H15S11508   4.234   2.609  13.869 -1.2736  1.5238  1.6236
   8623SM  H15T11509   4.234   2.431  13.905 -0.1168 -0.7437 -1.5240
   8623SM  C16S11510   4.064   2.524  13.977  0.1036  0.6731 -0.7529
   8623SM  H16S11511   3.998   2.436  13.965  0.0331  0.3876  1.4142
   8623SM  H16T11512   3.993   2.610  13.968 -1.1310 -0.3330 -0.9021
   8623SM  C17S11513   4.130   2.509  14.113 -0.5187 -0.1608 -0.0602
   8623SM  H17S11514   4.215   2.579  14.118 -1.1333  0.5213  2.0798
   8623SM  H17T11515   4.170   2.408  14.135  0.6785  0.5178  0.9751
   8623SM  C18S11516   4.052   2.555  14.237  0.1457  0.0008 -0.6002
   8623SM  H18S11517   3.956   2.499  14.248 -0.1515  0.1946 -1.9604
   8623SM  H18T11518   4.015   2.659  14.230 -0.6506 -0.3069 -1.1853
   8623SM  H18U11519   4.116   2.533  14.325 -0.0314 -0.5828 -0.6111
   8623SM   C1F11520   4.441   3.097  12.711 -0.2914 -0.0647 -0.7105
   8623SM    OF11521   4.340   3.154  12.672  0.1722 -0.2871 -0.3009
   8623SM   C2F11522   4.534   3.154  12.818  0.3795  0.3955  0.8733
   8623SM   H2F11523   4.524   3.263  12.799 -0.4629  0.2077  0.1533
   8623SM   H2G11524   4.636   3.120  12.791 -0.0622 -0.6130  0.3900
   8623SM   C3F11525   4.473   3.142  12.953  0.0642 -0.5324  0.6133
   8623SM   H3F11526   4.369   3.181  12.957  0.2433  0.1020 -0.5943
   8623SM   H3G11527   4.526   3.209  13.024  0.5653 -0.5128  0.2190
   8623SM   C4F11528   4.483   3.004  13.025  0.8583 -0.8049 -0.2532
   8623SM   H4F11529   4.582   2.959  13.000  0.3957 -1.2803 -1.3235
   8623SM   H4G11530   4.414   2.932  12.976 -0.2929 -1.2271  1.8979
   8623SM   C5F11531   4.454   3.014  13.167  0.5408  0.1171 -0.7935
   8623SM   H5F11532   4.343   3.027  13.168  0.4859  0.0390  1.9168
   8623SM   H5G11533   4.513   3.093  13.218 -0.1786  0.2797 -0.1932
   8623SM   C6F11534   4.484   2.875  13.225 -0.6122  0.0004  0.2928
   8623SM   H6F11535   4.592   2.848  13.219 -0.6028  0.1418 -0.1890
   8623SM   H6G11536   4.443   2.797  13.156 -0.5753 -0.0599  0.3387
   8623SM   C7F11537   4.427   2.859  13.367  0.0983  1.1502  0.0125
   8623SM   H7F11538   4.423   2.754  13.403  1.8179  1.1602  0.3144
   8623SM   H7G11539   4.320   2.888  13.354 -0.2548 -0.4322 -0.9503
   8623SM   C8F11540   4.501   2.944  13.477 -0.1709 -0.0903 -0.3530
   8623SM   H8F11541   4.509   3.049  13.441  1.2453  0.4507  1.4581
   8623SM   H8G11542   4.603   2.904  13.495 -0.8225 -0.9293  1.7400
   8623SM   C9F11543   4.430   2.945  13.613  0.3417 -0.0565  0.2501
   8623SM   H9F11544   4.322   2.932  13.593  0.5037 -2.1767  0.4731
   8623SM   H9G11545   4.444   3.036  13.675  3.4293  1.4266 -2.3820
   8623SM  C10F11546   4.470   2.818  13.701 -0.0268  0.4905  0.1585
   8623SM  H10F11547   4.581   2.805  13.700 -0.0648  0.1659  0.0431
   8623SM  H10G11548   4.425   2.723  13.665  3.0418 -1.1117  0.1999
   8623SM  C11F11549   4.428   2.820  13.848  0.1546 -0.2982 -0.3205
   8623SM  H11F11550   4.439   2.721  13.897 -0.1317 -0.9989 -1.6411
   8623SM  H11G11551   4.318   2.839  13.849  0.1746 -0.1790 -0.2426
   8623SM  C12F11552   4.497   2.934  13.930  0.0149 -0.3015  0.3612
   8623SM  H12F11553   4.451   3.025  13.885  0.3628  0.0714  0.7560
   8623SM  H12G11554   4.606   2.939  13.913  0.1865  0.3387  1.5074
   8623SM  C13F11555   4.453   2.935  14.077  0.1009 -0.1864 -0.2591
   8623SM  H13F11556   4.343   2.924  14.089  0.1469  0.4292  0.9153
   8623SM  H13G11557   4.477   3.037  14.114 -0.6351 -0.6985  1.8026
   8623SM  C14F11558   4.530   2.841  14.165 -0.5069 -0.0478  1.0609
   8623SM  H14F11559   4.638   2.846  14.140 -0.5510  3.0785  1.0874
   8623SM  H14G11560   4.507   2.737  14.135  1.5821 -0.3140  0.2252
   8623SM  C15F11561   4.515   2.858  14.318 -0.4196 -0.1951 -0.2007
   8623SM  H15F11562   4.552   2.953  14.364 -1.4633 -0.5405  1.4361
   8623SM  H15G11563   4.582   2.780  14.362 -0.7109 -0.0622  0.4968
   8623SM  C16F11564   4.368   2.832  14.350  0.2363  1.2165 -0.3259
   8623SM  H16F11565   4.338   2.734  14.308  0.8975 -1.0271  3.9320
   8623SM  H16G11566   4.306   2.916  14.312 -1.4773  1.3565  2.4296
   8623SM  C17F11567   4.338   2.805  14.497  0.1893  0.6262 -0.0702
   8623SM  H17F11568   4.389   2.715  14.538 -1.5505  1.1408  3.6551
   8623SM  H17G11569   4.227   2.795  14.502  0.1581  1.2053  0.5042
   8623SM  C18F11570   4.383   2.921  14.594  0.0602  0.5881  0.2514
   8623SM  H18F11571   4.381   3.024  14.554  3.3893  0.4709 -0.4747
   8623SM  H18G11572   4.493   2.909  14.596  0.1008 -0.9325 -3.5805
   8623SM  C19F11573   4.315   2.911  14.732  0.1805 -0.1898 -0.3751
   8623SM  H19F11574   4.322   2.805  14.763  0.9229 -0.2628 -0.7724
   8623SM  H19G11575   4.206   2.929  14.723  0.6636  3.2064 -0.8679
   8623SM  C20F11576   4.392   2.994  14.834 -0.1823 -0.4622  0.4571
   8623SM  H20F11577   4.395   3.101  14.804  0.2872 -0.5783  0.0829
   8623SM  H20G11578   4.499   2.967  14.846  0.2161  0.8860  0.1351
   8623SM  C21F11579   4.321   2.991  14.974 -0.2685 -0.4631  0.1939
   8623SM  H21F11580   4.213   3.008  14.958  0.1076  1.0640 -0.9737
   8623SM  H21G11581   4.350   3.082  15.030  2.5250  0.0514 -1.8451
   8623SM  C22F11582   4.366   2.863  15.055  0.7904 -0.5646  0.3164
   8623SM  H22F11583   4.347   2.771  14.995 -1.5907  1.6850 -2.7215
   8623SM  H22G11584   4.292   2.860  15.138 -0.1877  2.3678 -0.3087
   8623SM  C23F11585   4.506   2.880  15.109 -0.6133 -0.1072 -0.0288
   8623SM  H23F11586   4.528   2.841  15.210 -1.0268  2.7600  1.2700
   8623SM  H23G11587   4.536   2.987  15.113 -0.9552  0.0553 -1.3067
   8623SM  H23H11588   4.580   2.844  15.034 -0.3232  3.6603 -1.8111
   8723SM     N11589   4.923   3.528  12.139  0.1670  0.0073 -0.0816
   8723SM   C1511590   4.989   3.473  12.015  0.5951  0.3405  0.1793
   8723SM  H15A11591   4.967   3.532  11.928 -4.4260 -1.0404  0.2253
   8723SM  H15B11592   4.944   3.379  11.986  0.4245  1.5413 -4.0613
   8723SM  H15C11593   5.097   3.466  12.026  0.7223 -0.1309 -1.2308
   8723SM   C1411594   4.926   3.678  12.147  0.3232 -0.1370  0.7276
   8723SM  H14A11595   5.032   3.702  12.150  0.6779 -1.5314  0.0097
   8723SM  H14B11596   4.892   3.708  12.245  0.3873  1.7918  0.2008
   8723SM  H14C11597   4.883   3.737  12.067  1.9606  0.6312  0.3647
   8723SM   C1311598   4.783   3.475  12.135  0.6247  0.4008  0.6684
   8723SM  H13A11599   4.741   3.488  12.234  0.7057  1.1122  0.6195
   8723SM  H13B11600   4.777   3.369  12.120  1.8700  0.0753  2.1652
   8723SM  H13C11601   4.729   3.537  12.065 -1.4677 -1.1878  0.8015
   8723SM   C1211602   4.988   3.456  12.262  0.4834 -0.0267 -0.3744
   8723SM  H12A11603   5.095   3.470  12.256  1.2050 -3.0274  2.4928
   8723SM  H12B11604   4.968   3.350  12.264 -2.3504  0.4269  2.6654
   8723SM   C1111605   4.955   3.500  12.412 -0.1706 -0.5566 -0.0687
   8723SM  H11A11606   4.971   3.609  12.415  2.0364 -0.7783 -1.4210
   8723SM  H11B11607   5.024   3.482  12.498  0.4797  0.7163 -0.3054
   8723SM     P11608   4.764   3.325  12.489 -0.0312  0.0822  0.3668
   8723SM   O1311609   4.624   3.319  12.444  0.2923 -0.1132  0.1052
   8723SM   O1411610   4.857   3.221  12.436  0.2396  1.0255 -0.7585
   8723SM   O1111611   4.774   3.339  12.647  0.1109  0.0431  0.1377
   8723SM   O1211612   4.824   3.469  12.444 -0.3788  0.1681  0.3109
   8723SM   C1S11613   4.730   3.458  12.712  0.1734 -0.1770  0.1980
   8723SM   H1S11614   4.619   3.462  12.716  0.1074 -1.2365 -0.4123
   8723SM   H1T11615   4.760   3.558  12.674  0.6609 -0.4980 -0.2592
   8723SM    NF11616   4.730   3.573  12.928 -0.2773  0.3852 -0.6556
   8723SM   HNF11617   4.784   3.657  12.929  1.1386 -0.4899 -0.7016
   8723SM   C2S11618   4.776   3.458  12.859 -0.3708 -0.1172 -0.4632
   8723SM   H2S11619   4.734   3.362  12.897 -1.0797 -0.7607 -2.7376
   8723SM   C3S11620   4.932   3.442  12.860  0.0780 -0.8190  0.8229
   8723SM   H3S11621   4.958   3.526  12.792 -2.6497 -0.4839  0.0523
   8723SM    O311622   4.981   3.320  12.794  0.0678 -0.1462 -0.4293
   8723SM   HO311623   4.903   3.277  12.757  0.1663  0.2985 -1.1754
   8723SM   C4S11624   4.997   3.462  12.991  0.3762  0.1613  0.0066
   8723SM   H4S11625   4.949   3.400  13.069  1.7685  0.6457  1.2940
   8723SM   C5S11626   5.103   3.543  13.018 -0.2300  0.0166 -0.2338
   8723SM   H5S11627   5.145   3.594  12.931 -1.8458 -3.0564 -3.0320
   8723SM   C6S11628   5.183   3.577  13.148 -0.4126 -0.2797 -0.2214
   8723SM   H6S11629   5.200   3.686  13.147  0.0489 -0.2660  2.4147
   8723SM   H6T11630   5.281   3.526  13.154 -0.0318  0.6048  2.8723
   8723SM   C7S11631   5.109   3.545  13.275 -0.0987 -0.0273  0.2541
   8723SM   H7S11632   5.074   3.440  13.267  1.7362 -0.6772  0.3048
   8723SM   H7T11633   5.022   3.614  13.282 -1.2160 -1.3677  0.0086
   8723SM   C8S11634   5.189   3.584  13.402  0.8303  0.5629 -0.3645
   8723SM   H8S11635   5.223   3.690  13.393  0.7103  0.6173 -0.1758
   8723SM   H8T11636   5.281   3.522  13.414  1.3751  1.2355 -0.9407
   8723SM   C9S11637   5.103   3.564  13.526  0.1722  0.0185 -0.1515
   8723SM   H9S11638   5.091   3.454  13.544 -2.7519  0.1610 -0.7939
   8723SM   H9T11639   4.998   3.597  13.514  0.7887  2.2210  0.2253
   8723SM  C10S11640   5.159   3.616  13.656  0.4210  1.0406  0.4448
   8723SM  H10S11641   5.169   3.727  13.658 -2.1351  1.3272  0.7054
   8723SM  H10T11642   5.255   3.562  13.667 -1.1382 -2.2068 -0.6515
   8723SM  C11S11643   5.078   3.574  13.781  0.4646  0.3483  0.3699
   8723SM  H11S11644   5.081   3.465  13.800  1.8820  0.4199  0.6437
   8723SM  H11T11645   4.970   3.597  13.774  0.0138 -1.6668 -0.1039
   8723SM  C12S11646   5.140   3.634  13.910  0.3642 -0.3584 -0.2053
   8723SM  H12S11647   5.132   3.744  13.902  1.5489  0.2222  4.3118
   8723SM  H12T11648   5.250   3.616  13.911  0.5354  0.6268 -0.4277
   8723SM  C13S11649   5.072   3.591  14.044  0.3081  0.3554  0.9558
   8723SM  H13S11650   5.079   3.480  14.037  0.8059  0.4612 -0.6469
   8723SM  H13T11651   4.964   3.611  14.033  0.4127 -0.3688 -2.9338
   8723SM  C14S11652   5.129   3.637  14.180 -0.2249 -0.3764 -0.5346
   8723SM  H14S11653   5.130   3.748  14.187 -1.1146 -0.3613 -0.5287
   8723SM  H14T11654   5.232   3.601  14.201 -1.1259 -3.4984 -0.9569
   8723SM  C15S11655   5.044   3.585  14.297  0.4135 -0.3312 -0.5548
   8723SM  H15S11656   5.013   3.478  14.287  0.4295 -0.2335 -1.7532
   8723SM  H15T11657   4.945   3.633  14.307  0.4834 -0.5338  1.4748
   8723SM  C16S11658   5.119   3.605  14.432 -0.4241  1.2467  0.2682
   8723SM  H16S11659   5.111   3.714  14.453  1.1300  1.7045 -1.2352
   8723SM  H16T11660   5.219   3.556  14.425 -0.7512  0.5178  0.5822
   8723SM  C17S11661   5.060   3.514  14.546 -0.7098  0.1146 -0.4055
   8723SM  H17S11662   5.065   3.405  14.528 -0.4751  0.2497 -1.1840
   8723SM  H17T11663   4.953   3.544  14.552 -0.5375  0.5352  3.3820
   8723SM  C18S11664   5.126   3.559  14.677  0.3292 -0.5827 -0.1119
   8723SM  H18S11665   5.214   3.495  14.697 -0.4054 -0.9511  2.2009
   8723SM  H18T11666   5.065   3.530  14.765  1.6552 -3.6263 -0.0869
   8723SM  H18U11667   5.154   3.666  14.670 -1.1251  0.0423  2.4042
   8723SM   C1F11668   4.606   3.578  12.964 -0.0403 -0.5241 -0.2239
   8723SM    OF11669   4.534   3.485  12.952  0.2311  0.2202  0.3336
   8723SM   C2F11670   4.549   3.708  13.011 -0.2545 -0.1071 -0.0040
   8723SM   H2F11671   4.467   3.745  12.945 -0.5640 -0.5500  0.1239
   8723SM   H2G11672   4.633   3.779  13.018  0.2859 -0.5102 -1.8718
   8723SM   C3F11673   4.500   3.693  13.157  0.0666  0.2586 -0.0306
   8723SM   H3F11674   4.417   3.619  13.160 -1.7859  2.2476  0.5736
   8723SM   H3G11675   4.461   3.794  13.180 -0.0874  1.2808 -4.0876
   8723SM   C4F11676   4.601   3.656  13.265  0.3145  1.0435  1.1268
   8723SM   H4F11677   4.689   3.722  13.255  0.0725  1.2213  0.0972
   8723SM   H4G11678   4.640   3.555  13.240 -0.4245  0.9940  0.1591
   8723SM   C5F11679   4.531   3.667  13.398 -0.1144 -0.4308 -0.1285
   8723SM   H5F11680   4.436   3.609  13.389 -0.1988 -0.3056 -0.0633
   8723SM   H5G11681   4.499   3.772  13.418 -2.7234 -1.1531 -0.0663
   8723SM   C6F11682   4.614   3.617  13.521 -0.2740 -0.2190  0.4320
   8723SM   H6F11683   4.719   3.653  13.520 -0.2199 -0.3450 -0.7699
   8723SM   H6G11684   4.612   3.506  13.511 -2.9819 -0.1433 -0.9877
   8723SM   C7F11685   4.557   3.657  13.654  0.3921 -0.0089  0.4863
   8723SM   H7F11686   4.447   3.644  13.662  0.5931 -1.9285  0.4725
   8723SM   H7G11687   4.583   3.765  13.662 -1.2158  0.6786 -2.3695
   8723SM   C8F11688   4.622   3.598  13.778  0.0515  0.2656 -0.4657
   8723SM   H8F11689   4.732   3.582  13.785 -0.0288  0.3063  1.3870
   8723SM   H8G11690   4.591   3.491  13.783 -1.0198  0.3789 -3.0513
   8723SM   C9F11691   4.572   3.666  13.905  0.0289 -0.1833 -0.5220
   8723SM   H9F11692   4.462   3.671  13.887 -0.1732  3.8804  0.8473
   8723SM   H9G11693   4.604   3.772  13.908  1.8346 -0.7209  0.2951
   8723SM  C10F11694   4.618   3.604  14.037  0.1017 -0.1403 -1.0077
   8723SM  H10F11695   4.728   3.620  14.035 -0.0984  1.4258 -0.6796
   8723SM  H10G11696   4.608   3.494  14.039  0.2423 -0.1759 -1.7890
   8723SM  C11F11697   4.544   3.653  14.168 -0.5660 -0.4013 -0.1462
   8723SM  H11F11698   4.434   3.654  14.153 -0.4511  1.1097 -1.1232
   8723SM  H11G11699   4.568   3.762  14.165  0.5297 -0.6356 -0.1209
   8723SM  C12F11700   4.597   3.597  14.292 -0.1046 -0.6465 -0.2323
   8723SM  H12F11701   4.695   3.648  14.304 -0.2403 -0.3439 -0.3925
   8723SM  H12G11702   4.622   3.490  14.277  0.7905 -0.7494  1.6984
   8723SM  C13F11703   4.514   3.636  14.415  0.2953 -0.4066 -0.1236
   8723SM  H13F11704   4.420   3.581  14.391 -0.8090  0.5377  1.7549
   8723SM  H13G11705   4.496   3.746  14.416  0.2218 -0.3088 -3.2102
   8723SM  C14F11706   4.564   3.580  14.550 -0.1998  0.4211  0.1068
   8723SM  H14F11707   4.654   3.640  14.576  0.8172 -1.1935  0.4603
   8723SM  H14G11708   4.584   3.472  14.537 -2.6808 -0.1063  0.1339
   8723SM  C15F11709   4.458   3.592  14.654 -0.3746 -0.6117 -0.0264
   8723SM  H15F11710   4.455   3.501  14.717 -1.4169 -2.3189 -2.3667
   8723SM  H15G11711   4.358   3.596  14.605 -0.3825  2.4999  0.0786
   8723SM  C16F11712   4.465   3.725  14.737 -0.2112 -0.1266 -0.1911
   8723SM  H16F11713   4.452   3.809  14.666 -1.1849  0.2465  0.4145
   8723SM  H16G11714   4.565   3.743  14.780 -0.3365  1.5274 -0.5457
   8723SM  C17F11715   4.358   3.741  14.847  0.1323  0.0758  0.5755
   8723SM  H17F11716   4.382   3.664  14.923  0.3234  1.5628  2.1079
   8723SM  H17G11717   4.255   3.735  14.807  0.3509  2.6168 -0.5760
   8723SM  C18F11718   4.361   3.884  14.903 -0.3903 -0.1888 -0.1213
   8723SM  H18F11719   4.342   3.959  14.824 -0.4847 -0.2871 -0.1919
   8723SM  H18G11720   4.466   3.912  14.926 -0.0506 -1.5936  0.1321
   8723SM  C19F11721   4.259   3.910  15.023 -0.2505  0.4462  0.0729
   8723SM  H19F11722   4.161   3.888  14.975  0.5103 -2.4003 -0.3802
   8723SM  H19G11723   4.267   4.013  15.064  1.1793 -0.3954  2.1323
   8723SM  C20F11724   4.283   3.809  15.141  0.1583 -0.0592  0.3347
   8723SM  H20F11725   4.268   3.706  15.102  0.0791 -0.2359  0.8217
   8723SM  H20G11726   4.200   3.836  15.211 -0.8051  1.3842 -1.3086
   8723SM  C21F11727   4.424   3.812  15.194 -0.9847 -0.7007 -0.6551
   8723SM  H21F11728   4.494   3.790  15.112 -2.0135  0.4111 -1.8863
   8723SM  H21G11729   4.434   3.742  15.280  0.0838  1.2199  0.8656
   8723SM  C22F11730   4.455   3.949  15.248 -1.0042 -0.4157 -0.3354
   8723SM  H22F11731   4.423   4.035  15.185 -0.2652  1.3369  1.5967
   8723SM  H22G11732   4.566   3.957  15.246 -0.9953 -0.4635  0.0231
   8723SM  C23F11733   4.413   3.973  15.390 -0.2410  0.8253  0.1609
   8723SM  H23F11734   4.446   4.074  15.422  2.3492  0.5359 -1.3195
   8723SM  H23G11735   4.454   3.896  15.459 -0.1433 -0.4121 -1.2347
   8723SM  H23H11736   4.302   3.975  15.392 -0.4525 -2.9684 -0.3382
   8823SM     N11737   1.521   4.602  12.129  0.0846 -0.0056 -0.8233
   8823SM   C1511738   1.434   4.685  12.214  0.2913  0.3045 -0.2485
   8823SM  H15A11739   1.482   4.775  12.249 -3.5998  1.6210  2.4596
   8823SM  H15B11740   1.397   4.631  12.300 -2.4642 -3.0114 -3.1837
   8823SM  H15C11741   1.344   4.714  12.162 -0.1994  0.4274  0.6417
   8823SM   C1411742   1.449   4.477  12.086 -0.4102 -0.7385 -0.9050
   8823SM  H14A11743   1.353   4.503  12.045 -0.7572 -1.5223 -0.6046
   8823SM  H14B11744   1.427   4.411  12.169 -0.6619  0.9990  0.4669
   8823SM  H14C11745   1.501   4.419  12.011  1.5062  1.0135 -1.0300
   8823SM   C1311746   1.554   4.678  12.006 -0.4315  0.0914 -0.3925
   8823SM  H13A11747   1.607   4.766  12.040 -1.4818  0.5085  0.2004
   8823SM  H13B11748   1.469   4.711  11.949 -0.6239  1.1108  0.4626
   8823SM  H13C11749   1.615   4.619  11.939  2.2773  0.8024  1.2835
   8823SM   C1211750   1.649   4.564  12.205 -0.5870  0.0415  0.4569
   8823SM  H12A11751   1.695   4.487  12.145  0.7787  1.6498 -0.6565
   8823SM  H12B11752   1.634   4.526  12.304  1.2251 -0.0159  0.7414
   8823SM   C1111753   1.759   4.672  12.207 -0.3440  0.4511  0.6248
   8823SM  H11A11754   1.717   4.769  12.242  0.9552  1.4781 -0.5872
   8823SM  H11B11755   1.796   4.703  12.107  0.4615  0.6028  0.9626
   8823SM     P11756   1.956   4.519  12.256  0.0383 -0.1467  0.2406
   8823SM   O1311757   1.880   4.393  12.269 -0.1047  0.6612 -0.6204
   8823SM   O1411758   2.013   4.550  12.122  0.2488  0.2771  0.0390
   8823SM   O1111759   2.065   4.525  12.366 -0.0113 -0.2620  0.5694
   8823SM   O1211760   1.858   4.638  12.296 -0.6557  0.1483 -0.4004
   8823SM   C1S11761   2.081   4.416  12.459 -0.1849  0.3807 -0.2658
   8823SM   H1S11762   2.129   4.331  12.406  2.5384  0.7273  1.4694
   8823SM   H1T11763   1.980   4.388  12.493 -0.5185 -0.7200 -2.0491
   8823SM    NF11764   2.177   4.346  12.680 -0.0382  1.1430 -0.1262
   8823SM   HNF11765   2.104   4.344  12.749  0.1760  0.0748  0.0917
   8823SM   C2S11766   2.158   4.457  12.591  0.5247 -0.4400  0.3799
   8823SM   H2S11767   2.258   4.481  12.550 -0.3398 -0.1817 -1.7013
   8823SM   C3S11768   2.098   4.583  12.655 -0.6313 -0.1355 -0.1318
   8823SM   H3S11769   1.999   4.548  12.691 -0.9293  1.0848  0.2634
   8823SM    O311770   2.079   4.690  12.563 -0.7865  0.1076  0.0059
   8823SM   HO311771   2.091   4.656  12.474 -1.2221  0.2240 -0.1013
   8823SM   C4S11772   2.181   4.641  12.772  0.1564  0.2433  0.2806
   8823SM   H4S11773   2.272   4.696  12.747  0.7120 -0.5343  0.5534
   8823SM   C5S11774   2.154   4.599  12.895  0.3194 -0.1680 -0.1733
   8823SM   H5S11775   2.064   4.538  12.914  1.5250 -1.5413  1.4837
   8823SM   C6S11776   2.243   4.602  13.016  0.7298 -0.2989 -0.0733
   8823SM   H6S11777   2.197   4.678  13.084  0.7504  0.5558 -0.9896
   8823SM   H6T11778   2.346   4.631  12.985  0.9377 -2.0863 -1.1720
   8823SM   C7S11779   2.238   4.465  13.082 -0.5324  0.1942 -0.0893
   8823SM   H7S11780   2.276   4.396  13.003 -0.0863 -0.3145  0.5626
   8823SM   H7T11781   2.144   4.428  13.129  1.1976 -5.0559 -0.0893
   8823SM   C8S11782   2.338   4.456  13.201  0.0814 -0.2376  0.2226
   8823SM   H8S11783   2.441   4.489  13.176 -1.0017  1.6539 -2.1440
   8823SM   H8T11784   2.326   4.346  13.214 -1.4867 -0.0273  0.7397
   8823SM   C9S11785   2.294   4.522  13.337 -0.9650  0.6797  0.6014
   8823SM   H9S11786   2.195   4.471  13.349 -0.1398 -1.4915 -1.0527
   8823SM   H9T11787   2.287   4.631  13.318  2.3178  1.0841  1.2686
   8823SM  C10S11788   2.364   4.484  13.467 -1.4291  0.1291  0.7923
   8823SM  H10S11789   2.469   4.521  13.463 -1.5470  0.4952  0.9964
   8823SM  H10T11790   2.370   4.374  13.475 -0.5769 -0.1277 -2.2931
   8823SM  C11S11791   2.307   4.556  13.586  0.0079  0.2928  0.3971
   8823SM  H11S11792   2.220   4.495  13.619  0.2775 -1.3258 -1.6710
   8823SM  H11T11793   2.258   4.652  13.559 -2.3613 -1.1213 -0.6132
   8823SM  C12S11794   2.401   4.571  13.702 -0.5121  0.2205  0.2308
   8823SM  H12S11795   2.494   4.620  13.666 -0.5218  0.4871  0.5628
   8823SM  H12T11796   2.419   4.469  13.742 -0.0745 -0.2501 -1.1083
   8823SM  C13S11797   2.343   4.646  13.828  0.4586  0.7488 -0.1515
   8823SM  H13S11798   2.255   4.589  13.862  1.4636  1.5765  4.4920
   8823SM  H13T11799   2.314   4.749  13.799 -1.6444  0.3735  0.4955
   8823SM  C14S11800   2.450   4.648  13.939  0.1709 -0.3239 -0.0124
   8823SM  H14S11801   2.540   4.702  13.901  0.2268  0.7572  1.5365
   8823SM  H14T11802   2.485   4.545  13.966 -0.1180 -0.7178 -1.0952
   8823SM  C15S11803   2.406   4.732  14.053 -0.0633 -0.3996  0.5016
   8823SM  H15S11804   2.312   4.701  14.105  0.9565 -1.5391  1.7337
   8823SM  H15T11805   2.400   4.833  14.008  0.2190 -0.2642  0.7639
   8823SM  C16S11806   2.513   4.735  14.165  0.5764  0.1818  0.3298
   8823SM  H16S11807   2.613   4.769  14.134  2.6786 -2.2531  3.6818
   8823SM  H16T11808   2.522   4.637  14.218  1.1984 -0.0518 -0.2005
   8823SM  C17S11809   2.469   4.841  14.277  0.4372  0.4942  0.1239
   8823SM  H17S11810   2.383   4.794  14.329 -2.1151  4.0713 -0.4770
   8823SM  H17T11811   2.436   4.934  14.227  0.6997 -0.2216 -1.4475
   8823SM  C18S11812   2.581   4.852  14.373  0.5060 -0.1363  0.0915
   8823SM  H18S11813   2.668   4.898  14.323  0.8450 -0.3825  0.4493
   8823SM  H18T11814   2.612   4.748  14.398 -0.6125 -0.7958 -1.1127
   8823SM  H18U11815   2.544   4.903  14.464  3.6029  1.0059  0.8282
   8823SM   C1F11816   2.242   4.230  12.662 -0.4418 -0.4952 -0.0587
   8823SM    OF11817   2.284   4.200  12.551  0.1564  0.5558 -0.3946
   8823SM   C2F11818   2.261   4.146  12.780 -0.0111 -0.1075  0.4779
   8823SM   H2F11819   2.196   4.057  12.773  0.6613 -0.6452  0.9754
   8823SM   H2G11820   2.236   4.207  12.869 -0.5656 -1.0246  0.9622
   8823SM   C3F11821   2.404   4.096  12.795  0.6207  0.0117 -0.2631
   8823SM   H3F11822   2.483   4.174  12.796  2.0645 -1.3955 -0.5353
   8823SM   H3G11823   2.432   4.044  12.701 -0.7837 -0.8664 -0.2225
   8823SM   C4F11824   2.422   4.021  12.923  0.0415 -0.5680  0.6327
   8823SM   H4F11825   2.496   3.939  12.915  1.3867  0.4568  1.9864
   8823SM   H4G11826   2.322   3.982  12.954 -0.6977  0.9870  0.3158
   8823SM   C5F11827   2.498   4.114  13.024  1.0451 -0.2146 -0.5561
   8823SM   H5F11828   2.453   4.215  13.011  2.1144  0.4553  0.7244
   8823SM   H5G11829   2.606   4.125  13.003  1.6388 -2.2213  1.1202
   8823SM   C6F11830   2.460   4.051  13.165  0.0751  0.4394 -0.3092
   8823SM   H6F11831   2.472   3.941  13.164 -0.7767  0.2367  2.3897
   8823SM   H6G11832   2.351   4.061  13.186 -0.1758 -0.1135 -1.2924
   8823SM   C7F11833   2.526   4.106  13.291  0.2103  0.3837 -0.6438
   8823SM   H7F11834   2.515   4.215  13.309  0.1941  0.0001  2.1045
   8823SM   H7G11835   2.633   4.090  13.266  0.0609 -1.7147 -0.1378
   8823SM   C8F11836   2.488   4.030  13.418  0.0502  0.3135  0.0842
   8823SM   H8F11837   2.544   3.935  13.405 -0.0796 -0.0131  1.6933
   8823SM   H8G11838   2.382   3.995  13.425 -0.1750  0.9274 -0.2298
   8823SM   C9F11839   2.533   4.097  13.544  0.8330  0.6205 -0.6157
   8823SM   H9F11840   2.471   4.188  13.563 -0.8970 -0.5364 -0.4932
   8823SM   H9G11841   2.638   4.127  13.526  0.1728  2.5590 -1.4955
   8823SM  C10F11842   2.522   4.002  13.666  0.1867  0.4148  0.1930
   8823SM  H10F11843   2.602   3.926  13.654 -0.2263  0.2273 -1.8040
   8823SM  H10G11844   2.426   3.947  13.670 -0.0843  0.9341  2.6846
   8823SM  C11F11845   2.535   4.080  13.795  0.8061  0.1820 -0.3459
   8823SM  H11F11846   2.470   4.169  13.787 -0.0262 -0.2316  1.3066
   8823SM  H11G11847   2.642   4.107  13.803  1.6174 -2.7397  0.1377
   8823SM  C12F11848   2.489   3.993  13.915 -0.5534 -0.2284 -0.4063
   8823SM  H12F11849   2.532   3.891  13.920 -0.9077 -0.3733 -0.2202
   8823SM  H12G11850   2.379   3.978  13.921 -0.4066 -0.7359  2.9608
   8823SM  C13F11851   2.530   4.062  14.046 -0.4070 -0.3512  0.3929
   8823SM  H13F11852   2.459   4.146  14.065  2.6107  2.9017 -1.5239
   8823SM  H13G11853   2.630   4.110  14.048 -1.2500  1.5594  3.0887
   8823SM  C14F11854   2.537   3.967  14.164 -0.3631 -0.4336 -0.1132
   8823SM  H14F11855   2.638   3.921  14.172  0.4590  1.4369  1.2475
   8823SM  H14G11856   2.458   3.891  14.148  1.4194 -2.1087 -1.3339
   8823SM  C15F11857   2.510   4.055  14.285 -0.2626 -0.6789  0.1371
   8823SM  H15F11858   2.400   4.070  14.291 -0.1038  0.6835 -0.1416
   8823SM  H15G11859   2.548   4.159  14.274 -0.9225 -0.3676  0.7439
   8823SM  C16F11860   2.572   4.004  14.414  0.1891 -0.6791 -0.4983
   8823SM  H16F11861   2.548   3.895  14.423 -0.3776 -0.4477  1.2115
   8823SM  H16G11862   2.523   4.051  14.502 -1.3092 -1.3091 -0.9483
   8823SM  C17F11863   2.724   4.021  14.417 -0.2335  0.6803 -0.1372
   8823SM  H17F11864   2.746   4.116  14.470 -0.2591  0.2937  0.5753
   8823SM  H17G11865   2.765   4.017  14.314 -1.1945 -0.9826 -0.5006
   8823SM  C18F11866   2.791   3.910  14.490 -0.1820 -0.2810  0.8229
   8823SM  H18F11867   2.898   3.940  14.499 -0.2477  0.4693 -0.6936
   8823SM  H18G11868   2.780   3.815  14.432  1.7516 -0.4401  0.6289
   8823SM  C19F11869   2.740   3.894  14.628  0.0664  0.3576  0.0230
   8823SM  H19F11870   2.637   3.930  14.651 -0.2870 -1.0871  0.8082
   8823SM  H19G11871   2.805   3.947  14.701  1.0792  0.0826 -0.6673
   8823SM  C20F11872   2.733   3.744  14.671  0.5067 -0.2676  0.0886
   8823SM  H20F11873   2.828   3.696  14.641  0.2801 -2.2954  2.3927
   8823SM  H20G11874   2.652   3.696  14.612  0.2044  0.7892 -0.3908
   8823SM  C21F11875   2.702   3.730  14.820  0.2984 -0.2558 -0.0141
   8823SM  H21F11876   2.634   3.809  14.857  0.4995 -0.0498 -0.0794
   8823SM  H21G11877   2.800   3.750  14.869  1.1247  1.1901 -2.1077
   8823SM  C22F11878   2.645   3.595  14.857  0.1533 -0.2080 -0.5256
   8823SM  H22F11879   2.575   3.555  14.780 -1.1114  0.2148  0.3758
   8823SM  H22G11880   2.588   3.613  14.950 -0.3130 -0.8429 -0.6812
   8823SM  C23F11881   2.750   3.482  14.897 -0.0106 -0.1970  0.0812
   8823SM  H23F11882   2.704   3.382  14.886 -0.2481  0.1118 -2.5590
   8823SM  H23G11883   2.807   3.507  14.988 -2.3784  0.0502  1.5743
   8823SM  H23H11884   2.833   3.487  14.823  1.2320  1.1851  1.4972
   8923SM     N11885   5.961   3.267  12.233 -0.1275 -0.1866 -0.2216
   8923SM   C1511886   5.930   3.123  12.262  0.1470 -0.3596  0.4852
   8923SM  H15A11887   5.953   3.066  12.173  1.2731  1.8145 -0.6898
   8923SM  H15B11888   5.824   3.116  12.279  0.1874 -0.7800  0.5730
   8923SM  H15C11889   5.983   3.088  12.350 -1.0237 -0.3258  1.2222
   8923SM   C1411890   6.102   3.301  12.260 -0.4949 -0.0870 -0.1996
   8923SM  H14A11891   6.119   3.318  12.366 -0.6183  0.7775 -0.3096
   8923SM  H14B11892   6.126   3.393  12.209 -1.3268 -1.0171 -2.3971
   8923SM  H14C11893   6.176   3.229  12.228 -0.5619  0.3535 -1.3814
   8923SM   C1311894   5.927   3.299  12.090 -0.0377  0.0591 -0.8657
   8923SM  H13A11895   5.823   3.278  12.071  0.6206 -3.9742 -0.9457
   8923SM  H13B11896   5.983   3.244  12.015  0.0083 -0.0549 -0.7462
   8923SM  H13C11897   5.958   3.400  12.066  0.0347  0.0183 -0.9440
   8923SM   C1211898   5.863   3.349  12.320  0.3905  0.0989 -0.3945
   8923SM  H12A11899   5.758   3.339  12.294 -0.2932  2.7887  0.8894
   8923SM  H12B11900   5.882   3.454  12.301  0.8338  0.1139  0.1058
   8923SM   C1111901   5.862   3.337  12.482  0.4734  0.2640 -0.0224
   8923SM  H11A11902   5.846   3.230  12.509  1.4029  0.5160  1.6390
   8923SM  H11B11903   5.774   3.397  12.512  0.3428  0.8046 -1.4206
   8923SM     P11904   6.021   3.521  12.588 -0.4258  0.0267  0.3687
   8923SM   O1311905   6.165   3.554  12.613  0.0723 -0.0368 -0.0803
   8923SM   O1411906   5.942   3.614  12.502 -0.2653  0.2383  0.0831
   8923SM   O1111907   5.963   3.525  12.738  0.5980 -0.3693  0.1023
   8923SM   O1211908   5.993   3.369  12.532 -0.1592 -0.1880  0.0126
   8923SM   C1S11909   6.004   3.424  12.835 -0.1013 -0.2913  0.4485
   8923SM   H1S11910   6.112   3.446  12.851 -0.5605  3.1791 -0.3278
   8923SM   H1T11911   6.000   3.323  12.789  1.4485  0.3648 -1.2989
   8923SM    NF11912   5.994   3.328  13.047 -0.6537  0.0325  0.1014
   8923SM   HNF11913   5.933   3.252  13.071  1.8476 -1.8318  0.9920
   8923SM   C2S11914   5.941   3.432  12.970  0.3592 -0.4257  0.2556
   8923SM   H2S11915   5.956   3.531  13.019 -0.8437 -0.9588  1.7622
   8923SM   C3S11916   5.787   3.421  12.958  0.2412  0.7473  0.0736
   8923SM   H3S11917   5.762   3.320  12.919  2.3225 -1.0480  2.9540
   8923SM    O311918   5.732   3.516  12.869  0.1443 -0.2250 -0.0043
   8923SM   HO311919   5.811   3.547  12.824  1.6544  1.8483  3.6141
   8923SM   C4S11920   5.728   3.440  13.095 -0.0880  0.5390 -0.5051
   8923SM   H4S11921   5.733   3.342  13.144  0.4998  0.0283 -1.5412
   8923SM   C5S11922   5.675   3.552  13.145  0.5851  0.2200 -0.3817
   8923SM   H5S11923   5.660   3.632  13.070  2.1296  1.0832  0.1912
   8923SM   C6S11924   5.599   3.576  13.281 -0.3182 -0.2222  0.1375
   8923SM   H6S11925   5.493   3.555  13.254 -1.4563  3.5703  0.9569
   8923SM   H6T11926   5.603   3.687  13.290  2.4624 -0.2777  0.3158
   8923SM   C7S11927   5.651   3.503  13.414  0.0500 -0.4484 -0.3137
   8923SM   H7S11928   5.756   3.537  13.418 -0.4865  1.2294  2.3491
   8923SM   H7T11929   5.654   3.393  13.405 -0.3710 -0.5386  0.5315
   8923SM   C8S11930   5.583   3.554  13.547  0.4719 -0.4838  0.3745
   8923SM   H8S11931   5.472   3.568  13.545  0.8060  2.7303 -0.7637
   8923SM   H8T11932   5.614   3.659  13.558 -2.0874  0.9782 -3.8707
   8923SM   C9S11933   5.627   3.476  13.676 -0.6757  1.0486  0.5457
   8923SM   H9S11934   5.738   3.474  13.669 -0.7367  0.5472 -0.5752
   8923SM   H9T11935   5.586   3.373  13.671  0.3859  0.6422 -3.7400
   8923SM  C10S11936   5.582   3.552  13.804  0.4745 -0.3354  0.4089
   8923SM  H10S11937   5.474   3.561  13.783  0.7611  3.2662 -0.0698
   8923SM  H10T11938   5.619   3.656  13.806 -1.5049  0.5611 -2.5944
   8923SM  C11S11939   5.621   3.493  13.930  0.7292  0.2585 -0.9771
   8923SM  H11S11940   5.732   3.498  13.940  0.6228 -1.4693  2.2505
   8923SM  H11T11941   5.598   3.385  13.925  0.1318  0.3108  0.3227
   8923SM  C12S11942   5.564   3.562  14.059 -0.5276 -0.1152  0.3593
   8923SM  H12S11943   5.454   3.548  14.048 -0.4001 -0.9649  0.0864
   8923SM  H12T11944   5.586   3.671  14.055 -1.3474  0.0989  1.3367
   8923SM  C13S11945   5.612   3.497  14.200 -0.8794  0.2115  0.6515
   8923SM  H13S11946   5.721   3.496  14.219 -0.6870  0.6425 -0.3450
   8923SM  H13T11947   5.577   3.393  14.186  0.1529 -0.2592  1.4689
   8923SM  C14S11948   5.540   3.566  14.317  0.2510  0.2225  0.3944
   8923SM  H14S11949   5.431   3.560  14.299  0.1638  0.5922  0.7906
   8923SM  H14T11950   5.564   3.675  14.313  2.1070 -0.1381  0.9138
   8923SM  C15S11951   5.578   3.516  14.455 -0.0437  0.1800 -0.0288
   8923SM  H15S11952   5.533   3.587  14.528 -0.9017 -0.2560 -0.1178
   8923SM  H15T11953   5.685   3.535  14.475  0.1530 -0.3646 -0.5327
   8923SM  C16S11954   5.542   3.369  14.478  0.0250  0.3250 -0.0492
   8923SM  H16S11955   5.583   3.312  14.392  0.5423 -0.3586  0.6408
   8923SM  H16T11956   5.433   3.354  14.462 -0.0004 -1.0536  1.1868
   8923SM  C17S11957   5.586   3.311  14.615  0.2014  0.1968  0.8322
   8923SM  H17S11958   5.578   3.399  14.683 -0.1921  2.0514 -1.4718
   8923SM  H17T11959   5.688   3.268  14.617  0.1369 -0.3932 -2.6283
   8923SM  C18S11960   5.498   3.200  14.664 -0.2556 -0.2086 -0.3129
   8923SM  H18S11961   5.392   3.235  14.666 -1.9719 -4.6757 -0.7078
   8923SM  H18T11962   5.518   3.170  14.769 -0.8325  0.3091 -0.0507
   8923SM  H18U11963   5.507   3.114  14.593 -0.7886  1.2036 -2.1754
   8923SM   C1F11964   6.122   3.318  13.089  0.6087  0.1091 -0.8324
   8923SM    OF11965   6.204   3.407  13.070  0.0150 -0.3382 -0.0111
   8923SM   C2F11966   6.160   3.193  13.157  0.6476  1.1320 -0.7124
   8923SM   H2F11967   6.098   3.106  13.126 -0.4576  1.3344  0.7974
   8923SM   H2G11968   6.139   3.198  13.266 -0.1159 -0.1809 -0.7724
   8923SM   C3F11969   6.309   3.150  13.138  0.0433 -0.8496 -0.2408
   8923SM   H3F11970   6.370   3.234  13.180  0.3471 -1.0043 -0.3702
   8923SM   H3G11971   6.341   3.147  13.032 -0.9650  2.9718 -0.8163
   8923SM   C4F11972   6.357   3.020  13.205 -0.1877  0.5036 -0.0127
   8923SM   H4F11973   6.465   2.997  13.189 -0.2301 -0.7814  1.3016
   8923SM   H4G11974   6.310   2.938  13.147 -0.5644  0.9236 -0.3033
   8923SM   C5F11975   6.317   3.013  13.353  0.6821 -0.7231 -0.4246
   8923SM   H5F11976   6.207   3.026  13.355  0.9821  2.6330  1.4541
   8923SM   H5G11977   6.363   3.103  13.400  1.5902 -1.6263  0.4809
   8923SM   C6F11978   6.360   2.884  13.421 -0.3178  0.5182 -0.6908
   8923SM   H6F11979   6.463   2.860  13.387 -0.7487 -1.5198 -0.6603
   8923SM   H6G11980   6.290   2.806  13.386 -1.2100  1.1840 -0.4308
   8923SM   C7F11981   6.338   2.889  13.575 -0.0807 -0.1924  0.3765
   8923SM   H7F11982   6.359   2.788  13.615  1.0004  0.2357  0.9184
   8923SM   H7G11983   6.230   2.912  13.592 -0.6723  0.3079 -3.2346
   8923SM   C8F11984   6.429   2.994  13.646  0.2055 -0.8081  0.1839
   8923SM   H8F11985   6.374   3.089  13.626  1.3584 -0.0023  0.7526
   8923SM   H8G11986   6.530   2.985  13.600 -0.1085  0.4084 -0.8255
   8923SM   C9F11987   6.446   2.977  13.802 -0.1628 -0.3806  0.6712
   8923SM   H9F11988   6.498   3.068  13.841  0.7216 -0.4472 -0.2911
   8923SM   H9G11989   6.507   2.888  13.829  0.1592 -0.0857  0.9191
   8923SM  C10F11990   6.313   2.971  13.887  0.1733  0.5703 -0.1801
   8923SM  H10F11991   6.257   2.877  13.866  0.6868  0.1811  0.1623
   8923SM  H10G11992   6.248   3.058  13.864 -0.9274 -0.3141 -0.5075
   8923SM  C11F11993   6.352   2.967  14.037 -0.5244 -0.8182 -0.1021
   8923SM  H11F11994   6.397   3.064  14.066 -2.0586 -0.7034  2.1605
   8923SM  H11G11995   6.436   2.897  14.055 -1.0769 -1.0524  1.7148
   8923SM  C12F11996   6.247   2.934  14.146  0.0404 -0.3848  0.0699
   8923SM  H12F11997   6.189   2.845  14.113  0.3313 -0.3262 -0.6052
   8923SM  H12G11998   6.178   3.018  14.123  0.7350 -0.0715 -0.9269
   8923SM  C13F11999   6.308   2.928  14.288 -0.0724  0.2848 -0.7251
   8923SM  H13F12000   6.366   3.019  14.314 -0.1455 -0.1661  1.1049
   8923SM  H13G12001   6.388   2.851  14.289  1.1964  1.5513 -0.5978
   8923SM  C14F12002   6.196   2.897  14.385  0.2537 -0.8325 -0.1322
   8923SM  H14F12003   6.139   2.803  14.367 -1.9681  0.3358  0.4577
   8923SM  H14G12004   6.126   2.983  14.375  2.4154  0.8740 -1.6396
   8923SM  C15F12005   6.246   2.896  14.530 -0.1707 -0.5455  0.9031
   8923SM  H15F12006   6.285   2.994  14.563 -0.1566 -0.5079  0.7766
   8923SM  H15G12007   6.316   2.811  14.546 -0.6843 -0.6820  2.6752
   8923SM  C16F12008   6.135   2.872  14.636 -0.2649 -0.5514 -0.0735
   8923SM  H16F12009   6.181   2.869  14.737 -0.8089 -0.4932  0.1795
   8923SM  H16G12010   6.085   2.775  14.611 -0.4509 -0.3485 -0.5144
   8923SM  C17F12011   6.033   2.985  14.654 -1.0111 -0.5657  0.0919
   8923SM  H17F12012   5.981   3.001  14.557 -0.5928 -2.0230 -0.3867
   8923SM  H17G12013   6.075   3.082  14.691  0.0940 -0.3961 -1.5306
   8923SM  C18F12014   5.933   2.948  14.769  0.8529 -0.5584  0.0430
   8923SM  H18F12015   5.986   2.922  14.864  0.8422  1.1092  0.5329
   8923SM  H18G12016   5.884   2.851  14.745 -1.7165  0.8365 -0.7520
   8923SM  C19F12017   5.835   3.064  14.802 -0.1219 -0.6069  0.3504
   8923SM  H19F12018   5.733   3.030  14.832 -0.0150 -1.6766 -0.4065
   8923SM  H19G12019   5.813   3.104  14.700 -2.5352 -0.7715  0.7511
   8923SM  C20F12020   5.892   3.167  14.892  0.0778  0.0076 -0.8352
   8923SM  H20F12021   5.995   3.202  14.868  0.7241 -0.5623  0.9391
   8923SM  H20G12022   5.920   3.108  14.982  1.1938 -0.8995 -1.7455
   8923SM  C21F12023   5.810   3.288  14.930  0.0233  0.0894 -0.4614
   8923SM  H21F12024   5.704   3.271  14.903 -0.0164 -0.4191 -0.0011
   8923SM  H21G12025   5.857   3.373  14.875  1.9118 -0.3510  0.3720
   8923SM  C22F12026   5.815   3.322  15.081 -0.4709 -0.2514 -0.3569
   8923SM  H22F12027   5.791   3.237  15.148 -0.2431 -0.4625 -0.5420
   8923SM  H22G12028   5.746   3.405  15.106 -1.1390 -1.1833  1.0074
   8923SM  C23F12029   5.954   3.375  15.106 -0.2324  0.2809  1.0709
   8923SM  H23F12030   5.963   3.413  15.211 -0.5896  1.1084  0.8153
   8923SM  H23G12031   5.984   3.465  15.047 -2.2706 -0.6447 -1.5605
   8923SM  H23H12032   6.031   3.297  15.088 -2.7419 -1.8665 -1.0045
   9023SM     N12033   5.391   3.849  12.060  0.6704 -0.3423 -0.7675
   9023SM   C1512034   5.260   3.875  11.992  0.1738  0.2447  0.1719
   9023SM  H15A12035   5.205   3.947  12.050  1.2955  0.5475  0.8983
   9023SM  H15B12036   5.199   3.786  11.984  0.0947  0.3325 -0.2184
   9023SM  H15C12037   5.274   3.909  11.891  0.3703  0.2919  0.2139
   9023SM   C1412038   5.476   3.751  11.988 -0.4435  0.3412  0.2573
   9023SM  H14A12039   5.497   3.782  11.887  2.2330 -1.2051  0.2183
   9023SM  H14B12040   5.429   3.655  11.976  1.4966 -0.7971  1.1118
   9023SM  H14C12041   5.563   3.709  12.037 -1.1065 -3.7815 -1.6711
   9023SM   C1312042   5.466   3.985  12.052  0.3175  0.5450  0.1708
   9023SM  H13A12043   5.554   3.981  12.115  0.1429  0.0301  0.3841
   9023SM  H13B12044   5.406   4.061  12.101  0.1140  0.4115  0.1290
   9023SM  H13C12045   5.488   4.013  11.950  0.8159 -0.3604  0.0148
   9023SM   C1212046   5.368   3.810  12.209 -0.0194  0.1633  0.5469
   9023SM  H12A12047   5.313   3.897  12.244  0.7968  1.6363 -1.6216
   9023SM  H12B12048   5.458   3.812  12.269 -0.2790  0.7533  0.9303
   9023SM   C1112049   5.304   3.674  12.245  0.2688  0.2893  0.0666
   9023SM  H11A12050   5.196   3.670  12.219  0.1681 -0.3024  0.5578
   9023SM  H11B12051   5.297   3.684  12.355 -2.7858 -1.8962  0.1995
   9023SM     P12052   5.517   3.534  12.307  0.1333 -0.4554 -0.1699
   9023SM   O1312053   5.580   3.411  12.259 -0.3007  0.2094 -0.0772
   9023SM   O1412054   5.605   3.657  12.311  0.1424  0.5459  0.6465
   9023SM   O1112055   5.442   3.506  12.442  0.2744 -0.4606  0.0048
   9023SM   O1212056   5.385   3.559  12.207 -0.3389  0.0894 -0.1405
   9023SM   C1S12057   5.485   3.574  12.555  0.0156  0.3960 -0.2521
   9023SM   H1S12058   5.471   3.683  12.538  0.6715  0.5768  0.3244
   9023SM   H1T12059   5.586   3.534  12.581 -0.6691 -0.3210  1.3891
   9023SM    NF12060   5.456   3.615  12.796  0.9146  0.1261  0.5414
   9023SM   HNF12061   5.542   3.586  12.838  0.2791 -0.9525  1.1339
   9023SM   C2S12062   5.406   3.534  12.682 -0.0873  0.4054  0.0090
   9023SM   H2S12063   5.299   3.564  12.672  0.0271  0.8521  0.0701
   9023SM   C3S12064   5.414   3.379  12.701 -0.5507 -0.5349  0.6133
   9023SM   H3S12065   5.520   3.349  12.712 -0.4069 -0.7350 -1.1412
   9023SM    O312066   5.366   3.301  12.589  0.6113  0.6028 -0.8569
   9023SM   HO312067   5.342   3.366  12.523 -2.2066  0.2341 -0.3372
   9023SM   C4S12068   5.344   3.321  12.822 -0.5855 -1.1976 -0.2579
   9023SM   H4S12069   5.239   3.354  12.829 -0.7896 -2.1068  1.2852
   9023SM   C5S12070   5.396   3.238  12.912 -0.3717  0.7780  0.1357
   9023SM   H5S12071   5.500   3.204  12.898 -0.4717 -0.0314  1.2548
   9023SM   C6S12072   5.319   3.175  13.024  0.2530  0.1802 -0.1088
   9023SM   H6S12073   5.333   3.065  13.014 -0.0014 -0.1650  2.5771
   9023SM   H6T12074   5.209   3.194  13.024  0.2711  0.3334  0.7355
   9023SM   C7S12075   5.368   3.216  13.165  0.0901 -0.4666  0.3683
   9023SM   H7S12076   5.353   3.325  13.181  1.1131 -0.2874  0.2318
   9023SM   H7T12077   5.473   3.186  13.187 -0.1089 -0.8842  0.7721
   9023SM   C8S12078   5.299   3.146  13.277 -0.2966  0.3938  0.1361
   9023SM   H8S12079   5.300   3.035  13.273 -0.0715  0.3247  1.6494
   9023SM   H8T12080   5.194   3.181  13.266 -0.5947 -0.2751  0.8164
   9023SM   C9S12081   5.342   3.199  13.416 -0.1399 -0.2048  0.5702
   9023SM   H9S12082   5.331   3.310  13.418  2.0880  0.2877 -3.6750
   9023SM   H9T12083   5.451   3.179  13.422 -0.2753 -1.3625 -0.4461
   9023SM  C10S12084   5.271   3.146  13.545 -0.1816 -0.4344  0.2488
   9023SM  H10S12085   5.256   3.036  13.550 -1.0503 -0.3485 -0.2430
   9023SM  H10T12086   5.165   3.182  13.549 -0.1290  0.0836 -1.7882
   9023SM  C11S12087   5.343   3.206  13.664 -0.9757  0.4327 -0.3548
   9023SM  H11S12088   5.354   3.316  13.655  1.9042  0.3388  0.8920
   9023SM  H11T12089   5.447   3.167  13.658  0.2091  3.5244 -2.2115
   9023SM  C12S12090   5.270   3.156  13.794  0.7497  0.3068 -0.2646
   9023SM  H12S12091   5.277   3.045  13.804  0.5042  0.3666  0.6307
   9023SM  H12T12092   5.164   3.187  13.781  0.0576 -2.2274 -1.2201
   9023SM  C13S12093   5.307   3.220  13.925  0.5003  0.3454 -0.5450
   9023SM  H13S12094   5.301   3.330  13.912  1.5257  0.4938  0.1312
   9023SM  H13T12095   5.412   3.191  13.945 -0.1676 -1.1315  1.1799
   9023SM  C14S12096   5.229   3.170  14.047 -0.5871  0.0037  0.8540
   9023SM  H14S12097   5.257   3.064  14.066  2.0051  0.2357 -1.1180
   9023SM  H14T12098   5.120   3.174  14.023  0.0125 -1.8860 -2.9017
   9023SM  C15S12099   5.254   3.255  14.178  0.0008 -0.3842  0.1902
   9023SM  H15S12100   5.216   3.359  14.166  0.8086  0.0621  1.3167
   9023SM  H15T12101   5.363   3.274  14.192  0.0681  0.6952 -1.4625
   9023SM  C16S12102   5.182   3.191  14.296  0.4097 -0.1195 -0.9389
   9023SM  H16S12103   5.072   3.183  14.281  0.1902  1.3270 -0.2808
   9023SM  H16T12104   5.203   3.254  14.385  0.3548  1.1976 -1.8192
   9023SM  C17S12105   5.245   3.061  14.342 -0.0417  0.5014  0.1151
   9023SM  H17S12106   5.356   3.066  14.345  0.0650 -0.6073  4.1812
   9023SM  H17T12107   5.229   2.980  14.268 -1.4167 -1.2585  2.1968
   9023SM  C18S12108   5.183   3.014  14.476  0.0828  0.6634  0.3840
   9023SM  H18S12109   5.206   2.909  14.503 -1.2272 -0.2426 -1.7638
   9023SM  H18T12110   5.072   3.011  14.472  0.1188  0.4056 -1.0489
   9023SM  H18U12111   5.220   3.088  14.551 -0.1625  2.2507 -0.9867
   9023SM   C1F12112   5.433   3.744  12.796 -0.2631 -0.0226  0.2270
   9023SM    OF12113   5.335   3.793  12.742  0.0543 -0.1479 -0.0351
   9023SM   C2F12114   5.544   3.831  12.852 -0.2187  0.7577  0.0018
   9023SM   H2F12115   5.614   3.855  12.769  0.9599  0.7259  0.9662
   9023SM   H2G12116   5.599   3.780  12.934 -0.7441  1.3154  0.7119
   9023SM   C3F12117   5.478   3.962  12.901  0.0724 -0.2450 -0.2429
   9023SM   H3F12118   5.416   4.009  12.822  0.9449 -0.6929 -1.2119
   9023SM   H3G12119   5.551   4.042  12.922 -0.7082 -0.2384  3.0319
   9023SM   C4F12120   5.397   3.960  13.027  0.4214  0.2912  0.2343
   9023SM   H4F12121   5.308   3.894  13.025 -0.7814  1.8231  0.5681
   9023SM   H4G12122   5.364   4.064  13.052  1.1247  0.4386  0.5788
   9023SM   C5F12123   5.485   3.936  13.154  0.0051 -0.6909 -0.7311
   9023SM   H5F12124   5.571   4.006  13.149 -0.8139  0.4318  0.3936
   9023SM   H5G12125   5.535   3.837  13.155  4.3566  1.2954 -0.8877
   9023SM   C6F12126   5.417   3.965  13.287 -0.4003 -0.0307 -0.4845
   9023SM   H6F12127   5.318   3.916  13.290  0.3119 -1.5101  1.1018
   9023SM   H6G12128   5.402   4.074  13.276 -3.3480 -0.3489 -0.2042
   9023SM   C7F12129   5.502   3.941  13.412 -0.5091 -0.0960  0.6124
   9023SM   H7F12130   5.598   3.997  13.403  1.3218 -3.2716 -1.4262
   9023SM   H7G12131   5.532   3.835  13.403  0.4103  0.3643 -3.6706
   9023SM   C8F12132   5.426   3.966  13.540  0.8644 -1.1588  0.3559
   9023SM   H8F12133   5.335   3.903  13.545 -0.7925  1.0889  0.2360
   9023SM   H8G12134   5.398   4.074  13.539  1.2523 -1.0118  2.1416
   9023SM   C9F12135   5.508   3.953  13.663 -0.5669  0.3847  0.0994
   9023SM   H9F12136   5.600   4.014  13.654 -1.8969  2.1181 -3.3772
   9023SM   H9G12137   5.525   3.844  13.673 -0.1546  0.5948  2.0850
   9023SM  C10F12138   5.419   3.994  13.784  0.6158 -0.0470  0.4031
   9023SM  H10F12139   5.315   3.963  13.763  0.7211  0.2289 -0.5557
   9023SM  H10G12140   5.410   4.103  13.798 -1.6459 -0.2875  1.2412
   9023SM  C11F12141   5.467   3.930  13.912  0.0102  0.0804  0.8844
   9023SM  H11F12142   5.565   3.980  13.927  1.3794 -1.8842 -0.8919
   9023SM  H11G12143   5.479   3.820  13.897 -0.2906  0.0519  0.8461
   9023SM  C12F12144   5.368   3.954  14.031  0.2451 -0.1091  0.1657
   9023SM  H12F12145   5.282   3.884  14.037  0.8690 -1.1259 -1.9565
   9023SM  H12G12146   5.328   4.057  14.017 -0.9807 -0.4019  1.2772
   9023SM  C13F12147   5.447   3.955  14.163  0.9934  0.4514 -0.4914
   9023SM  H13F12148   5.519   4.037  14.143  0.0407  1.7481  1.1348
   9023SM  H13G12149   5.494   3.856  14.178  3.1315  1.3594 -0.8351
   9023SM  C14F12150   5.359   3.995  14.283  0.2883  0.0555  0.6014
   9023SM  H14F12151   5.283   3.918  14.306  1.5407 -1.1066  0.9678
   9023SM  H14G12152   5.317   4.094  14.254  2.5341  1.3876  1.6219
   9023SM  C15F12153   5.429   4.011  14.416 -0.4996  0.2211  0.2390
   9023SM  H15F12154   5.505   4.090  14.394  1.4462 -1.7620 -0.4922
   9023SM  H15G12155   5.486   3.918  14.435  0.0640  0.4479 -0.3005
   9023SM  C16F12156   5.341   4.071  14.526 -0.1833 -0.0950  0.0697
   9023SM  H16F12157   5.248   4.015  14.546  1.2108 -1.3444  3.8837
   9023SM  H16G12158   5.327   4.172  14.483 -0.0542 -0.1866 -0.1950
   9023SM  C17F12159   5.416   4.068  14.663 -0.0879  0.3291  0.5494
   9023SM  H17F12160   5.515   4.117  14.648  0.1669 -0.0737  0.8685
   9023SM  H17G12161   5.432   3.959  14.682  2.4199  0.7108  0.9761
   9023SM  C18F12162   5.345   4.149  14.771 -0.1274  0.0022 -0.5227
   9023SM  H18F12163   5.237   4.125  14.776 -0.0612 -0.1460  0.4921
   9023SM  H18G12164   5.349   4.259  14.754  0.3651  0.2736  1.2070
   9023SM  C19F12165   5.410   4.112  14.901  0.0016  0.6058 -0.8243
   9023SM  H19F12166   5.521   4.124  14.896  0.2691  0.1657  2.1251
   9023SM  H19G12167   5.398   4.006  14.934 -0.6137  1.5218  2.1825
   9023SM  C20F12168   5.352   4.187  15.024  0.9923  0.0636  0.2508
   9023SM  H20F12169   5.242   4.204  15.014  0.9533  0.1156  0.7307
   9023SM  H20G12170   5.390   4.291  15.023 -1.6978  1.1596  1.8753
   9023SM  C21F12171   5.384   4.126  15.151 -0.3747  0.4842 -0.3788
   9023SM  H21F12172   5.495   4.113  15.149 -0.4786 -0.7430  0.6599
   9023SM  H21G12173   5.352   4.020  15.155 -1.1701  0.6813 -1.1602
   9023SM  C22F12174   5.346   4.208  15.277 -1.6821 -0.0847  0.2746
   9023SM  H22F12175   5.397   4.306  15.270  0.3598 -1.1452 -0.7963
   9023SM  H22G12176   5.383   4.153  15.366  0.5034  2.7391  1.2648
   9023SM  C23F12177   5.198   4.241  15.299  0.3529  0.4549 -0.3110
   9023SM  H23F12178   5.129   4.154  15.306 -1.5048  1.8959 -0.2145
   9023SM  H23G12179   5.164   4.323  15.233  0.9538  1.6136  0.7694
   9023SM  H23H12180   5.202   4.291  15.398 -0.7291 -0.9462  0.4757
   9123SM     N12181   6.482   5.944  11.965  0.2942 -0.3496  0.2755
   9123SM   C1512182   6.359   5.975  11.881  0.5174 -0.3903 -0.2188
   9123SM  H15A12183   6.307   6.059  11.924  0.4806 -1.1041  1.1794
   9123SM  H15B12184   6.287   5.894  11.883 -0.6044  0.5466 -1.3711
   9123SM  H15C12185   6.381   6.001  11.778 -0.6898  0.6707 -0.2173
   9123SM   C1412186   6.529   5.805  11.931 -0.6949  0.2334  0.1396
   9123SM  H14A12187   6.526   5.788  11.824  0.2760 -1.7317  0.3755
   9123SM  H14B12188   6.458   5.732  11.967 -0.4906 -0.2597 -0.4350
   9123SM  H14C12189   6.631   5.795  11.964 -0.1959  0.9395 -1.1118
   9123SM   C1312190   6.572   6.061  11.939 -0.6561  0.4847  0.2994
   9123SM  H13A12191   6.666   6.053  11.992  1.0883 -1.4958 -2.7646
   9123SM  H13B12192   6.523   6.155  11.960 -0.4811  0.1128  2.5232
   9123SM  H13C12193   6.601   6.070  11.835  1.8548 -0.1495  0.8893
   9123SM   C1212194   6.450   5.954  12.116  0.3460 -0.2339  0.5158
   9123SM  H12A12195   6.535   5.923  12.175  0.1107 -1.3265  0.3015
   9123SM  H12B12196   6.386   5.870  12.141 -0.1951 -0.1682 -0.5758
   9123SM   C1112197   6.369   6.069  12.184  0.0096 -0.7499  0.3593
   9123SM  H11A12198   6.428   6.161  12.163  3.3808 -3.0230 -1.1256
   9123SM  H11B12199   6.388   6.056  12.292  0.7303  0.4825  0.4101
   9123SM     P12200   6.109   6.015  12.225  0.0608 -0.2273  0.5913
   9123SM   O1312201   5.995   6.108  12.204  0.4364 -0.2527 -0.5325
   9123SM   O1412202   6.091   5.872  12.189 -0.1243  0.1139 -0.1210
   9123SM   O1112203   6.163   6.022  12.376  0.4091  0.4640  0.2867
   9123SM   O1212204   6.231   6.087  12.152 -0.2751  0.1367 -0.5108
   9123SM   C1S12205   6.066   5.995  12.482 -0.4962 -0.6410 -0.5785
   9123SM   H1S12206   6.020   5.895  12.466 -0.0885 -0.9429  0.0721
   9123SM   H1T12207   5.988   6.074  12.478  2.8295  3.2142  2.2196
   9123SM    NF12208   6.055   5.942  12.725 -0.7579 -0.3344  0.0558
   9123SM   HNF12209   6.000   6.002  12.782 -0.2907 -1.1584  1.4050
   9123SM   C2S12210   6.143   5.994  12.620 -0.1622  0.0299  0.0349
   9123SM   H2S12211   6.235   5.932  12.613  0.3262  0.5591  1.3463
   9123SM   C3S12212   6.204   6.133  12.643  0.1279  0.4622  0.3147
   9123SM   H3S12213   6.117   6.200  12.658 -0.7790 -0.1368 -1.8564
   9123SM    O312214   6.275   6.196  12.536 -0.0296  0.3474  0.2864
   9123SM   HO312215   6.257   6.139  12.461  0.4013 -0.0036  0.4419
   9123SM   C4S12216   6.285   6.120  12.770  0.9199 -0.0848 -0.2609
   9123SM   H4S12217   6.359   6.039  12.758 -0.5240 -1.1883 -2.4441
   9123SM   C5S12218   6.278   6.188  12.888  0.5342  0.0877  0.5987
   9123SM   H5S12219   6.207   6.271  12.896 -0.0527  0.2343 -3.7662
   9123SM   C6S12220   6.368   6.155  13.003 -0.5767 -0.1105  0.5405
   9123SM   H6S12221   6.461   6.213  12.986 -0.5882 -0.9836 -3.5780
   9123SM   H6T12222   6.405   6.050  12.998 -0.9140 -0.1864 -0.8003
   9123SM   C7S12223   6.315   6.177  13.154 -0.3337 -0.8194  0.7408
   9123SM   H7S12224   6.239   6.099  13.179  0.3054 -1.9661 -0.7153
   9123SM   H7T12225   6.260   6.273  13.158  0.3664 -0.4032  0.5264
   9123SM   C8S12226   6.417   6.186  13.262  0.2662 -0.4297  0.3239
   9123SM   H8S12227   6.498   6.258  13.236  1.3452 -0.4650  3.1916
   9123SM   H8T12228   6.473   6.097  13.298 -1.3263 -0.8839  1.8131
   9123SM   C9S12229   6.355   6.241  13.391  0.2812 -0.3284  0.0487
   9123SM   H9S12230   6.283   6.166  13.430 -0.3151 -0.0935 -0.5819
   9123SM   H9T12231   6.300   6.337  13.383  0.6685 -0.0828  0.3426
   9123SM  C10S12232   6.455   6.270  13.502 -0.2576 -0.5008  0.3175
   9123SM  H10S12233   6.549   6.211  13.491 -1.0284 -1.6369 -0.3685
   9123SM  H10T12234   6.407   6.239  13.597  1.5071  0.0433  1.4325
   9123SM  C11S12235   6.486   6.422  13.500 -0.4549 -0.2124  0.1504
   9123SM  H11S12236   6.401   6.483  13.537 -1.2434 -1.0297 -0.2738
   9123SM  H11T12237   6.513   6.463  13.400 -2.5565  0.8095 -0.0564
   9123SM  C12S12238   6.615   6.455  13.586  0.2218 -0.7022  0.5426
   9123SM  H12S12239   6.617   6.566  13.594  1.1591 -0.7452  1.0258
   9123SM  H12T12240   6.697   6.421  13.520  0.9359 -0.6691  1.3988
   9123SM  C13S12241   6.603   6.395  13.728 -0.0330 -0.0171 -0.1907
   9123SM  H13S12242   6.606   6.284  13.722 -0.9933  0.0169 -1.9521
   9123SM  H13T12243   6.509   6.427  13.778  0.3350  0.2833  0.3376
   9123SM  C14S12244   6.722   6.438  13.821  0.1456 -0.4313 -0.4457
   9123SM  H14S12245   6.722   6.547  13.801 -0.9201  0.1709  2.3433
   9123SM  H14T12246   6.820   6.402  13.785  1.4330  1.5248  0.9589
   9123SM  C15S12247   6.712   6.401  13.967  0.0027  0.2368 -0.3531
   9123SM  H15S12248   6.725   6.291  13.975  0.0934  0.3206  0.9102
   9123SM  H15T12249   6.605   6.421  13.992 -0.3099 -1.9642  0.2958
   9123SM  C16S12250   6.813   6.479  14.051  0.7653 -0.0375  0.7226
   9123SM  H16S12251   6.825   6.581  14.006  1.2118 -1.2228 -2.0562
   9123SM  H16T12252   6.907   6.420  14.041 -0.2412 -1.4587 -0.8132
   9123SM  C17S12253   6.785   6.485  14.200 -0.1093 -0.0410 -0.4355
   9123SM  H17S12254   6.886   6.510  14.239  0.2649  1.5512 -2.2541
   9123SM  H17T12255   6.747   6.388  14.239  0.4617  0.5387  1.7139
   9123SM  C18S12256   6.691   6.602  14.236  0.0021 -0.3776  0.0636
   9123SM  H18S12257   6.590   6.569  14.206  0.5373 -2.1626  0.1317
   9123SM  H18T12258   6.728   6.697  14.191 -0.1069 -0.3438  0.0470
   9123SM  H18U12259   6.692   6.628  14.344  0.7377  0.8495 -0.2074
   9123SM   C1F12260   6.022   5.814  12.740  0.5277  0.1596 -0.2580
   9123SM    OF12261   6.058   5.728  12.665 -0.1669  0.2995 -0.1965
   9123SM   C2F12262   5.945   5.781  12.858 -0.0121 -0.2833 -0.2345
   9123SM   H2F12263   5.835   5.799  12.852 -0.0138 -0.2598 -0.1321
   9123SM   H2G12264   5.973   5.844  12.944  1.4639  0.3088 -1.1247
   9123SM   C3F12265   5.973   5.631  12.885 -0.1176  0.3628 -0.9055
   9123SM   H3F12266   6.084   5.622  12.877 -0.1926 -0.0834 -1.5497
   9123SM   H3G12267   5.922   5.562  12.814 -2.1117  1.4426 -0.5958
   9123SM   C4F12268   5.941   5.578  13.026 -0.2473  0.1255 -0.9090
   9123SM   H4F12269   5.965   5.470  13.027  1.6154  0.4854  1.5411
   9123SM   H4G12270   5.830   5.581  13.035 -0.3381  2.0422 -2.1356
   9123SM   C5F12271   6.017   5.639  13.148  0.0586  0.2397  0.4828
   9123SM   H5F12272   6.013   5.749  13.138  1.1325  0.3419  1.0816
   9123SM   H5G12273   6.120   5.598  13.147 -0.7813 -2.0455  0.8208
   9123SM   C6F12274   5.949   5.600  13.282 -0.5241  0.3017 -0.1414
   9123SM   H6F12275   5.839   5.610  13.276 -0.6645 -1.0195 -0.0382
   9123SM   H6G12276   5.983   5.670  13.362 -2.6623  1.1053  0.1225
   9123SM   C7F12277   5.995   5.455  13.324 -0.5933 -0.0778  0.3217
   9123SM   H7F12278   6.103   5.442  13.297 -0.8921 -2.5454  0.0932
   9123SM   H7G12279   5.941   5.383  13.258  2.1242 -0.0620 -2.1529
   9123SM   C8F12280   5.977   5.426  13.468  0.7687 -0.3109  0.0746
   9123SM   H8F12281   6.011   5.323  13.494  0.4889 -0.6824 -0.9764
   9123SM   H8G12282   5.871   5.424  13.503  0.9757 -2.6894  0.7538
   9123SM   C9F12283   6.056   5.519  13.563 -0.6766 -0.1046  0.0392
   9123SM   H9F12284   6.008   5.620  13.559  1.4433  0.9311 -1.0370
   9123SM   H9G12285   6.162   5.525  13.530 -0.4984 -1.8642  0.2426
   9123SM  C10F12286   6.047   5.479  13.711 -0.6764  0.2154 -0.6033
   9123SM  H10F12287   6.092   5.377  13.720 -2.2077 -0.3725  1.2199
   9123SM  H10G12288   5.939   5.467  13.737 -0.7097  1.2137 -0.2453
   9123SM  C11F12289   6.101   5.575  13.818  0.2917  0.7371  0.3467
   9123SM  H11F12290   6.060   5.676  13.793 -0.7481 -0.3341 -2.7460
   9123SM  H11G12291   6.211   5.587  13.822  0.2009  1.4844  0.9598
   9123SM  C12F12292   6.063   5.529  13.961 -0.5147 -0.3173 -0.6490
   9123SM  H12F12293   6.109   5.429  13.978 -0.7956 -0.0217  2.4314
   9123SM  H12G12294   5.958   5.544  13.994 -0.0846 -0.6646  0.9548
   9123SM  C13F12295   6.149   5.605  14.058  0.4464  0.2356  0.3845
   9123SM  H13F12296   6.153   5.713  14.035  0.9145  0.1439  0.0228
   9123SM  H13G12297   6.256   5.574  14.050  0.7944  1.3845  0.4905
   9123SM  C14F12298   6.113   5.590  14.205 -0.1341 -0.3419 -0.1336
   9123SM  H14F12299   6.090   5.485  14.234  1.5345 -0.1209  2.2589
   9123SM  H14G12300   6.023   5.651  14.231 -1.6137 -2.6654  0.5078
   9123SM  C15F12301   6.224   5.642  14.296 -0.2424 -0.7953  0.5070
   9123SM  H15F12302   6.273   5.733  14.255  3.8592 -2.7251  0.7073
   9123SM  H15G12303   6.307   5.568  14.295  1.3019  0.8698  0.6766
   9123SM  C16F12304   6.194   5.659  14.439  0.2784 -0.0696 -0.3369
   9123SM  H16F12305   6.152   5.560  14.466  1.7224  0.5001  5.4946
   9123SM  H16G12306   6.119   5.738  14.461  1.0439  0.0126  2.3474
   9123SM  C17F12307   6.315   5.675  14.534 -0.0076  0.1140  0.5086
   9123SM  H17F12308   6.410   5.641  14.488 -0.7948  0.0283 -1.1075
   9123SM  H17G12309   6.306   5.614  14.627 -0.3984  0.4494  0.6951
   9123SM  C18F12310   6.340   5.818  14.586  0.0392  1.2483 -0.0132
   9123SM  H18F12311   6.250   5.882  14.589 -0.8621  0.0096  2.6713
   9123SM  H18G12312   6.403   5.858  14.503  1.0845 -1.0326 -0.4134
   9123SM  C19F12313   6.400   5.827  14.728 -0.3134 -0.0458 -0.4129
   9123SM  H19F12314   6.495   5.771  14.715  0.4674  1.3220 -0.8656
   9123SM  H19G12315   6.334   5.767  14.794  0.3311 -0.1194  0.1731
   9123SM  C20F12316   6.422   5.969  14.782 -0.1475  0.6340  0.2620
   9123SM  H20F12317   6.320   6.014  14.781 -0.1227  0.6889  0.2156
   9123SM  H20G12318   6.485   6.031  14.715 -0.2500  0.0541 -0.3820
   9123SM  C21F12319   6.480   5.953  14.916  0.5866 -0.1594  0.2864
   9123SM  H21F12320   6.549   5.867  14.904 -0.2128 -0.8548  0.5818
   9123SM  H21G12321   6.415   5.917  14.999  0.0840  0.0654 -0.0017
   9123SM  C22F12322   6.552   6.079  14.968  0.2565 -0.2741  0.2423
   9123SM  H22F12323   6.641   6.099  14.905  0.1625  0.8949  0.4647
   9123SM  H22G12324   6.581   6.054  15.072 -3.7247 -0.2234  1.5338
   9123SM  C23F12325   6.454   6.191  14.979  0.0664  0.0326 -0.2896
   9123SM  H23F12326   6.415   6.233  14.884  0.0490  0.5163 -0.0722
   9123SM  H23G12327   6.514   6.271  15.029 -2.4930  0.3184  2.6467
   9123SM  H23H12328   6.368   6.163  15.043  0.4674 -0.6549 -0.0332
   9223SM     N12329   4.814   2.812  12.191  0.2249 -0.0514  0.3355
   9223SM   C1512330   4.804   2.949  12.238 -0.5551  0.2550 -0.1335
   9223SM  H15A12331   4.733   3.022  12.203 -1.1141  0.6469  1.6692
   9223SM  H15B12332   4.900   2.994  12.219  0.8458 -1.4102  2.3842
   9223SM  H15C12333   4.797   2.948  12.346  0.4948  2.4525  0.0184
   9223SM   C1412334   4.702   2.738  12.246  0.0630  0.0643  0.0962
   9223SM  H14A12335   4.609   2.783  12.216 -0.1029  0.1129  0.6814
   9223SM  H14B12336   4.700   2.744  12.354 -2.3485 -0.7229  0.1389
   9223SM  H14C12337   4.700   2.635  12.215 -1.9967  0.5199 -1.4818
   9223SM   C1312338   4.814   2.812  12.038  0.2760  0.5848 -0.2883
   9223SM  H13A12339   4.713   2.833  12.005  0.0689  1.8237  1.0241
   9223SM  H13B12340   4.854   2.726  11.986  1.6750  0.8554  0.2938
   9223SM  H13C12341   4.874   2.893  12.000 -0.2679  0.5644 -1.2307
   9223SM   C1212342   4.947   2.746  12.234  0.1218  0.2240  0.1988
   9223SM  H12A12343   5.024   2.791  12.172  0.6334 -0.7046  0.1493
   9223SM  H12B12344   4.943   2.643  12.201  2.4906 -0.3512  1.4626
   9223SM   C1112345   4.992   2.746  12.377 -0.8150  0.2813  0.2346
   9223SM  H11A12346   4.993   2.845  12.427  0.0740 -0.1760  1.1575
   9223SM  H11B12347   5.094   2.703  12.379 -2.0133 -3.1963 -2.6362
   9223SM     P12348   4.905   2.518  12.468  0.0014  0.5232  0.0391
   9223SM   O1312349   4.772   2.454  12.490 -0.3005 -0.4243  0.0094
   9223SM   O1412350   4.981   2.461  12.350 -0.2570  0.1395 -0.0329
   9223SM   O1112351   5.000   2.507  12.588 -0.4677  0.3986  0.6392
   9223SM   O1212352   4.896   2.676  12.457  0.2092 -0.1190 -0.7914
   9223SM   C1S12353   5.025   2.601  12.693 -0.0057 -0.3496  0.4457
   9223SM   H1S12354   5.035   2.706  12.658 -0.7137  0.2114  1.8895
   9223SM   H1T12355   5.127   2.579  12.731  0.6186  1.4928 -0.0553
   9223SM    NF12356   4.962   2.704  12.917  0.1334  0.3263 -0.2664
   9223SM   HNF12357   5.004   2.678  13.003  1.0878  0.2021 -0.7566
   9223SM   C2S12358   4.941   2.585  12.826  0.0775 -0.9469  0.6381
   9223SM   H2S12359   4.836   2.593  12.789  1.0455 -2.6349 -2.8611
   9223SM   C3S12360   4.961   2.446  12.888 -0.5321 -0.0836  0.0814
   9223SM   H3S12361   5.065   2.438  12.924 -0.6386 -0.0986  0.3914
   9223SM    O312362   4.950   2.344  12.789  0.1727 -0.1562 -0.1673
   9223SM   HO312363   4.969   2.397  12.712  1.7933 -0.1375  0.2068
   9223SM   C4S12364   4.887   2.416  13.009  0.1245 -0.1067  0.3899
   9223SM   H4S12365   4.913   2.487  13.089 -0.6511  2.4465 -1.4823
   9223SM   C5S12366   4.783   2.334  13.016  0.1614 -0.2546 -0.3764
   9223SM   H5S12367   4.748   2.282  12.926 -1.1845  0.3177 -0.2034
   9223SM   C6S12368   4.702   2.306  13.135  0.1602 -0.4058 -0.0820
   9223SM   H6S12369   4.707   2.197  13.156 -1.1111 -0.3839  0.4360
   9223SM   H6T12370   4.597   2.333  13.109  0.2436  0.8484  0.8061
   9223SM   C7S12371   4.748   2.381  13.262  0.1283  0.0667 -0.0427
   9223SM   H7S12372   4.737   2.491  13.245 -0.6240  0.1130  0.6815
   9223SM   H7T12373   4.856   2.372  13.287  0.1396  0.0930 -0.0825
   9223SM   C8S12374   4.665   2.340  13.386 -0.5521  0.1294 -0.1515
   9223SM   H8S12375   4.696   2.238  13.418 -0.7243  0.2605  0.4417
   9223SM   H8T12376   4.564   2.330  13.343  0.3350 -0.2083 -2.2689
   9223SM   C9S12377   4.678   2.440  13.502 -0.2415  0.2223 -1.1840
   9223SM   H9S12378   4.647   2.544  13.481 -3.0538 -0.4697 -0.9060
   9223SM   H9T12379   4.788   2.434  13.513 -0.2492 -0.9145 -1.5260
   9223SM  C10S12380   4.611   2.388  13.633  0.0944  0.1804  0.4922
   9223SM  H10S12381   4.641   2.281  13.641 -1.1743 -0.2397 -0.0726
   9223SM  H10T12382   4.503   2.377  13.609  0.5918 -5.5703 -0.6151
   9223SM  C11S12383   4.635   2.462  13.763 -0.1858  0.0130  0.3167
   9223SM  H11S12384   4.608   2.568  13.743  1.2101  0.2470 -0.5187
   9223SM  H11T12385   4.742   2.465  13.794  0.1627 -0.5829 -0.7843
   9223SM  C12S12386   4.549   2.412  13.871 -0.1107  0.3254  0.4215
   9223SM  H12S12387   4.543   2.301  13.868  0.2242  0.2542  1.6815
   9223SM  H12T12388   4.447   2.457  13.877  0.1396  1.0174 -0.2758
   9223SM  C13S12389   4.620   2.452  14.003 -0.1116  0.1760 -0.7214
   9223SM  H13S12390   4.671   2.550  14.005  1.8326 -0.7887 -0.0288
   9223SM  H13T12391   4.690   2.371  14.034 -1.3455 -0.2418  1.1780
   9223SM  C14S12392   4.520   2.446  14.119  0.3240  0.0282  0.7728
   9223SM  H14S12393   4.462   2.351  14.105 -1.3379  0.9779  0.9399
   9223SM  H14T12394   4.453   2.534  14.124 -1.5211 -1.3599  2.1087
   9223SM  C15S12395   4.591   2.432  14.258 -0.1915  0.0791  0.8072
   9223SM  H15S12396   4.671   2.509  14.251 -1.5595  1.4361 -0.4379
   9223SM  H15T12397   4.641   2.332  14.255 -0.4195 -0.0806  2.0482
   9223SM  C16S12398   4.499   2.444  14.383 -0.7243  0.3414 -0.2527
   9223SM  H16S12399   4.451   2.544  14.388  1.2457  1.3100  0.1359
   9223SM  H16T12400   4.572   2.424  14.464  1.1989  2.0477 -1.4700
   9223SM  C17S12401   4.390   2.332  14.395 -0.1066  0.0754 -0.1973
   9223SM  H17S12402   4.449   2.238  14.408 -0.9816 -0.5145 -0.4668
   9223SM  H17T12403   4.333   2.323  14.301  1.9975  0.6867 -1.6083
   9223SM  C18S12404   4.295   2.354  14.518 -0.1040  0.9389  0.3484
   9223SM  H18S12405   4.353   2.367  14.612  1.0552  0.6104 -0.3005
   9223SM  H18T12406   4.209   2.284  14.515 -0.9539  1.9175  1.2253
   9223SM  H18U12407   4.239   2.448  14.501 -0.0073  0.8267 -0.6677
   9223SM   C1F12408   4.929   2.831  12.886  0.6962 -0.6124  0.1421
   9223SM    OF12409   4.852   2.851  12.793 -1.0150 -0.1453  0.6151
   9223SM   C2F12410   4.972   2.941  12.988 -0.0298 -0.4930  0.9390
   9223SM   H2F12411   5.021   3.023  12.932 -0.1049 -0.2195  1.2739
   9223SM   H2G12412   5.048   2.910  13.063  1.5064  1.3672  0.2132
   9223SM   C3F12413   4.844   2.998  13.058 -1.2436  0.6396  0.3945
   9223SM   H3F12414   4.794   2.911  13.105  0.9284  0.6953  3.0017
   9223SM   H3G12415   4.770   3.036  12.983 -0.5953  1.3121  0.0810
   9223SM   C4F12416   4.882   3.113  13.150 -1.1219  0.9297  0.0685
   9223SM   H4F12417   4.920   3.192  13.082 -2.0584 -0.0187 -1.6334
   9223SM   H4G12418   4.968   3.076  13.210 -1.4990 -0.4821 -0.2232
   9223SM   C5F12419   4.785   3.140  13.253  0.3757 -0.7121 -0.2848
   9223SM   H5F12420   4.736   3.044  13.280 -0.4217 -0.4513 -0.7651
   9223SM   H5G12421   4.697   3.190  13.207 -1.3471 -4.0687 -0.9845
   9223SM   C6F12422   4.837   3.225  13.373  0.1367  0.2100  0.9326
   9223SM   H6F12423   4.842   3.333  13.349 -0.0493 -0.2440 -1.3929
   9223SM   H6G12424   4.933   3.179  13.407  1.0823  0.2350 -1.4843
   9223SM   C7F12425   4.746   3.208  13.498  0.0530 -0.1443  0.2649
   9223SM   H7F12426   4.722   3.100  13.509 -0.3378 -0.2171 -1.1564
   9223SM   H7G12427   4.648   3.260  13.493  0.4378  0.5923  0.2389
   9223SM   C8F12428   4.827   3.257  13.621  0.0542 -0.2659  0.3916
   9223SM   H8F12429   4.852   3.364  13.606  2.5140 -0.9771 -1.2371
   9223SM   H8G12430   4.927   3.209  13.623  0.3237  0.3077  0.8156
   9223SM   C9F12431   4.745   3.225  13.748 -0.2045  0.0379  0.2020
   9223SM   H9F12432   4.722   3.118  13.729  1.2230 -0.2300 -0.1008
   9223SM   H9G12433   4.653   3.287  13.746 -0.4491 -0.2586 -2.3505
   9223SM  C10F12434   4.821   3.266  13.875 -0.6849  0.4993 -0.2203
   9223SM  H10F12435   4.853   3.372  13.869 -1.2889  0.6263 -1.5294
   9223SM  H10G12436   4.913   3.204  13.879  0.6907  2.4746  0.4435
   9223SM  C11F12437   4.739   3.232  13.998 -0.6449 -0.1184 -1.1449
   9223SM  H11F12438   4.705   3.126  13.997 -0.2560 -0.2709 -3.3441
   9223SM  H11G12439   4.641   3.283  13.988 -0.4021  0.6478  0.1503
   9223SM  C12F12440   4.800   3.276  14.131  0.1809 -0.5470 -0.5378
   9223SM  H12F12441   4.792   3.386  14.140 -0.7666 -0.7645  2.1461
   9223SM  H12G12442   4.909   3.252  14.128 -0.0233 -1.5645 -0.4097
   9223SM  C13F12443   4.735   3.211  14.250  0.4976  0.6104 -0.0066
   9223SM  H13F12444   4.753   3.103  14.236  0.8428  0.2586  2.6241
   9223SM  H13G12445   4.628   3.240  14.240  0.3046  0.3667  1.2062
   9223SM  C14F12446   4.797   3.255  14.379 -0.2838 -0.3942 -0.6945
   9223SM  H14F12447   4.802   3.363  14.404  0.5381 -0.6345  0.2780
   9223SM  H14G12448   4.898   3.209  14.383  0.5535  1.3805 -0.5647
   9223SM  C15F12449   4.715   3.197  14.507  0.1872 -0.7677  0.0934
   9223SM  H15F12450   4.725   3.087  14.498  0.9443 -0.7582  0.7870
   9223SM  H15G12451   4.613   3.230  14.477  0.8302 -0.3650 -1.8046
   9223SM  C16F12452   4.753   3.266  14.638  0.1959  0.0809  0.1047
   9223SM  H16F12453   4.793   3.366  14.612 -1.9563  1.3900  1.5501
   9223SM  H16G12454   4.833   3.205  14.686 -1.5074 -1.6595  0.8885
   9223SM  C17F12455   4.648   3.270  14.752 -0.4796 -0.2974  0.1627
   9223SM  H17F12456   4.614   3.167  14.775 -0.2833 -0.7540 -1.4606
   9223SM  H17G12457   4.562   3.330  14.716  0.1205  0.6085  0.2066
   9223SM  C18F12458   4.713   3.324  14.877 -0.0051  0.2961  0.1084
   9223SM  H18F12459   4.766   3.418  14.853 -1.2189  0.5464 -1.8435
   9223SM  H18G12460   4.779   3.244  14.915  0.2881  0.1026 -0.7861
   9223SM  C19F12461   4.616   3.353  14.989 -0.5239 -0.4833  0.0016
   9223SM  H19F12462   4.547   3.269  15.011  0.4649 -1.4385 -0.4429
   9223SM  H19G12463   4.566   3.446  14.953 -1.4265 -1.0361 -0.1906
   9223SM  C20F12464   4.684   3.382  15.125 -0.1936  0.1831  0.0521
   9223SM  H20F12465   4.708   3.293  15.186  1.4829  0.5996  0.0630
   9223SM  H20G12466   4.612   3.432  15.193  2.8464  0.8251  3.0471
   9223SM  C21F12467   4.792   3.494  15.115 -0.1554 -1.3348 -0.7954
   9223SM  H21F12468   4.768   3.595  15.074  2.3266  1.5248  3.8891
   9223SM  H21G12469   4.885   3.461  15.064  0.9886 -0.0525  0.3859
   9223SM  C22F12470   4.833   3.546  15.255 -0.2173  0.4820  0.2641
   9223SM  H22F12471   4.944   3.545  15.263 -0.0218 -1.5256 -1.7413
   9223SM  H22G12472   4.788   3.479  15.332 -0.2122  1.0761  0.7949
   9223SM  C23F12473   4.799   3.690  15.287 -0.3833 -0.2270  0.2262
   9223SM  H23F12474   4.696   3.722  15.257 -0.0826  1.1464  0.5618
   9223SM  H23G12475   4.866   3.759  15.231 -1.3596  0.7220  0.1871
   9223SM  H23H12476   4.831   3.712  15.391 -1.1163  0.6730  0.2794
   9323SM     N12477   0.150   4.559  12.572 -0.3094  0.1760  0.1156
   9323SM   C1512478   0.294   4.578  12.615  0.2423  0.0306 -0.1511
   9323SM  H15A12479   0.342   4.482  12.621  2.6601  1.2412  1.8578
   9323SM  H15B12480   0.290   4.640  12.704 -1.9596  2.2452 -1.6467
   9323SM  H15C12481   0.341   4.640  12.540 -1.3169  1.3455 -0.1114
   9323SM   C1412482   0.095   4.700  12.536 -0.1277 -0.1799  0.3913
   9323SM  H14A12483   0.121   4.774  12.610 -0.9355  0.5623 -0.0414
   9323SM  H14B12484  -0.013   4.705  12.538 -0.2220 -1.8333  0.8052
   9323SM  H14C12485   0.125   4.739  12.440 -0.5375  0.4657  0.5174
   9323SM   C1312486   0.143   4.485  12.444 -0.2222 -0.1670 -0.4462
   9323SM  H13A12487   0.193   4.545  12.370  1.1004 -1.4951 -0.6757
   9323SM  H13B12488   0.042   4.467  12.411  0.1693 -0.0150 -1.7782
   9323SM  H13C12489   0.193   4.390  12.454 -0.1235 -0.1466 -0.7275
   9323SM   C1212490   0.068   4.501  12.684  0.3840  0.1720 -0.2168
   9323SM  H12A12491  -0.035   4.504  12.653  0.9640  1.2253 -2.2133
   9323SM  H12B12492   0.077   4.565  12.771  1.4130 -1.2080  0.7463
   9323SM   C1112493   0.109   4.361  12.739 -0.2059 -0.2148  0.3800
   9323SM  H11A12494   0.213   4.350  12.775 -0.9181 -1.9190  2.0648
   9323SM  H11B12495   0.104   4.290  12.654 -0.1824 -0.5142  0.6288
   9323SM     P12496  -0.095   4.235  12.831  0.1405 -0.0530  0.4551
   9323SM   O1312497  -0.208   4.317  12.776  0.1902  0.4840  0.4488
   9323SM   O1412498  -0.039   4.124  12.751  0.0796 -0.3287 -0.5132
   9323SM   O1112499  -0.130   4.197  12.974  0.2033 -0.4520 -0.0360
   9323SM   O1212500   0.024   4.341  12.850  0.2313  0.1343 -0.0539
   9323SM   C1S12501  -0.027   4.128  13.044  0.3627  0.3007 -0.6685
   9323SM   H1S12502   0.062   4.194  13.054 -0.7567  1.9414 -1.2614
   9323SM   H1T12503   0.015   4.041  12.989  0.1303  0.4963 -1.1511
   9323SM    NF12504   0.052   4.086  13.276 -0.3108  0.0688  0.4189
   9323SM   HNF12505   0.094   3.996  13.266 -2.4348 -0.9753  0.3225
   9323SM   C2S12506  -0.070   4.090  13.192  0.0849 -0.0023 -0.0830
   9323SM   H2S12507  -0.139   4.165  13.235  0.5206  0.4370 -0.1460
   9323SM   C3S12508  -0.151   3.957  13.190 -0.0200  0.8811  0.6467
   9323SM   H3S12509  -0.073   3.877  13.191  1.1202  1.9310 -0.5363
   9323SM    O312510  -0.230   3.934  13.075  0.5811 -0.1784 -0.3069
   9323SM   HO312511  -0.213   4.011  13.021  0.5413  0.5843  0.7223
   9323SM   C4S12512  -0.219   3.941  13.327 -0.3505 -0.1228  0.1426
   9323SM   H4S12513  -0.150   3.889  13.395  1.7168  0.3399 -1.4829
   9323SM   C5S12514  -0.341   3.968  13.361  0.2450  0.1301  0.0155
   9323SM   H5S12515  -0.404   4.025  13.291 -0.4190 -0.0903  0.4174
   9323SM   C6S12516  -0.415   3.940  13.497  0.0573  0.5431  0.0851
   9323SM   H6S12517  -0.457   3.837  13.496  3.7979 -1.1748  0.1463
   9323SM   H6T12518  -0.492   4.017  13.515 -2.4605 -1.8821  0.3538
   9323SM   C7S12519  -0.317   3.942  13.617  1.1167 -0.2159  1.0017
   9323SM   H7S12520  -0.267   4.041  13.604 -1.5048  0.8980 -1.6251
   9323SM   H7T12521  -0.237   3.866  13.603  0.3316 -0.7779 -0.8275
   9323SM   C8S12522  -0.392   3.946  13.751 -0.1333  0.2870 -0.1626
   9323SM   H8S12523  -0.460   3.858  13.749  1.3477 -0.9200  0.1932
   9323SM   H8T12524  -0.464   4.030  13.751 -0.2970  0.2186 -2.4860
   9323SM   C9S12525  -0.308   3.955  13.875 -0.8504  0.1796  0.0872
   9323SM   H9S12526  -0.249   4.048  13.872 -0.2019 -0.1130  2.0127
   9323SM   H9T12527  -0.239   3.868  13.871 -2.3751 -1.0368 -0.9504
   9323SM  C10S12528  -0.385   3.941  14.003 -0.2428 -0.4993 -0.2381
   9323SM  H10S12529  -0.437   3.843  14.008  1.3876 -1.4006 -0.5075
   9323SM  H10T12530  -0.452   4.030  14.008  2.5538  1.8553 -1.7062
   9323SM  C11S12531  -0.291   3.935  14.124 -0.2706 -0.0480 -0.4035
   9323SM  H11S12532  -0.224   4.024  14.121 -1.5616  0.9250 -1.1459
   9323SM  H11T12533  -0.228   3.844  14.111 -1.6763 -0.8992 -1.5326
   9323SM  C12S12534  -0.351   3.946  14.261  0.2915  0.0917  0.3910
   9323SM  H12S12535  -0.278   3.918  14.339 -1.0315 -0.2227  1.5553
   9323SM  H12T12536  -0.438   3.876  14.263  1.8615 -2.1173 -2.2022
   9323SM  C13S12537  -0.399   4.085  14.300 -0.0068 -0.6828 -0.3661
   9323SM  H13S12538  -0.481   4.097  14.225 -0.5396 -2.2033 -0.0603
   9323SM  H13T12539  -0.320   4.157  14.270 -0.6071  0.0576 -0.2093
   9323SM  C14S12540  -0.454   4.086  14.439 -0.0278  0.6329 -0.8217
   9323SM  H14S12541  -0.493   3.983  14.445  4.6513 -1.4885 -2.0341
   9323SM  H14T12542  -0.532   4.163  14.457 -0.9686 -0.7163  1.2857
   9323SM  C15S12543  -0.347   4.122  14.540  0.2923 -0.1261 -0.7221
   9323SM  H15S12544  -0.270   4.043  14.533 -0.5363 -0.9152 -1.2793
   9323SM  H15T12545  -0.316   4.220  14.499  3.0078 -0.6197 -0.0185
   9323SM  C16S12546  -0.396   4.147  14.686  0.4071  0.2114 -0.2741
   9323SM  H16S12547  -0.458   4.057  14.708 -1.4851  0.8343 -2.5943
   9323SM  H16T12548  -0.461   4.236  14.693  0.7120  0.2977  2.7429
   9323SM  C17S12549  -0.275   4.147  14.791 -0.3431  0.0440 -0.3415
   9323SM  H17S12550  -0.222   4.051  14.773 -0.6978  0.2088 -2.6010
   9323SM  H17T12551  -0.312   4.147  14.896  0.9622  0.4760  0.1360
   9323SM  C18S12552  -0.170   4.256  14.770 -0.0534  0.6516  0.4711
   9323SM  H18S12553  -0.104   4.221  14.687 -0.1421  1.1588  0.1851
   9323SM  H18T12554  -0.103   4.276  14.856  2.0732 -3.3716 -0.0080
   9323SM  H18U12555  -0.219   4.348  14.731 -0.1552  0.3965 -0.0161
   9323SM   C1F12556   0.109   4.194  13.333  0.2836 -0.1315 -0.4785
   9323SM    OF12557   0.072   4.306  13.307  0.0103 -0.2034 -0.2618
   9323SM   C2F12558   0.231   4.173  13.422  0.4401 -0.0708  0.1347
   9323SM   H2F12559   0.316   4.171  13.350  0.3563  2.1668 -0.0844
   9323SM   H2G12560   0.224   4.080  13.482  0.4761 -0.5962 -0.6601
   9323SM   C3F12561   0.248   4.294  13.518 -0.7383 -0.1703 -0.9937
   9323SM   H3F12562   0.246   4.392  13.465  0.5165 -0.3900 -1.4870
   9323SM   H3G12563   0.342   4.279  13.575 -0.2935 -0.9607 -1.9017
   9323SM   C4F12564   0.136   4.314  13.624  0.2314  0.3776  0.2862
   9323SM   H4F12565   0.111   4.217  13.673  1.9177 -0.0009  0.4506
   9323SM   H4G12566   0.044   4.352  13.574  1.6331  1.1005 -1.8444
   9323SM   C5F12567   0.171   4.411  13.738 -0.4504 -0.4405 -0.2567
   9323SM   H5F12568   0.190   4.514  13.703 -1.6795  0.5074  1.7027
   9323SM   H5G12569   0.270   4.371  13.771 -1.1236 -2.0062 -0.0302
   9323SM   C6F12570   0.062   4.411  13.840  0.0246  0.0365  0.3654
   9323SM   H6F12571   0.029   4.305  13.848  3.0430 -1.1254 -1.2478
   9323SM   H6G12572  -0.021   4.480  13.814  0.9555  0.7607 -0.7625
   9323SM   C7F12573   0.107   4.453  13.980  0.6893 -0.4307 -0.0811
   9323SM   H7F12574   0.139   4.556  13.955  1.8974 -0.7501  0.0788
   9323SM   H7G12575   0.197   4.393  14.006  1.2866  0.6604  0.4597
   9323SM   C8F12576   0.004   4.417  14.089  0.4119 -0.6676  0.4167
   9323SM   H8F12577  -0.025   4.312  14.068 -2.2408  0.4814 -2.5937
   9323SM   H8G12578  -0.076   4.495  14.086  1.2834  0.3573  2.1985
   9323SM   C9F12579   0.063   4.431  14.231  0.0154 -0.2971  0.5925
   9323SM   H9F12580   0.130   4.519  14.226 -1.4270  0.7863 -0.0481
   9323SM   H9G12581   0.106   4.334  14.266  3.2744  0.9381  0.3544
   9323SM  C10F12582  -0.040   4.467  14.350  0.0199  0.4905  0.5421
   9323SM  H10F12583  -0.106   4.378  14.357  1.7282 -1.0400 -1.4498
   9323SM  H10G12584  -0.085   4.558  14.306  0.5427  0.6767  0.3774
   9323SM  C11F12585   0.038   4.483  14.483 -0.1148  0.1159  0.2127
   9323SM  H11F12586   0.143   4.519  14.477  0.2414 -1.1048 -1.7838
   9323SM  H11G12587   0.035   4.384  14.533 -2.8834  1.0224  2.0829
   9323SM  C12F12588  -0.035   4.564  14.585  0.4232  0.1059 -0.0581
   9323SM  H12F12589  -0.137   4.523  14.600  0.0952  0.3956 -1.3437
   9323SM  H12G12590  -0.048   4.670  14.554 -2.3226 -0.1512 -0.0544
   9323SM  C13F12591   0.042   4.568  14.722  0.6396  0.1717  0.4956
   9323SM  H13F12592   0.130   4.636  14.718 -0.7118  1.9307 -1.2914
   9323SM  H13G12593   0.078   4.471  14.762  2.2818  0.5777  0.0590
   9323SM  C14F12594  -0.046   4.618  14.836  0.2239  0.1526 -0.5810
   9323SM  H14F12595   0.003   4.598  14.933 -3.4234  1.4161  1.7360
   9323SM  H14G12596  -0.141   4.561  14.825  0.5772 -0.5379 -0.0727
   9323SM  C15F12597  -0.074   4.770  14.844  0.5332  0.5698 -0.0056
   9323SM  H15F12598  -0.108   4.785  14.739 -1.3976 -0.1021  0.4819
   9323SM  H15G12599   0.019   4.825  14.868  0.1577  0.5378  1.6297
   9323SM  C16F12600  -0.193   4.802  14.936 -0.5460  0.3763 -1.0587
   9323SM  H16F12601  -0.166   4.783  15.042 -2.0235 -0.6673 -0.8547
   9323SM  H16G12602  -0.271   4.724  14.925  2.1349 -2.4581 -1.5596
   9323SM  C17F12603  -0.247   4.951  14.923  0.2591  0.4750  0.1497
   9323SM  H17F12604  -0.325   4.924  14.849 -1.1384  0.0864  1.7146
   9323SM  H17G12605  -0.178   5.025  14.876  0.6765 -0.2440 -0.4039
   9323SM  C18F12606  -0.304   5.027  15.040 -0.3536 -0.4792  0.2475
   9323SM  H18F12607  -0.358   5.112  14.994  1.1076  0.6054  0.4757
   9323SM  H18G12608  -0.225   5.072  15.104  0.8616 -1.3927 -0.5479
   9323SM  C19F12609  -0.398   4.940  15.121 -0.2962 -0.3168  0.4623
   9323SM  H19F12610  -0.415   5.005  15.210  0.0843  4.1083 -2.3635
   9323SM  H19G12611  -0.355   4.843  15.153  0.4567 -1.2263 -2.9216
   9323SM  C20F12612  -0.534   4.901  15.056 -0.3806  0.3883  0.0985
   9323SM  H20F12613  -0.604   4.847  15.124 -0.4375  0.2082 -0.1003
   9323SM  H20G12614  -0.527   4.834  14.968  0.6701 -0.1952  0.6123
   9323SM  C21F12615  -0.625   5.024  15.016 -0.0911 -0.6657 -0.3410
   9323SM  H21F12616  -0.570   5.114  14.981  3.3771 -1.7370  1.8301
   9323SM  H21G12617  -0.676   5.069  15.104 -2.1648 -0.3412 -1.6561
   9323SM  C22F12618  -0.737   4.980  14.921 -0.1822  0.0728  0.0525
   9323SM  H22F12619  -0.779   4.889  14.967  1.2215 -0.5823  0.1074
   9323SM  H22G12620  -0.697   4.955  14.820 -0.6187 -1.7604  0.3027
   9323SM  C23F12621  -0.843   5.091  14.917 -0.2409  0.3480 -0.0166
   9323SM  H23F12622  -0.794   5.186  14.886 -3.4809  2.6105  1.2591
   9323SM  H23G12623  -0.885   5.102  15.019  0.7914 -0.1274  0.4794
   9323SM  H23H12624  -0.921   5.062  14.844  0.1072 -0.4098 -0.1047
   9423SM     N12625   5.591   0.664  11.981  0.2516 -0.1279  0.3213
   9423SM   C1512626   5.441   0.650  11.973 -0.0661 -0.1854 -0.5817
   9423SM  H15A12627   5.418   0.549  11.941 -2.6188 -0.3391  1.4207
   9423SM  H15B12628   5.393   0.729  11.918 -1.3455 -2.3614 -2.8499
   9423SM  H15C12629   5.399   0.657  12.072  0.7147  2.0979 -0.3547
   9423SM   C1412630   5.645   0.633  11.854  0.5211 -0.6181  0.3725
   9423SM  H14A12631   5.600   0.702  11.785 -1.1307 -1.8638  0.1347
   9423SM  H14B12632   5.625   0.530  11.825  0.0927  0.0471 -1.8807
   9423SM  H14C12633   5.753   0.639  11.849  0.4448  1.7294  0.6098
   9423SM   C1312634   5.602   0.811  12.018  0.1143  0.1063  0.3090
   9423SM  H13A12635   5.699   0.849  11.991  0.0643 -0.7530 -1.2103
   9423SM  H13B12636   5.582   0.829  12.122 -1.9374  0.7154 -0.1417
   9423SM  H13C12637   5.525   0.869  11.970  0.3355 -0.1077 -0.3133
   9423SM   C1212638   5.646   0.570  12.085  0.3157  0.8741  0.4036
   9423SM  H12A12639   5.753   0.565  12.075  0.2084 -2.6918 -0.4487
   9423SM  H12B12640   5.604   0.476  12.052  2.1623  0.4866 -1.0312
   9423SM   C1112641   5.608   0.580  12.238 -0.9570 -0.2622 -0.4814
   9423SM  H11A12642   5.631   0.682  12.275  1.1813 -0.8573  0.0042
   9423SM  H11B12643   5.681   0.508  12.280  1.8257  1.7707 -1.4765
   9423SM     P12644   5.435   0.477  12.407 -0.2619 -0.0035  0.1233
   9423SM   O1312645   5.293   0.496  12.438  0.8317 -0.1307 -0.0354
   9423SM   O1412646   5.481   0.337  12.393 -0.6677 -0.1589  0.2407
   9423SM   O1112647   5.518   0.545  12.522 -0.8057  0.5347 -0.1115
   9423SM   O1212648   5.472   0.559  12.271  0.2686 -0.2167  0.3097
   9423SM   C1S12649   5.493   0.672  12.583 -0.2816 -0.3333  0.3019
   9423SM   H1S12650   5.383   0.687  12.585 -0.2944 -0.4770  0.8672
   9423SM   H1T12651   5.540   0.755  12.526  0.5857 -2.1755 -1.8465
   9423SM    NF12652   5.544   0.781  12.804 -0.6311 -0.1000  0.3030
   9423SM   HNF12653   5.624   0.840  12.809  0.3791 -1.4596  0.7290
   9423SM   C2S12654   5.563   0.661  12.722  0.2861 -1.1212  0.0417
   9423SM   H2S12655   5.524   0.574  12.779  0.7645 -0.3636  1.5648
   9423SM   C3S12656   5.720   0.645  12.699 -0.5834  0.7413 -0.0217
   9423SM   H3S12657   5.758   0.738  12.652  1.1638  0.5449  0.9233
   9423SM    O312658   5.760   0.526  12.618 -0.0027 -0.1746 -0.0128
   9423SM   HO312659   5.674   0.499  12.587 -0.7958 -0.2009  2.0495
   9423SM   C4S12660   5.792   0.615  12.832 -0.2968  0.0787  0.5284
   9423SM   H4S12661   5.743   0.539  12.896 -0.1461 -0.8155 -0.3873
   9423SM   C5S12662   5.907   0.672  12.868 -0.7808 -0.1734  0.8059
   9423SM   H5S12663   5.961   0.746  12.807 -3.9789  2.6728  1.1087
   9423SM   C6S12664   5.970   0.655  13.006  0.4371 -0.4423 -0.0674
   9423SM   H6S12665   5.976   0.757  13.048 -0.3455 -0.6441  0.5484
   9423SM   H6T12666   6.071   0.614  12.983  0.8529  0.9261 -0.8133
   9423SM   C7S12667   5.919   0.550  13.102 -0.0472 -0.3748 -0.0627
   9423SM   H7S12668   5.935   0.447  13.063  0.8870 -0.4216  0.4373
   9423SM   H7T12669   5.808   0.553  13.113 -0.1593 -0.4435 -1.0722
   9423SM   C8S12670   5.978   0.561  13.240  0.4431 -0.2347 -0.1831
   9423SM   H8S12671   5.984   0.669  13.261  0.7642  0.2401 -2.4759
   9423SM   H8T12672   6.083   0.523  13.239 -0.3631 -2.6959 -0.0865
   9423SM   C9S12673   5.904   0.481  13.342 -0.7947  0.3849  0.3867
   9423SM   H9S12674   5.906   0.372  13.322 -0.3416  0.9031 -2.8507
   9423SM   H9T12675   5.803   0.528  13.348  0.5249  3.5067 -0.2885
   9423SM  C10S12676   5.970   0.479  13.483  0.2476 -0.5253 -0.3058
   9423SM  H10S12677   5.963   0.579  13.531  2.2648 -0.7960  0.6352
   9423SM  H10T12678   6.078   0.454  13.474  0.1761 -0.4096 -1.7264
   9423SM  C11S12679   5.906   0.381  13.588  0.4766 -0.1387 -0.2805
   9423SM  H11S12680   5.879   0.285  13.539  0.6705  0.1556 -0.9809
   9423SM  H11T12681   5.811   0.429  13.621  1.7246  0.6705  2.4591
   9423SM  C12S12682   5.989   0.383  13.719 -0.1298  0.2100  0.2772
   9423SM  H12S12683   5.998   0.488  13.753 -3.6928  0.7754 -0.1533
   9423SM  H12T12684   6.091   0.346  13.695  0.2067  0.8457  0.6947
   9423SM  C13S12685   5.933   0.287  13.824  0.1952 -0.5933  0.5352
   9423SM  H13S12686   5.931   0.183  13.786  2.9697 -0.8996  1.0308
   9423SM  H13T12687   5.825   0.309  13.838 -0.0724  0.3491 -2.3464
   9423SM  C14S12688   6.012   0.258  13.948 -0.2163 -0.7501  0.4126
   9423SM  H14S12689   6.116   0.231  13.922 -0.9610  0.4453 -5.0200
   9423SM  H14T12690   5.953   0.179  13.999  1.0319 -1.4126  0.8529
   9423SM  C15S12691   6.004   0.376  14.043  0.4521 -0.0963 -0.5126
   9423SM  H15S12692   5.910   0.426  14.012  0.1737 -0.8248 -0.8614
   9423SM  H15T12693   6.076   0.460  14.031 -1.4556  1.6075 -0.4041
   9423SM  C16S12694   5.993   0.326  14.194  0.6948  0.3317  0.7867
   9423SM  H16S12695   6.071   0.248  14.206  2.8758  1.9613 -1.6049
   9423SM  H16T12696   5.898   0.272  14.213  1.0165 -0.0695  1.2854
   9423SM  C17S12697   6.003   0.442  14.286  0.0118  0.4291 -0.6679
   9423SM  H17S12698   5.930   0.523  14.269  0.3465  0.9675  0.3608
   9423SM  H17T12699   6.106   0.482  14.277  0.9678 -1.8578 -0.6100
   9423SM  C18S12700   5.980   0.397  14.432  0.2797  0.4298  0.1308
   9423SM  H18S12701   5.975   0.477  14.509 -1.2020 -1.6484  2.3684
   9423SM  H18T12702   6.054   0.319  14.461 -0.4700  0.2661  1.7203
   9423SM  H18U12703   5.884   0.341  14.434 -0.3634  1.4875  2.4791
   9423SM   C1F12704   5.425   0.819  12.854 -0.3307  0.3151 -0.0899
   9423SM    OF12705   5.326   0.751  12.831 -0.1594 -0.4243  0.0899
   9423SM   C2F12706   5.439   0.939  12.941 -0.3935  0.0298  0.3194
   9423SM   H2F12707   5.447   1.035  12.885  1.1942  0.8510  1.8480
   9423SM   H2G12708   5.538   0.928  12.990  0.4249  0.4692 -1.1633
   9423SM   C3F12709   5.324   0.950  13.044  0.0814  0.0091 -0.0094
   9423SM   H3F12710   5.233   0.977  12.986  0.9158 -0.0424 -1.3918
   9423SM   H3G12711   5.348   1.036  13.110  0.4171  0.8683 -1.2177
   9423SM   C4F12712   5.294   0.827  13.129  0.2031  0.2791  0.9415
   9423SM   H4F12713   5.387   0.814  13.189  1.6475  0.0603 -1.2451
   9423SM   H4G12714   5.269   0.736  13.070  0.4482 -0.5981  2.1359
   9423SM   C5F12715   5.181   0.849  13.228  0.1888 -0.4595 -0.1076
   9423SM   H5F12716   5.083   0.830  13.177  0.4599  0.3804 -0.9823
   9423SM   H5G12717   5.184   0.952  13.269 -1.3547 -0.5731  0.3715
   9423SM   C6F12718   5.171   0.763  13.353 -0.2389 -0.4923 -0.0925
   9423SM   H6F12719   5.187   0.659  13.320  0.6722 -0.3244 -0.2018
   9423SM   H6G12720   5.078   0.777  13.412  0.8372 -0.7478  1.7448
   9423SM   C7F12721   5.294   0.776  13.450  0.0279 -0.0201 -0.3238
   9423SM   H7F12722   5.314   0.882  13.474  1.1858 -0.4009  0.4601
   9423SM   H7G12723   5.379   0.724  13.400 -0.5849 -0.4311 -0.9720
   9423SM   C8F12724   5.264   0.713  13.589  0.7081 -0.2986  0.4206
   9423SM   H8F12725   5.253   0.602  13.592 -1.2556 -0.1319  0.8318
   9423SM   H8G12726   5.178   0.756  13.645  0.9311 -1.5760  1.7972
   9423SM   C9F12727   5.393   0.733  13.674  0.4800  0.4300 -0.5183
   9423SM   H9F12728   5.416   0.840  13.695 -0.0626  0.3614  0.4604
   9423SM   H9G12729   5.477   0.694  13.613  0.3569  0.3134 -0.6126
   9423SM  C10F12730   5.393   0.645  13.813 -0.0223 -0.0246 -0.5027
   9423SM  H10F12731   5.479   0.684  13.872 -1.0296  1.0209  0.3327
   9423SM  H10G12732   5.412   0.540  13.784  0.7064  0.8114 -3.4149
   9423SM  C11F12733   5.267   0.657  13.908  0.5274 -0.3770  0.7775
   9423SM  H11F12734   5.197   0.587  13.860  2.9731 -0.4051 -3.1664
   9423SM  H11G12735   5.237   0.764  13.900  0.2663 -0.3309  2.0708
   9423SM  C12F12736   5.287   0.612  14.056  0.1675 -0.6092  0.2519
   9423SM  H12F12737   5.324   0.508  14.060  0.0065 -0.7266 -0.9373
   9423SM  H12G12738   5.188   0.613  14.106  1.0058  0.3850  2.0065
   9423SM  C13F12739   5.385   0.700  14.140  0.1057 -0.1474  0.0560
   9423SM  H13F12740   5.374   0.810  14.124  1.8968  0.3772  1.9700
   9423SM  H13G12741   5.490   0.681  14.108  0.5968 -1.4611  2.2472
   9423SM  C14F12742   5.377   0.675  14.290 -0.3185 -0.2699  0.1639
   9423SM  H14F12743   5.271   0.687  14.320 -0.4305  0.9082 -0.6382
   9423SM  H14G12744   5.430   0.755  14.346 -1.1193  0.6618 -0.3662
   9423SM  C15F12745   5.424   0.536  14.331 -0.1435  0.2704  0.5880
   9423SM  H15F12746   5.535   0.537  14.340 -0.1733  2.3414  1.0571
   9423SM  H15G12747   5.408   0.456  14.256  1.2658  0.7934 -0.3148
   9423SM  C16F12748   5.370   0.506  14.472 -0.4371 -0.3088 -0.0583
   9423SM  H16F12749   5.259   0.508  14.463 -0.3276  1.4510 -1.6497
   9423SM  H16G12750   5.408   0.587  14.537  0.8244  0.6212 -1.8510
   9423SM  C17F12751   5.413   0.370  14.516  0.4494  0.5043  0.3042
   9423SM  H17F12752   5.523   0.382  14.527  0.4153 -0.5028  2.0766
   9423SM  H17G12753   5.379   0.297  14.439 -1.7738  0.1571  1.5231
   9423SM  C18F12754   5.353   0.334  14.651  0.4738 -0.5513 -0.1356
   9423SM  H18F12755   5.253   0.289  14.632  0.7917 -1.5146  0.3794
   9423SM  H18G12756   5.348   0.427  14.711  0.7363  1.0800 -2.5497
   9423SM  C19F12757   5.432   0.227  14.718  0.1187  0.3188  0.0414
   9423SM  H19F12758   5.400   0.218  14.824  0.2421 -3.4359 -0.0872
   9423SM  H19G12759   5.540   0.250  14.733 -0.4652  2.2862  1.6929
   9423SM  C20F12760   5.432   0.085  14.653 -0.3116 -0.7106  0.4244
   9423SM  H20F12761   5.522   0.032  14.690  0.6900  0.8257  0.2646
   9423SM  H20G12762   5.443   0.109  14.545 -0.5060  1.1963  0.7942
   9423SM  C21F12763   5.312  -0.007  14.679  0.4529 -0.1161  0.1536
   9423SM  H21F12764   5.225   0.036  14.623  1.9166  0.5445 -1.7403
   9423SM  H21G12765   5.295  -0.007  14.788  0.5800  0.0393  0.1747
   9423SM  C22F12766   5.327  -0.144  14.616  0.0718  0.3514  0.6803
   9423SM  H22F12767   5.253  -0.220  14.647  0.9195 -0.7531  0.0785
   9423SM  H22G12768   5.419  -0.192  14.655 -0.6552 -0.8616  0.9343
   9423SM  C23F12769   5.328  -0.140  14.466  0.4072 -0.0916  0.8088
   9423SM  H23F12770   5.234  -0.102  14.419  0.8244 -1.1530 -0.9960
   9423SM  H23G12771   5.346  -0.246  14.435 -0.6200 -0.7810  2.4361
   9423SM  H23H12772   5.415  -0.082  14.431  0.0641 -0.1819 -0.2258
   9523SM     N12773   1.245   3.817  12.383 -0.1989  0.6383  0.4028
   9523SM   C1512774   1.378   3.829  12.304 -0.3781  0.1775  0.3377
   9523SM  H15A12775   1.415   3.729  12.293 -0.6034 -0.0832  1.7681
   9523SM  H15B12776   1.444   3.890  12.363  0.4503  0.1411 -0.5179
   9523SM  H15C12777   1.355   3.868  12.205 -1.8498 -0.8095  0.2574
   9523SM   C1412778   1.177   3.950  12.393 -0.0278  0.2219 -0.1703
   9523SM  H14A12779   1.237   4.029  12.437 -0.4564  0.9914 -0.9331
   9523SM  H14B12780   1.091   3.946  12.459 -0.9888  2.1232 -1.2341
   9523SM  H14C12781   1.140   3.990  12.300 -2.4070  1.1673  1.0852
   9523SM   C1312782   1.155   3.719  12.314 -0.2205 -0.0066  0.0904
   9523SM  H13A12783   1.209   3.628  12.290 -1.1228 -0.8232  1.0482
   9523SM  H13B12784   1.124   3.764  12.221  0.9042  0.9107  0.1287
   9523SM  H13C12785   1.068   3.696  12.374 -0.5705 -0.1609 -0.4711
   9523SM   C1212786   1.286   3.763  12.520  0.7148 -0.5382  0.1372
   9523SM  H12A12787   1.198   3.760  12.583  2.4953 -0.4557  2.7627
   9523SM  H12B12788   1.345   3.834  12.576 -2.3218  1.3547  1.1900
   9523SM   C1112789   1.342   3.612  12.525 -0.7002  0.2372 -0.2082
   9523SM  H11A12790   1.263   3.547  12.481  0.8331  0.3353 -3.3079
   9523SM  H11B12791   1.361   3.592  12.633 -1.8680  0.5281  0.0721
   9523SM     P12792   1.613   3.588  12.516 -0.3064 -0.2565 -0.4469
   9523SM   O1312793   1.636   3.444  12.528  0.5859 -0.6961  0.7377
   9523SM   O1412794   1.707   3.663  12.428 -0.0742  0.0141  0.2516
   9523SM   O1112795   1.601   3.649  12.663 -0.6018 -0.0021  0.0540
   9523SM   O1212796   1.466   3.605  12.452  0.9269  0.0307 -0.0419
   9523SM   C1S12797   1.723   3.664  12.736  0.3489  0.0356  0.6304
   9523SM   H1S12798   1.789   3.739  12.687 -0.7946 -1.1775 -3.1166
   9523SM   H1T12799   1.790   3.576  12.746  1.4599  0.9672  1.7565
   9523SM    NF12800   1.812   3.756  12.937  0.1543 -0.0059  0.0211
   9523SM   HNF12801   1.869   3.703  13.000  0.8590  0.9352  0.2081
   9523SM   C2S12802   1.692   3.709  12.880  0.4430 -0.4413 -0.6299
   9523SM   H2S12803   1.615   3.789  12.888 -0.3642 -1.2810  0.2457
   9523SM   C3S12804   1.629   3.597  12.960 -0.4885 -0.1477 -0.5460
   9523SM   H3S12805   1.705   3.516  12.958 -0.1509 -0.0119  2.4014
   9523SM    O312806   1.518   3.529  12.904 -0.0277 -0.3920 -0.4108
   9523SM   HO312807   1.517   3.553  12.810 -1.0521  1.2579 -0.0236
   9523SM   C4S12808   1.597   3.638  13.102  0.2316  0.4647  0.5764
   9523SM   H4S12809   1.545   3.735  13.114 -0.5302 -0.0462  1.4493
   9523SM   C5S12810   1.602   3.563  13.211 -0.2218  0.6479 -0.1812
   9523SM   H5S12811   1.620   3.456  13.197 -1.2426  0.6804 -2.1859
   9523SM   C6S12812   1.546   3.605  13.350  0.1503 -0.0961  0.0095
   9523SM   H6S12813   1.462   3.535  13.370  0.8655 -1.2912 -1.0899
   9523SM   H6T12814   1.509   3.710  13.345  1.1905  0.3264  0.7491
   9523SM   C7S12815   1.641   3.587  13.460 -0.1000 -0.2713  0.0613
   9523SM   H7S12816   1.718   3.666  13.469  1.0968 -1.4923  0.8449
   9523SM   H7T12817   1.700   3.493  13.451 -0.1514 -0.2791 -0.2198
   9523SM   C8S12818   1.578   3.575  13.595 -0.0450 -0.3976 -0.3757
   9523SM   H8S12819   1.487   3.515  13.579 -0.9016  0.6470  0.4026
   9523SM   H8T12820   1.536   3.670  13.634  1.2237 -0.7984  2.1725
   9523SM   C9S12821   1.691   3.519  13.690 -0.9531 -0.0809 -0.5673
   9523SM   H9S12822   1.778   3.588  13.689 -1.4364  0.5818 -3.1952
   9523SM   H9T12823   1.729   3.418  13.661  2.6540  1.1599 -0.6700
   9523SM  C10S12824   1.642   3.532  13.834 -0.5174 -0.3762  0.1710
   9523SM  H10S12825   1.538   3.492  13.837  0.1073 -2.0111  2.9177
   9523SM  H10T12826   1.637   3.642  13.848  1.1397 -0.3522  0.7281
   9523SM  C11S12827   1.737   3.474  13.938  0.4707 -0.2543  0.1325
   9523SM  H11S12828   1.827   3.538  13.923  0.9548 -1.2510 -1.5835
   9523SM  H11T12829   1.748   3.366  13.912  0.5711  0.3212 -2.6088
   9523SM  C12S12830   1.692   3.499  14.084  0.3642 -0.1564 -0.3768
   9523SM  H12S12831   1.687   3.609  14.099  1.5205  0.0187 -1.1514
   9523SM  H12T12832   1.764   3.448  14.152  0.4605 -0.7300 -0.9025
   9523SM  C13S12833   1.561   3.441  14.118 -0.1018  0.0123  0.7711
   9523SM  H13S12834   1.552   3.332  14.094  1.1460  0.4013 -1.8084
   9523SM  H13T12835   1.479   3.486  14.058  0.3986  0.3346  0.3178
   9523SM  C14S12836   1.536   3.457  14.266  0.0935  0.3846 -0.0281
   9523SM  H14S12837   1.538   3.565  14.292  1.8922  0.8538 -1.8796
   9523SM  H14T12838   1.618   3.415  14.328  0.7659 -0.2618 -1.3212
   9523SM  C15S12839   1.404   3.397  14.314 -0.0499 -0.1097 -0.4081
   9523SM  H15S12840   1.410   3.287  14.298 -1.2597 -1.2835  4.9782
   9523SM  H15T12841   1.324   3.446  14.254  1.2444  2.8472  0.0997
   9523SM  C16S12842   1.370   3.411  14.464  0.5194  0.3431  0.8535
   9523SM  H16S12843   1.275   3.356  14.481  0.1700  0.3901 -0.7739
   9523SM  H16T12844   1.338   3.515  14.488 -0.1440  0.0840  1.1256
   9523SM  C17S12845   1.487   3.361  14.548 -0.4380 -0.2641 -0.0423
   9523SM  H17S12846   1.569   3.430  14.518 -0.5630  1.0366  2.4158
   9523SM  H17T12847   1.505   3.255  14.519 -0.9255 -0.6735  1.1234
   9523SM  C18S12848   1.455   3.377  14.693 -0.2673  0.6701  0.1510
   9523SM  H18S12849   1.536   3.337  14.758 -1.7008  0.6771  2.0426
   9523SM  H18T12850   1.358   3.328  14.712  0.0705 -0.6729 -1.3511
   9523SM  H18U12851   1.440   3.485  14.715  0.2724  1.2406 -2.0460
   9523SM   C1F12852   1.867   3.876  12.914 -0.4235  0.1144  0.7765
   9523SM    OF12853   1.826   3.957  12.829  0.2017 -0.8473  0.3185
   9523SM   C2F12854   1.985   3.922  12.992 -0.2223 -0.3721  0.0037
   9523SM   H2F12855   2.024   4.020  12.956  1.1359  0.4737  3.3926
   9523SM   H2G12856   2.063   3.845  12.974 -1.2162 -1.3297 -0.2764
   9523SM   C3F12857   1.960   3.935  13.147  0.4298  0.4307  0.4119
   9523SM   H3F12858   1.939   3.832  13.184 -1.5030  0.5579 -0.2188
   9523SM   H3G12859   1.865   3.991  13.160  0.1352 -0.4547  2.4454
   9523SM   C4F12860   2.070   3.999  13.232  0.8453 -0.6492  0.3889
   9523SM   H4F12861   2.087   4.097  13.183 -1.3633  0.3750  1.5132
   9523SM   H4G12862   2.156   3.929  13.239  0.6368 -0.9741 -0.2260
   9523SM   C5F12863   2.018   4.016  13.373  0.4418  0.1349 -0.4388
   9523SM   H5F12864   2.005   3.919  13.424 -0.6774  1.8595  2.8107
   9523SM   H5G12865   1.917   4.063  13.378  0.6729  0.5280  0.8797
   9523SM   C6F12866   2.110   4.099  13.467  0.3177 -0.7264 -0.3915
   9523SM   H6F12867   2.133   4.199  13.424 -0.5791  0.2194  1.2274
   9523SM   H6G12868   2.196   4.034  13.493  0.6844 -0.0138  0.1896
   9523SM   C7F12869   2.033   4.125  13.603  0.7024  0.0534  0.6403
   9523SM   H7F12870   2.002   4.032  13.655 -1.1676  1.5889  2.4050
   9523SM   H7G12871   1.937   4.179  13.589  1.1800  1.2011  1.6781
   9523SM   C8F12872   2.121   4.204  13.708 -0.3327 -0.0936 -0.0232
   9523SM   H8F12873   2.094   4.311  13.698 -0.4058 -0.1926 -1.0974
   9523SM   H8G12874   2.229   4.196  13.683 -0.1381  1.5082  0.2282
   9523SM   C9F12875   2.096   4.173  13.853 -0.4595  0.6692  0.4828
   9523SM   H9F12876   2.112   4.063  13.861  1.5591  0.7302 -1.6956
   9523SM   H9G12877   1.990   4.196  13.876 -1.2838 -2.1726 -0.1071
   9523SM  C10F12878   2.189   4.245  13.953  0.2472 -0.2873 -0.0338
   9523SM  H10F12879   2.162   4.353  13.950 -0.1689 -0.3855 -3.1863
   9523SM  H10G12880   2.295   4.229  13.926  0.2297 -2.9699  1.2057
   9523SM  C11F12881   2.164   4.205  14.100  0.2100 -0.2690  0.2260
   9523SM  H11F12882   2.207   4.109  14.137 -3.7851 -1.7094  1.7432
   9523SM  H11G12883   2.057   4.184  14.122 -0.5071  1.6915 -1.1562
   9523SM  C12F12884   2.211   4.314  14.200  0.4102  0.7066 -0.0269
   9523SM  H12F12885   2.193   4.414  14.155  0.2612  0.1325 -1.2928
   9523SM  H12G12886   2.319   4.293  14.215 -0.1468 -1.2836  1.5417
   9523SM  C13F12887   2.143   4.302  14.335 -0.1032 -0.0619  0.4977
   9523SM  H13F12888   2.174   4.204  14.378 -0.0355 -0.3103 -0.1096
   9523SM  H13G12889   2.033   4.290  14.322 -0.2832  1.5954  0.3598
   9523SM  C14F12890   2.180   4.412  14.436 -0.1117  0.3000 -0.1119
   9523SM  H14F12891   2.120   4.416  14.529  0.3014  0.3848  0.1531
   9523SM  H14G12892   2.171   4.511  14.386  0.5929  0.5569  0.2553
   9523SM  C15F12893   2.326   4.405  14.483  0.7610  1.0346 -0.2873
   9523SM  H15F12894   2.399   4.353  14.418 -0.2636 -1.4957  0.4274
   9523SM  H15G12895   2.313   4.331  14.566 -1.3788 -0.6856 -2.0376
   9523SM  C16F12896   2.382   4.542  14.522  0.5859 -0.8459 -0.0424
   9523SM  H16F12897   2.398   4.583  14.420 -2.3425  0.1614 -0.1905
   9523SM  H16G12898   2.472   4.519  14.582  1.1401  0.1202 -0.4890
   9523SM  C17F12899   2.289   4.623  14.622  0.2752  0.2597 -0.5482
   9523SM  H17F12900   2.184   4.620  14.586  0.9120 -0.1583 -2.4591
   9523SM  H17G12901   2.331   4.726  14.620  2.1557 -0.4611 -0.2956
   9523SM  C18F12902   2.306   4.575  14.770  0.0912 -0.3243 -0.4007
   9523SM  H18F12903   2.412   4.579  14.804  0.0880 -0.4217 -0.3781
   9523SM  H18G12904   2.281   4.467  14.773  1.2606 -0.6515 -1.4862
   9523SM  C19F12905   2.217   4.657  14.870 -0.0948  0.1066 -0.0900
   9523SM  H19F12906   2.113   4.619  14.856  0.1202  0.0994 -1.9034
   9523SM  H19G12907   2.221   4.763  14.838 -1.2816  0.2578  0.2174
   9523SM  C20F12908   2.248   4.633  15.016  0.2726 -0.0347  0.7368
   9523SM  H20F12909   2.189   4.699  15.083  0.5507 -2.6646  3.7664
   9523SM  H20G12910   2.354   4.661  15.034  0.5621 -0.3432 -0.3990
   9523SM  C21F12911   2.243   4.482  15.047  0.9027 -0.2869  0.8043
   9523SM  H21F12912   2.309   4.416  14.987  0.8147  1.5200 -1.4162
   9523SM  H21G12913   2.139   4.449  15.028  1.1566 -0.7481  0.1755
   9523SM  C22F12914   2.256   4.460  15.198 -0.6040 -0.4075 -0.1248
   9523SM  H22F12915   2.175   4.520  15.246  0.1085  0.8002 -0.3945
   9523SM  H22G12916   2.352   4.504  15.231 -0.6955  0.5184 -1.0381
   9523SM  C23F12917   2.243   4.306  15.227  0.8300 -0.5529 -0.1953
   9523SM  H23F12918   2.254   4.287  15.336 -1.6106 -0.0669  0.1909
   9523SM  H23G12919   2.320   4.255  15.166 -0.0575 -0.6547 -1.2483
   9523SM  H23H12920   2.144   4.272  15.190 -0.0860  2.7626 -1.1966
   9623SM     N12921   2.631   2.858  12.232  0.3680  0.2892 -0.1170
   9623SM   C1512922   2.687   2.876  12.097  0.6355  0.3630 -0.1684
   9623SM  H15A12923   2.691   2.788  12.034  3.8272 -0.0436  0.4627
   9623SM  H15B12924   2.789   2.911  12.093  1.6204 -2.3205 -2.6156
   9623SM  H15C12925   2.623   2.942  12.040 -2.1478 -2.7509 -1.0462
   9623SM   C1412926   2.594   2.996  12.279  0.1873 -0.0121 -0.1221
   9623SM  H14A12927   2.688   3.049  12.287  0.9660 -1.4156  0.4435
   9623SM  H14B12928   2.561   2.991  12.382  0.0313  0.1600 -0.1623
   9623SM  H14C12929   2.533   3.044  12.203 -1.5897 -1.3855  0.3655
   9623SM   C1312930   2.512   2.768  12.222 -0.1944 -0.2803 -0.3415
   9623SM  H13A12931   2.544   2.675  12.178 -0.8445 -0.9627  0.5971
   9623SM  H13B12932   2.431   2.813  12.167 -0.2880 -1.0126 -0.8134
   9623SM  H13C12933   2.470   2.755  12.320 -2.6940 -0.4294 -1.3585
   9623SM   C1212934   2.728   2.794  12.326  0.3364 -0.3646  0.0069
   9623SM  H12A12935   2.814   2.859  12.317  0.0853  0.2587  1.6335
   9623SM  H12B12936   2.747   2.693  12.293 -1.4364 -0.0419 -2.2628
   9623SM   C1112937   2.695   2.769  12.470  0.4879  0.1040 -0.1322
   9623SM  H11A12938   2.784   2.720  12.515  0.9157 -0.5789 -1.6357
   9623SM  H11B12939   2.614   2.692  12.469  0.9523 -0.5100  2.5209
   9623SM     P12940   2.739   2.996  12.601 -0.8125 -0.2694 -0.2463
   9623SM   O1312941   2.877   2.956  12.635 -0.1077 -0.0446 -0.2807
   9623SM   O1412942   2.725   3.115  12.511  0.5845  0.3702 -0.1827
   9623SM   O1112943   2.663   3.033  12.736  0.8291 -0.6620 -0.6352
   9623SM   O1212944   2.648   2.878  12.554 -0.1233  0.6409 -0.4914
   9623SM   C1S12945   2.606   2.918  12.801  0.8632 -0.1145 -0.4260
   9623SM   H1S12946   2.656   2.820  12.789 -1.0513 -1.0288 -1.1867
   9623SM   H1T12947   2.507   2.905  12.753  0.9053  1.0684 -0.8658
   9623SM    NF12948   2.538   2.834  13.029 -0.4318  0.0665 -0.1242
   9623SM   HNF12949   2.440   2.817  13.033 -0.2845 -1.5292 -1.7832
   9623SM   C2S12950   2.566   2.954  12.948 -0.2674 -0.3082  0.2949
   9623SM   H2S12951   2.655   3.004  12.991 -0.6764  0.5875  0.1182
   9623SM   C3S12952   2.445   3.048  12.960 -0.6009  0.7897 -0.5879
   9623SM   H3S12953   2.367   2.991  12.907 -0.3305 -1.5834  1.4168
   9623SM    O312954   2.464   3.172  12.888  0.5376 -0.0767  0.2308
   9623SM   HO312955   2.542   3.153  12.836 -0.1551  0.4420 -1.0534
   9623SM   C4S12956   2.391   3.070  13.105  0.3047  0.0436  0.1294
   9623SM   H4S12957   2.329   2.994  13.154 -1.6194  2.2018  1.2311
   9623SM   C5S12958   2.411   3.183  13.181  0.0378  0.3636  0.4500
   9623SM   H5S12959   2.453   3.271  13.129  0.7080 -1.0676 -1.5449
   9623SM   C6S12960   2.360   3.202  13.325 -1.1635  0.3882  0.6931
   9623SM   H6S12961   2.295   3.291  13.342  1.2381  2.1814  1.0323
   9623SM   H6T12962   2.455   3.232  13.373 -1.5405  2.4659  0.2388
   9623SM   C7S12963   2.298   3.077  13.401 -0.1360 -0.6985 -0.2427
   9623SM   H7S12964   2.372   2.995  13.408  2.2395  1.4481  2.1101
   9623SM   H7T12965   2.213   3.056  13.332  0.6605  1.8367 -2.1745
   9623SM   C8S12966   2.251   3.124  13.543 -0.2344  0.0601  0.1486
   9623SM   H8S12967   2.187   3.043  13.585 -1.7862  1.2194  0.1406
   9623SM   H8T12968   2.177   3.204  13.520 -2.0023 -1.4435  0.2813
   9623SM   C9S12969   2.353   3.158  13.644 -0.0146 -0.7491 -0.1321
   9623SM   H9S12970   2.430   3.225  13.601  0.0841 -0.7078  0.1070
   9623SM   H9T12971   2.409   3.065  13.668 -0.5558 -0.9336  0.4618
   9623SM  C10S12972   2.299   3.203  13.787  0.1520  0.4805  0.8575
   9623SM  H10S12973   2.221   3.130  13.816  0.0828  1.6471  3.9110
   9623SM  H10T12974   2.248   3.302  13.775  0.7304  1.0065  2.5386
   9623SM  C11S12975   2.408   3.209  13.892  0.5256 -0.6237 -0.7151
   9623SM  H11S12976   2.491   3.273  13.855  0.0938  1.0381  1.0021
   9623SM  H11T12977   2.451   3.112  13.924 -1.1239 -0.1860  3.5048
   9623SM  C12S12978   2.369   3.269  14.032  0.0553 -0.3281 -0.1801
   9623SM  H12S12979   2.363   3.380  14.032  2.5293 -0.1304  0.1822
   9623SM  H12T12980   2.453   3.238  14.098 -0.4225  0.8354  1.0095
   9623SM  C13S12981   2.233   3.224  14.080  0.7080  0.3989  0.1484
   9623SM  H13S12982   2.210   3.116  14.074 -1.0822  0.6778  1.0623
   9623SM  H13T12983   2.159   3.271  14.011 -1.0964 -2.6087 -0.1650
   9623SM  C14S12984   2.204   3.276  14.225 -1.2059  0.5685  0.5370
   9623SM  H14S12985   2.233   3.383  14.237  0.1270  0.5601 -1.9620
   9623SM  H14T12986   2.275   3.217  14.287 -0.2343  0.6912 -0.4301
   9623SM  C15S12987   2.061   3.252  14.267  0.0707  1.1669 -0.1928
   9623SM  H15S12988   2.036   3.144  14.271  0.3094  1.0546 -1.4007
   9623SM  H15T12989   2.009   3.306  14.186 -0.3027 -1.2785 -1.6684
   9623SM  C16S12990   2.018   3.318  14.403 -0.3287 -0.3471 -0.9054
   9623SM  H16S12991   2.022   3.429  14.399 -1.7507 -0.2711 -0.8395
   9623SM  H16T12992   2.094   3.289  14.479  0.9408 -0.7514 -2.3022
   9623SM  C17S12993   1.880   3.276  14.449  0.0285 -0.2749  0.3370
   9623SM  H17S12994   1.881   3.166  14.463  0.5728 -0.2344  0.6499
   9623SM  H17T12995   1.805   3.295  14.370  0.0820  0.0345  0.3576
   9623SM  C18S12996   1.839   3.349  14.576 -0.3805  0.3218 -0.1767
   9623SM  H18S12997   1.849   3.460  14.573 -1.0535  0.4408  1.1426
   9623SM  H18T12998   1.902   3.331  14.665 -0.2972  2.3003  0.2106
   9623SM  H18U12999   1.733   3.322  14.597  0.2396 -1.1565  1.2535
   9623SM   C1F13000   2.632   2.743  13.064 -0.3338  0.1450 -0.0007
   9623SM    OF13001   2.751   2.768  13.040  0.5247  0.2959 -0.1343
   9623SM   C2F13002   2.583   2.616  13.129 -0.6295 -0.0553 -0.9536
   9623SM   H2F13003   2.655   2.540  13.093 -1.0954  0.6135 -3.4922
   9623SM   H2G13004   2.478   2.592  13.101 -1.2719  0.8393  0.5325
   9623SM   C3F13005   2.593   2.636  13.291 -0.6845  1.0778  0.5313
   9623SM   H3F13006   2.701   2.645  13.313 -0.5270 -0.4215  0.4407
   9623SM   H3G13007   2.564   2.536  13.330 -0.4383 -0.1567 -2.2110
   9623SM   C4F13008   2.522   2.765  13.351  0.2467  0.3745 -0.0093
   9623SM   H4F13009   2.417   2.768  13.313 -1.3352 -2.0754  3.6064
   9623SM   H4G13010   2.580   2.852  13.315  0.1284  0.9240  1.0845
   9623SM   C5F13011   2.516   2.757  13.504 -0.6056 -0.2750 -0.3604
   9623SM   H5F13012   2.472   2.848  13.549  0.3406 -0.3431  0.7557
   9623SM   H5G13013   2.620   2.744  13.543 -0.3358  1.7237 -0.3022
   9623SM   C6F13014   2.422   2.644  13.561  0.1598  0.6241 -0.1244
   9623SM   H6F13015   2.451   2.547  13.516 -0.2485  0.6166 -0.3713
   9623SM   H6G13016   2.318   2.665  13.529 -1.4358 -2.6194  2.2340
   9623SM   C7F13017   2.425   2.628  13.714 -0.2784 -0.2240  0.5373
   9623SM   H7F13018   2.516   2.579  13.755  0.3550  1.6217  1.5083
   9623SM   H7G13019   2.348   2.553  13.742 -0.4200  0.5008  2.1972
   9623SM   C8F13020   2.420   2.753  13.797  0.0596 -0.1940 -0.5884
   9623SM   H8F13021   2.339   2.827  13.777  0.2263  0.6667  1.5975
   9623SM   H8G13022   2.517   2.806  13.790  0.2022 -0.5839 -1.6715
   9623SM   C9F13023   2.403   2.716  13.942 -0.6204 -0.3529 -0.1449
   9623SM   H9F13024   2.493   2.659  13.974  0.3691  1.2111 -0.0134
   9623SM   H9G13025   2.306   2.663  13.957 -2.1891  2.2512 -0.5010
   9623SM  C10F13026   2.404   2.843  14.032 -0.4192  0.1145  0.1583
   9623SM  H10F13027   2.312   2.900  14.011  0.0492  0.8196 -0.0313
   9623SM  H10G13028   2.484   2.920  14.020 -1.6146  1.7168  1.9421
   9623SM  C11F13029   2.391   2.805  14.177 -0.3651  0.0552  0.6098
   9623SM  H11F13030   2.485   2.751  14.201  0.1611  0.2615 -0.8488
   9623SM  H11G13031   2.302   2.738  14.185  0.7411 -1.7762 -1.4245
   9623SM  C12F13032   2.356   2.921  14.269 -0.2791 -0.1571  0.0221
   9623SM  H12F13033   2.262   2.962  14.227  0.2110 -0.4155 -1.3839
   9623SM  H12G13034   2.435   2.998  14.253 -1.9445  1.5595 -0.2832
   9623SM  C13F13035   2.335   2.887  14.413 -0.0895 -0.3508  0.0873
   9623SM  H13F13036   2.256   2.811  14.429 -0.4227  0.2443  1.3960
   9623SM  H13G13037   2.300   2.981  14.461 -0.2745 -0.0479 -0.6273
   9623SM  C14F13038   2.465   2.828  14.483 -0.3460 -0.0482  0.3371
   9623SM  H14F13039   2.549   2.901  14.486 -0.7369  0.3937  2.9606
   9623SM  H14G13040   2.496   2.746  14.415 -2.7289 -1.7214  1.1286
   9623SM  C15F13041   2.450   2.782  14.623 -0.0031 -0.0725 -0.4896
   9623SM  H15F13042   2.400   2.862  14.681  1.5913  1.1015 -0.6611
   9623SM  H15G13043   2.546   2.766  14.676 -0.1936  1.5228  0.3979
   9623SM  C16F13044   2.383   2.647  14.634  0.4307 -0.0295  0.1822
   9623SM  H16F13045   2.434   2.577  14.564 -1.0712 -1.0147  0.0266
   9623SM  H16G13046   2.281   2.664  14.593  1.7491  0.4133 -3.2588
   9623SM  C17F13047   2.374   2.581  14.774 -0.2013  0.1297  0.0037
   9623SM  H17F13048   2.480   2.573  14.806 -0.8036 -1.1739  1.8715
   9623SM  H17G13049   2.331   2.478  14.776  0.2459 -0.0919 -1.0123
   9623SM  C18F13050   2.307   2.661  14.887 -0.0152 -0.1424  0.2533
   9623SM  H18F13051   2.210   2.712  14.868  1.0255  0.7808 -3.2637
   9623SM  H18G13052   2.379   2.743  14.907  2.3851 -2.1822  0.3969
   9623SM  C19F13053   2.284   2.569  15.006  0.6469 -0.5557 -0.1810
   9623SM  H19F13054   2.209   2.491  14.979  0.9012 -1.0412  0.4765
   9623SM  H19G13055   2.227   2.621  15.086 -0.0352  0.2661 -1.1852
   9623SM  C20F13056   2.410   2.500  15.068 -0.1953 -0.3208 -0.6065
   9623SM  H20F13057   2.475   2.453  14.992 -0.2514 -1.4456  0.0128
   9623SM  H20G13058   2.367   2.418  15.131  0.6500  0.7067  1.4055
   9623SM  C21F13059   2.493   2.598  15.141  0.1042 -0.4421  0.0325
   9623SM  H21F13060   2.426   2.656  15.208 -1.0637 -1.7355  0.0201
   9623SM  H21G13061   2.545   2.663  15.066  0.7945 -2.1283 -1.0206
   9623SM  C22F13062   2.607   2.543  15.237 -0.1014  0.1086  0.8091
   9623SM  H22F13063   2.656   2.628  15.289 -0.1391  1.0641 -0.6522
   9623SM  H22G13064   2.682   2.493  15.172  0.4800  0.7158  1.0030
   9623SM  C23F13065   2.555   2.445  15.339  0.7115  0.9791  0.2080
   9623SM  H23F13066   2.468   2.481  15.399 -1.1439 -2.6117 -0.0606
   9623SM  H23G13067   2.641   2.414  15.402  0.8430  1.5799  0.3267
   9623SM  H23H13068   2.515   2.353  15.292 -1.3365  2.4262 -1.0256
   9723SM     N13069   4.049   1.190  12.056  0.4598  0.2971 -0.6007
   9723SM   C1513070   4.148   1.134  11.962  0.5955 -0.7381  0.2493
   9723SM  H15A13071   4.092   1.074  11.893  0.5596 -1.7323  1.1154
   9723SM  H15B13072   4.213   1.064  12.012  0.6046 -0.9514 -0.0630
   9723SM  H15C13073   4.205   1.206  11.905 -0.1545 -1.6983 -1.8009
   9723SM   C1413074   3.956   1.272  11.984  0.3455  0.6161 -0.5548
   9723SM  H14A13075   3.874   1.298  12.049 -0.2664 -0.8761 -0.6905
   9723SM  H14B13076   3.920   1.228  11.892  2.3614 -2.0528 -0.1910
   9723SM  H14C13077   3.993   1.368  11.951 -0.0848  1.4557  1.3134
   9723SM   C1313078   3.963   1.080  12.110  0.0102  0.6570 -0.1160
   9723SM  H13A13079   4.025   1.021  12.176 -0.3365  1.1319  0.6542
   9723SM  H13B13080   3.920   1.013  12.037 -0.9032 -0.1175  1.0937
   9723SM  H13C13081   3.877   1.111  12.167 -0.7242  0.9679 -1.3554
   9723SM   C1213082   4.117   1.252  12.178 -0.1306 -0.5795  0.5821
   9723SM  H12A13083   4.046   1.300  12.244 -1.6120 -2.4867  0.4389
   9723SM  H12B13084   4.171   1.338  12.140 -1.6104  0.0152 -0.2458
   9723SM   C1113085   4.221   1.168  12.257 -0.2298  0.5750 -0.6779
   9723SM  H11A13086   4.240   1.207  12.360 -2.0605 -1.2912  0.4456
   9723SM  H11B13087   4.315   1.168  12.198  0.8315 -0.4914  0.9239
   9723SM     P13088   4.295   0.929  12.298 -0.0246  0.5097  0.0386
   9723SM   O1313089   4.237   0.794  12.306 -0.1019  0.0951 -0.2229
   9723SM   O1413090   4.400   0.939  12.194  0.0738  0.0071 -0.3646
   9723SM   O1113091   4.357   0.965  12.439 -0.0090 -0.0155 -0.6371
   9723SM   O1213092   4.180   1.032  12.286  0.5786 -0.4081 -0.5117
   9723SM   C1S13093   4.285   0.924  12.559 -0.2026 -0.1064  0.3016
   9723SM   H1S13094   4.291   0.815  12.575  0.0496  0.0930  1.6995
   9723SM   H1T13095   4.178   0.953  12.551 -0.6990 -2.0489 -0.6022
   9723SM    NF13096   4.267   0.940  12.807  0.4181  0.2873 -0.3025
   9723SM   HNF13097   4.213   1.013  12.848  0.7803  2.0037 -2.7144
   9723SM   C2S13098   4.347   0.981  12.695 -0.1243  0.5215  0.5208
   9723SM   H2S13099   4.449   0.942  12.715 -0.5627 -0.9799  0.0223
   9723SM   C3S13100   4.360   1.133  12.679  0.6100  0.1560 -0.1464
   9723SM   H3S13101   4.257   1.167  12.657  0.9406  0.3331 -1.4712
   9723SM    O313102   4.421   1.197  12.569  0.1062 -0.2647 -0.3806
   9723SM   HO313103   4.437   1.118  12.516 -1.7023 -1.2996  0.5238
   9723SM   C4S13104   4.410   1.197  12.809  0.4727  0.3827  0.8783
   9723SM   H4S13105   4.326   1.207  12.879  0.3077  0.7493  0.6322
   9723SM   C5S13106   4.525   1.260  12.847  0.0827 -0.7717  0.3178
   9723SM   H5S13107   4.609   1.282  12.781  1.3038  0.6160  2.2341
   9723SM   C6S13108   4.537   1.310  12.987 -0.2301 -0.0984 -0.2006
   9723SM   H6S13109   4.517   1.419  12.989 -0.1391 -0.0794 -0.2921
   9723SM   H6T13110   4.644   1.291  13.010 -0.4107 -0.3460  0.4357
   9723SM   C7S13111   4.457   1.237  13.100 -0.2495  0.0779 -0.7749
   9723SM   H7S13112   4.494   1.133  13.089 -1.0013 -0.3344  0.4019
   9723SM   H7T13113   4.348   1.251  13.088 -1.0308 -1.0356  3.4359
   9723SM   C8S13114   4.501   1.282  13.241  0.2567  0.2934  0.5226
   9723SM   H8S13115   4.464   1.386  13.256 -1.3397 -0.4120  1.8032
   9723SM   H8T13116   4.612   1.289  13.239  0.2203  0.7739 -0.6413
   9723SM   C9S13117   4.456   1.179  13.348 -0.0782 -0.2602  0.3652
   9723SM   H9S13118   4.512   1.084  13.336 -1.0689 -0.9641  1.1614
   9723SM   H9T13119   4.350   1.148  13.337 -0.0335  0.1583 -1.7946
   9723SM  C10S13120   4.484   1.249  13.480  0.1555  0.0726  0.1520
   9723SM  H10S13121   4.415   1.333  13.503  0.8557  0.8671 -0.5659
   9723SM  H10T13122   4.581   1.302  13.493 -1.1608  1.8904  4.3877
   9723SM  C11S13123   4.477   1.148  13.594  0.0231 -0.1342 -0.2569
   9723SM  H11S13124   4.567   1.086  13.576 -0.7406 -1.9970  1.8862
   9723SM  H11T13125   4.381   1.092  13.602 -0.4243  0.8212  1.8187
   9723SM  C12S13126   4.496   1.214  13.734  0.1851  0.0430  0.2266
   9723SM  H12S13127   4.407   1.279  13.745 -1.1300 -1.4307 -1.3477
   9723SM  H12T13128   4.579   1.287  13.717 -0.1004  0.1855 -0.5464
   9723SM  C13S13129   4.540   1.119  13.843 -0.5590 -0.0723 -0.3773
   9723SM  H13S13130   4.647   1.103  13.818 -0.2143  1.9450 -0.3956
   9723SM  H13T13131   4.477   1.027  13.838  1.5662 -1.5782 -0.8884
   9723SM  C14S13132   4.529   1.181  13.984  0.6260  0.0622  0.0358
   9723SM  H14S13133   4.424   1.158  14.010  0.2483 -0.9308 -2.1589
   9723SM  H14T13134   4.547   1.291  13.988 -1.0380  0.4594 -2.1349
   9723SM  C15S13135   4.635   1.112  14.078 -0.1021 -0.1152 -0.2705
   9723SM  H15S13136   4.734   1.158  14.058  0.0846 -0.9444 -1.3809
   9723SM  H15T13137   4.631   1.002  14.062 -1.3791  0.1418 -2.1247
   9723SM  C16S13138   4.589   1.126  14.228 -0.2088 -0.1548  0.1415
   9723SM  H16S13139   4.564   1.231  14.257 -0.5839  0.3148 -1.7129
   9723SM  H16T13140   4.681   1.101  14.284 -0.2921 -2.5334 -0.6910
   9723SM  C17S13141   4.480   1.031  14.264 -0.0801 -0.1772  0.2627
   9723SM  H17S13142   4.498   0.926  14.235 -0.7376 -0.6022  1.3428
   9723SM  H17T13143   4.395   1.050  14.194  0.2422  2.9876  0.5737
   9723SM  C18S13144   4.447   1.042  14.414 -0.0662 -0.3831 -0.4504
   9723SM  H18S13145   4.353   0.987  14.435 -0.3845 -0.1880 -1.3304
   9723SM  H18T13146   4.416   1.145  14.440  0.2007 -0.4666  0.2158
   9723SM  H18U13147   4.523   0.989  14.475 -1.3899 -1.9617 -0.0879
   9723SM   C1F13148   4.245   0.813  12.843  0.1841  0.3234  0.1982
   9723SM    OF13149   4.306   0.721  12.784  0.0724  0.8890 -0.5006
   9723SM   C2F13150   4.134   0.787  12.944 -0.0091 -0.2787  0.0020
   9723SM   H2F13151   4.058   0.719  12.900  0.7891 -1.1056 -0.1216
   9723SM   H2G13152   4.069   0.875  12.966 -2.0933 -1.7877  0.1717
   9723SM   C3F13153   4.173   0.736  13.081  0.3208 -0.3951  0.1509
   9723SM   H3F13154   4.229   0.641  13.066  0.6460  0.0121 -1.3350
   9723SM   H3G13155   4.079   0.711  13.134 -0.0696  3.4120  1.5769
   9723SM   C4F13156   4.256   0.838  13.160 -0.7533 -0.5334  0.2520
   9723SM   H4F13157   4.198   0.932  13.174  2.2403  1.5689 -0.4617
   9723SM   H4G13158   4.349   0.863  13.105  1.1519 -2.5072  2.3608
   9723SM   C5F13159   4.302   0.795  13.300  0.0491 -0.5634 -0.3376
   9723SM   H5F13160   4.384   0.857  13.342  0.1186  0.2370 -1.5750
   9723SM   H5G13161   4.351   0.696  13.291 -0.7229 -1.0366  0.4915
   9723SM   C6F13162   4.192   0.776  13.400  0.2532  0.1475  0.5669
   9723SM   H6F13163   4.105   0.725  13.353  0.4454  2.1300 -2.1632
   9723SM   H6G13164   4.151   0.871  13.439 -0.8631 -0.5683  1.1740
   9723SM   C7F13165   4.227   0.675  13.513  0.4020  0.0957  0.4406
   9723SM   H7F13166   4.308   0.708  13.582  0.4284 -1.1085  1.0069
   9723SM   H7G13167   4.271   0.583  13.470 -0.0348 -0.2313  0.6751
   9723SM   C8F13168   4.118   0.654  13.610  0.4556  0.6406  0.0785
   9723SM   H8F13169   4.126   0.550  13.649 -0.7786  0.5678  0.1920
   9723SM   H8G13170   4.023   0.661  13.553  1.0165 -0.5115 -1.0568
   9723SM   C9F13171   4.116   0.754  13.726 -0.1549  0.5808  0.5028
   9723SM   H9F13172   4.218   0.758  13.769  1.5248  2.3249 -3.1439
   9723SM   H9G13173   4.038   0.725  13.799 -2.0552  1.3058 -1.1562
   9723SM  C10F13174   4.079   0.903  13.699  0.0293 -0.7039  0.1381
   9723SM  H10F13175   3.970   0.911  13.682 -0.5057 -0.7156  3.0853
   9723SM  H10G13176   4.136   0.939  13.611 -1.5189 -2.0540 -1.4798
   9723SM  C11F13177   4.137   0.979  13.820  1.0639  0.4036 -0.2464
   9723SM  H11F13178   4.130   1.090  13.812 -1.1073  0.4551  1.4769
   9723SM  H11G13179   4.246   0.957  13.828  0.8479 -0.0739  1.9692
   9723SM  C12F13180   4.088   0.937  13.959  0.4000  0.1816 -0.1556
   9723SM  H12F13181   4.139   0.845  13.994  0.7513  0.9771  1.4800
   9723SM  H12G13182   3.979   0.915  13.944  0.0057  0.9699  1.4109
   9723SM  C13F13183   4.115   1.049  14.057  0.2576  0.0760 -0.1751
   9723SM  H13F13184   4.040   1.128  14.035 -2.8329 -1.6539  3.0684
   9723SM  H13G13185   4.210   1.103  14.037 -0.3596  1.8361  1.3734
   9723SM  C14F13186   4.103   1.007  14.204  0.7706  1.1724 -0.1585
   9723SM  H14F13187   4.181   0.931  14.224 -0.6816 -0.9886 -2.1086
   9723SM  H14G13188   4.006   0.955  14.221 -0.1353  2.9361  0.3410
   9723SM  C15F13189   4.100   1.118  14.310 -0.3704 -0.5744 -0.1828
   9723SM  H15F13190   4.021   1.193  14.288  0.7763  1.0827  1.1206
   9723SM  H15G13191   4.204   1.156  14.310 -0.3415 -0.6533  0.0524
   9723SM  C16F13192   4.072   1.081  14.458 -0.5388  0.2691 -0.1807
   9723SM  H16F13193   4.059   1.178  14.510 -2.7695 -1.3218  2.5531
   9723SM  H16G13194   4.151   1.026  14.514 -0.5700  0.2487 -0.1559
   9723SM  C17F13195   3.943   1.000  14.480 -0.3250 -0.4656 -0.4041
   9723SM  H17F13196   3.957   0.891  14.466  1.2438 -0.7321  2.6228
   9723SM  H17G13197   3.875   1.043  14.403 -0.3318  0.1017 -0.0841
   9723SM  C18F13198   3.894   1.014  14.628 -0.6001  0.1895  0.3470
   9723SM  H18F13199   3.894   1.124  14.642  2.3162  0.4763 -1.2178
   9723SM  H18G13200   3.971   0.970  14.694  0.5288  2.9507  1.0146
   9723SM  C19F13201   3.754   0.959  14.649  0.2182 -0.2528 -0.3954
   9723SM  H19F13202   3.690   1.022  14.584  0.8909 -1.0077 -1.8437
   9723SM  H19G13203   3.720   0.972  14.754 -0.8680  0.4881 -0.8235
   9723SM  C20F13204   3.724   0.811  14.614 -0.3918  0.3770 -0.4460
   9723SM  H20F13205   3.741   0.795  14.506 -0.5924  0.3497 -0.4721
   9723SM  H20G13206   3.619   0.780  14.630 -0.7675  0.1569 -2.9609
   9723SM  C21F13207   3.822   0.716  14.684  0.1355 -0.4075 -0.1097
   9723SM  H21F13208   3.789   0.728  14.790 -0.3424  1.2026 -0.4195
   9723SM  H21G13209   3.928   0.741  14.666 -0.4721  2.9623  0.3794
   9723SM  C22F13210   3.782   0.577  14.638 -0.5115  0.0446  0.0080
   9723SM  H22F13211   3.788   0.550  14.530  0.3197 -0.1394  0.0922
   9723SM  H22G13212   3.675   0.566  14.668  0.4831 -0.8874  3.7032
   9723SM  C23F13213   3.863   0.467  14.713  0.0283 -0.5023  0.1205
   9723SM  H23F13214   3.795   0.379  14.709 -3.1944  1.8142  0.6663
   9723SM  H23G13215   3.863   0.487  14.822  2.1680 -1.0644  0.2898
   9723SM  H23H13216   3.970   0.451  14.683  0.6385  1.9832  0.8047
   9823SM     N13217   0.242   6.609  11.853  0.2502 -0.3202 -0.0406
   9823SM   C1513218   0.342   6.509  11.802  0.1957  0.5089  0.0989
   9823SM  H15A13219   0.280   6.421  11.793 -1.9212  1.7612  1.6724
   9823SM  H15B13220   0.412   6.484  11.881 -0.1954  0.3934  0.4084
   9823SM  H15C13221   0.396   6.548  11.716  0.1991  1.5548  0.5679
   9823SM   C1413222   0.311   6.750  11.878  0.3999  0.5858  0.0723
   9823SM  H14A13223   0.356   6.783  11.786 -0.3302  0.0710 -0.4867
   9823SM  H14B13224   0.383   6.745  11.958 -2.1103  0.3791  2.4716
   9823SM  H14C13225   0.233   6.822  11.895 -0.1092  0.0587  0.0096
   9823SM   C1313226   0.135   6.633  11.755 -0.4404  0.0788 -0.3823
   9823SM  H13A13227   0.172   6.708  11.687 -0.0410  1.3966  1.2362
   9823SM  H13B13228   0.048   6.677  11.800 -1.0096  0.1815 -1.5383
   9823SM  H13C13229   0.102   6.546  11.700  0.5338  0.2757 -1.3267
   9823SM   C1213230   0.182   6.559  11.982 -0.1877 -0.4024  0.0677
   9823SM  H12A13231   0.263   6.518  12.041 -0.6366  0.0800  1.0375
   9823SM  H12B13232   0.117   6.478  11.953  1.3422 -0.6312 -3.1885
   9823SM   C1113233   0.094   6.659  12.065 -0.1256  0.1490 -0.4739
   9823SM  H11A13234   0.165   6.741  12.088 -0.0742  0.0397 -0.2384
   9823SM  H11B13235   0.056   6.620  12.162 -2.3967  0.0358 -1.3412
   9823SM     P13236  -0.127   6.789  12.036 -0.0435 -0.1951 -0.3770
   9823SM   O1313237  -0.114   6.926  11.986 -0.7663 -0.0041 -0.5530
   9823SM   O1413238  -0.257   6.723  12.013 -0.4117 -0.0265 -0.0575
   9823SM   O1113239  -0.099   6.794  12.194  0.8018 -0.0588  0.1797
   9823SM   O1213240  -0.018   6.698  11.991 -1.2612  0.0367  0.0764
   9823SM   C1S13241  -0.205   6.767  12.288  0.5386 -0.4539  0.5655
   9823SM   H1S13242  -0.225   6.658  12.290  0.5149 -0.4483  0.6045
   9823SM   H1T13243  -0.296   6.825  12.261 -0.9766 -3.7439 -2.0691
   9823SM    NF13244  -0.268   6.777  12.522 -0.5495 -0.2211  0.2425
   9823SM   HNF13245  -0.335   6.852  12.524 -2.5287 -1.9011  0.2021
   9823SM   C2S13246  -0.150   6.792  12.436  0.1130 -0.0067  0.1985
   9823SM   H2S13247  -0.076   6.710  12.454  0.5419  0.5205  0.8777
   9823SM   C3S13248  -0.072   6.923  12.438 -0.1877  0.4215 -0.4233
   9823SM   H3S13249  -0.143   7.000  12.400 -0.2786 -0.5774 -2.3857
   9823SM    O313250   0.047   6.922  12.352 -0.5216 -0.2200  0.4159
   9823SM   HO313251   0.015   6.864  12.283  0.6760 -2.6582  1.7963
   9823SM   C4S13252  -0.021   6.943  12.581  0.1987 -0.3800 -0.1191
   9823SM   H4S13253  -0.095   7.009  12.629 -0.5342 -0.3731 -1.2364
   9823SM   C5S13254   0.093   6.917  12.645  0.0371  0.1968  0.0745
   9823SM   H5S13255   0.178   6.873  12.591 -1.2451 -0.3424 -1.6181
   9823SM   C6S13256   0.121   6.968  12.784 -0.1216 -0.1928 -0.2302
   9823SM   H6S13257   0.036   7.031  12.818 -0.0750 -1.1160  1.7559
   9823SM   H6T13258   0.208   7.037  12.783 -0.3189  0.2967  3.4764
   9823SM   C7S13259   0.148   6.867  12.898  0.5643 -0.1414  0.2817
   9823SM   H7S13260   0.235   6.798  12.887  1.2027  0.6358  0.3004
   9823SM   H7T13261   0.059   6.801  12.907  0.1792  0.1668 -1.1209
   9823SM   C8S13262   0.155   6.934  13.036 -0.5002 -0.2155  0.3962
   9823SM   H8S13263   0.068   7.002  13.043 -0.2123  0.0049  3.3521
   9823SM   H8T13264   0.255   6.978  13.056  0.7437 -2.2483 -0.9578
   9823SM   C9S13265   0.120   6.832  13.146 -0.8287 -0.1748 -0.5691
   9823SM   H9S13266   0.181   6.743  13.121 -1.3844 -0.3305 -1.3870
   9823SM   H9T13267   0.014   6.800  13.148 -1.0679  0.5094 -1.8557
   9823SM  C10S13268   0.154   6.875  13.287 -0.3695 -0.0278  0.4904
   9823SM  H10S13269   0.105   6.971  13.313  0.7813  0.7013  0.0468
   9823SM  H10T13270   0.263   6.893  13.297 -0.1678 -0.5381 -0.6898
   9823SM  C11S13271   0.117   6.775  13.395 -1.0449 -0.1679  0.1502
   9823SM  H11S13272   0.152   6.670  13.382 -0.1951 -0.1489  1.9081
   9823SM  H11T13273   0.006   6.780  13.399 -1.0756 -0.4753 -0.2399
   9823SM  C12S13274   0.176   6.804  13.529  0.4704 -0.0757  0.3603
   9823SM  H12S13275   0.282   6.789  13.500  0.0031 -0.5299 -1.1907
   9823SM  H12T13276   0.136   6.729  13.600  1.0515 -0.1832  0.5794
   9823SM  C13S13277   0.147   6.949  13.587  0.1579  0.0525 -0.3989
   9823SM  H13S13278   0.204   7.025  13.529  2.8607 -0.2402  1.6847
   9823SM  H13T13279   0.192   6.959  13.688 -0.9744  0.0199  0.1237
   9823SM  C14S13280   0.003   6.977  13.602 -0.4896  0.4205 -0.0565
   9823SM  H14S13281  -0.044   6.902  13.669 -1.4160  1.0010 -0.0294
   9823SM  H14T13282  -0.045   6.968  13.501 -0.9298  0.2795  0.1618
   9823SM  C15S13283  -0.031   7.116  13.667 -0.5442  0.2777  0.4613
   9823SM  H15S13284   0.014   7.128  13.768  0.8385 -0.0517 -0.0907
   9823SM  H15T13285  -0.142   7.122  13.665 -0.5794 -0.5105 -1.1776
   9823SM  C16S13286   0.013   7.228  13.569 -0.1818 -0.0086 -0.0468
   9823SM  H16S13287  -0.024   7.208  13.466 -1.2758  0.7124  0.1948
   9823SM  H16T13288   0.124   7.227  13.563  0.0245 -3.3113  1.5221
   9823SM  C17S13289  -0.034   7.370  13.610  0.3021 -0.4699  0.2680
   9823SM  H17S13290   0.001   7.406  13.709  1.8146 -0.4181 -0.2657
   9823SM  H17T13291  -0.143   7.357  13.589 -0.2607  2.8946  0.5547
   9823SM  C18S13292   0.010   7.489  13.516  0.5048 -0.0903 -0.7156
   9823SM  H18S13293   0.044   7.451  13.417  1.1683 -1.8938  0.1494
   9823SM  H18T13294   0.103   7.532  13.560  1.5487 -3.4262  0.6602
   9823SM  H18U13295  -0.076   7.559  13.511 -0.2513 -0.9461 -0.0992
   9823SM   C1F13296  -0.312   6.659  12.556 -0.3405 -0.2949 -0.6233
   9823SM    OF13297  -0.235   6.560  12.538 -0.2396  0.0753 -0.8443
   9823SM   C2F13298  -0.442   6.653  12.632 -0.4667 -0.4660  0.3125
   9823SM   H2F13299  -0.513   6.683  12.552  0.3975  0.1917 -0.2231
   9823SM   H2G13300  -0.430   6.737  12.704 -2.9310  1.1928 -1.0807
   9823SM   C3F13301  -0.472   6.508  12.682  0.2223  0.7935 -0.2956
   9823SM   H3F13302  -0.392   6.467  12.748 -1.2936  0.9767  1.7637
   9823SM   H3G13303  -0.480   6.439  12.596 -0.9659 -1.1495  1.2624
   9823SM   C4F13304  -0.608   6.504  12.763 -0.8004  0.5044 -0.3035
   9823SM   H4F13305  -0.656   6.408  12.791 -3.4019  1.3085 -1.7065
   9823SM   H4G13306  -0.699   6.542  12.712 -0.0412  0.5860 -1.6286
   9823SM   C5F13307  -0.608   6.583  12.906 -0.3169 -0.6634  0.4026
   9823SM   H5F13308  -0.649   6.685  12.890 -0.3045 -0.4133  1.8550
   9823SM   H5G13309  -0.503   6.595  12.940 -0.1659  2.1035 -0.7462
   9823SM   C6F13310  -0.683   6.525  13.021  0.2648  0.1111 -0.6844
   9823SM   H6F13311  -0.634   6.425  13.030  1.3131  0.5205 -1.5799
   9823SM   H6G13312  -0.791   6.507  13.002 -0.3607  0.0143  2.3759
   9823SM   C7F13313  -0.670   6.608  13.147  0.6229  0.2531  0.4661
   9823SM   H7F13314  -0.707   6.712  13.135 -2.1216 -0.5292  1.4740
   9823SM   H7G13315  -0.563   6.613  13.178  0.6455 -1.3938  0.7241
   9823SM   C8F13316  -0.747   6.552  13.270  0.3742  0.4281  0.0374
   9823SM   H8F13317  -0.721   6.443  13.272  2.0141  0.7935  1.6584
   9823SM   H8G13318  -0.855   6.571  13.257  0.1860  0.9174  2.0525
   9823SM   C9F13319  -0.717   6.619  13.401  0.0375  0.1074 -0.7720
   9823SM   H9F13320  -0.769   6.718  13.398  1.9154  1.1740  0.0012
   9823SM   H9G13321  -0.609   6.643  13.415 -0.5418  0.9792  3.2694
   9823SM  C10F13322  -0.774   6.532  13.521  0.2125 -0.0435  0.6746
   9823SM  H10F13323  -0.724   6.433  13.519  1.1259  0.4056 -0.4067
   9823SM  H10G13324  -0.882   6.514  13.503  0.4385 -0.1979 -0.6783
   9823SM  C11F13325  -0.751   6.607  13.650 -0.3982 -0.2144 -0.5276
   9823SM  H11F13326  -0.825   6.690  13.656  0.4316  0.5125 -0.0995
   9823SM  H11G13327  -0.657   6.664  13.666 -1.6966  2.7417 -2.3788
   9823SM  C12F13328  -0.786   6.523  13.775 -0.6940  0.2479  0.5915
   9823SM  H12F13329  -0.719   6.434  13.774  0.8161  1.2637 -2.8470
   9823SM  H12G13330  -0.891   6.489  13.775 -0.0872 -1.8385  2.0355
   9823SM  C13F13331  -0.766   6.606  13.902  0.3309 -0.7807  0.1111
   9823SM  H13F13332  -0.834   6.693  13.893 -0.4604 -1.4036 -0.0271
   9823SM  H13G13333  -0.660   6.640  13.900  0.0396  0.1088 -0.6443
   9823SM  C14F13334  -0.805   6.533  14.029  0.2072  0.2157  0.2421
   9823SM  H14F13335  -0.724   6.460  14.050  0.2079  0.2011  0.1901
   9823SM  H14G13336  -0.903   6.481  14.018 -1.3010  2.8377  0.4807
   9823SM  C15F13337  -0.841   6.627  14.145  0.5236 -0.6954 -0.5624
   9823SM  H15F13338  -0.927   6.693  14.122 -0.5452 -2.2678 -1.2083
   9823SM  H15G13339  -0.762   6.704  14.161  1.0379 -1.4032  0.4160
   9823SM  C16F13340  -0.867   6.555  14.280  0.1219  0.1251 -0.4972
   9823SM  H16F13341  -0.774   6.497  14.297  0.1263 -0.5186 -2.4138
   9823SM  H16G13342  -0.949   6.482  14.270  0.2452 -0.0823  0.0067
   9823SM  C17F13343  -0.895   6.641  14.400  0.5595 -0.3080  0.0293
   9823SM  H17F13344  -0.934   6.579  14.483  0.8727 -0.2832  0.1968
   9823SM  H17G13345  -0.986   6.702  14.380 -1.2843 -1.9789  2.6672
   9823SM  C18F13346  -0.779   6.731  14.452  0.0723  0.4547  0.7867
   9823SM  H18F13347  -0.762   6.806  14.371  0.9451 -0.6866 -0.1368
   9823SM  H18G13348  -0.684   6.676  14.469  0.1780  1.0572  2.2904
   9823SM  C19F13349  -0.802   6.800  14.583 -0.6231  0.2220 -0.5355
   9823SM  H19F13350  -0.855   6.896  14.563 -0.4227  0.3723 -0.3625
   9823SM  H19G13351  -0.704   6.835  14.621  0.1199 -0.8043 -1.4606
   9823SM  C20F13352  -0.871   6.722  14.699 -0.1111  0.1266  1.0997
   9823SM  H20F13353  -0.793   6.647  14.727 -1.1429 -1.2877  0.3254
   9823SM  H20G13354  -0.961   6.669  14.662  1.4460 -0.9003 -1.4782
   9823SM  C21F13355  -0.903   6.814  14.818 -0.2801  0.4020 -0.2761
   9823SM  H21F13356  -0.951   6.904  14.774  3.6580  2.7404 -0.2629
   9823SM  H21G13357  -0.808   6.844  14.866 -1.4663  0.8243  1.9191
   9823SM  C22F13358  -0.985   6.741  14.923  0.0869 -0.7385 -0.4887
   9823SM  H22F13359  -0.919   6.659  14.957  0.7184 -0.7593 -1.7065
   9823SM  H22G13360  -1.081   6.703  14.883 -0.5350  0.4180 -0.1476
   9823SM  C23F13361  -1.021   6.836  15.043  0.6066 -0.0807 -0.4052
   9823SM  H23F13362  -1.070   6.784  15.128  0.5953 -2.0588 -1.5879
   9823SM  H23G13363  -1.079   6.926  15.013 -0.7190 -1.5613 -2.5269
   9823SM  H23H13364  -0.925   6.875  15.084  1.1139 -0.0713 -1.5684
   9923SM     N13365   0.469   0.539  12.568 -0.6047  0.3447  0.3066
   9923SM   C1513366   0.503   0.411  12.491  0.5439 -0.0177  0.6817
   9923SM  H15A13367   0.414   0.385  12.435  0.0886  0.7702  1.0126
   9923SM  H15B13368   0.523   0.331  12.560 -1.2297  0.8928  2.3524
   9923SM  H15C13369   0.583   0.431  12.422 -0.5121 -1.0799 -0.9149
   9923SM   C1413370   0.432   0.644  12.469 -0.1235 -0.9422  1.0206
   9923SM  H14A13371   0.410   0.737  12.520 -0.7059  0.1844 -1.1615
   9923SM  H14B13372   0.356   0.610  12.401  0.8540  0.0933 -0.6440
   9923SM  H14C13373   0.519   0.670  12.411 -0.4909  1.0442  1.2918
   9923SM   C1313374   0.345   0.498  12.653  0.6452 -0.5731 -0.3230
   9923SM  H13A13375   0.383   0.414  12.709  0.1742 -0.9051 -0.4978
   9923SM  H13B13376   0.268   0.474  12.581  0.1631  0.5768 -0.2198
   9923SM  H13C13377   0.311   0.578  12.719  0.7048  0.8333 -1.9307
   9923SM   C1213378   0.590   0.564  12.654 -0.6079 -0.2647 -0.2459
   9923SM  H12A13379   0.672   0.578  12.586 -0.8170 -1.1243 -0.6897
   9923SM  H12B13380   0.612   0.470  12.703 -1.3437 -1.1036 -1.4762
   9923SM   C1113381   0.572   0.680  12.751  0.0130 -0.8894 -0.7105
   9923SM  H11A13382   0.653   0.687  12.827 -2.7080  0.1927  2.3289
   9923SM  H11B13383   0.481   0.663  12.813  0.0179  0.3456 -0.3455
   9923SM     P13384   0.693   0.872  12.615  0.3338 -0.1538  0.3629
   9923SM   O1313385   0.796   0.773  12.571  0.1609 -0.2396  0.2646
   9923SM   O1413386   0.655   0.969  12.509 -0.0008  0.2581 -0.0434
   9923SM   O1113387   0.722   0.951  12.752 -0.0213 -0.7392 -0.6673
   9923SM   O1213388   0.563   0.801  12.668  0.2191 -0.9198  0.2475
   9923SM   C1S13389   0.632   1.056  12.800 -0.2614  0.2752 -0.4209
   9923SM   H1S13390   0.534   1.043  12.751 -0.6784 -0.4332  0.5508
   9923SM   H1T13391   0.671   1.159  12.788  0.4009 -0.1234 -1.9664
   9923SM    NF13392   0.491   1.136  13.001 -0.3212  0.5797 -0.4124
   9923SM   HNF13393   0.511   1.198  13.076  0.0040 -0.2280  0.1841
   9923SM   C2S13394   0.601   1.041  12.955  0.0722 -0.1614  0.6182
   9923SM   H2S13395   0.567   0.935  12.962 -1.3250  0.2074 -0.1502
   9923SM   C3S13396   0.731   1.051  13.037 -0.3814 -0.1769 -0.8978
   9923SM   H3S13397   0.773   1.154  13.036 -0.5874 -0.0578  0.6207
   9923SM    O313398   0.844   0.974  12.986 -0.3002 -0.3981  0.1738
   9923SM   HO313399   0.817   0.954  12.896  1.6136  0.5419 -0.6601
   9923SM   C4S13400   0.705   1.008  13.174  0.3668 -0.7144 -0.0952
   9923SM   H4S13401   0.666   1.090  13.236 -1.7548 -1.3013 -0.5746
   9923SM   C5S13402   0.712   0.885  13.230  0.2349  0.4842  0.1220
   9923SM   H5S13403   0.736   0.793  13.175  2.7655 -0.1712  2.1318
   9923SM   C6S13404   0.676   0.870  13.380 -0.0303 -0.4528 -0.7929
   9923SM   H6S13405   0.639   0.766  13.391 -2.9742  0.7134  1.6281
   9923SM   H6T13406   0.582   0.929  13.393  0.7037  1.3237 -2.8357
   9923SM   C7S13407   0.786   0.903  13.476  0.3302 -0.1148 -0.1120
   9923SM   H7S13408   0.837   0.990  13.430 -1.9557  0.9543 -0.7492
   9923SM   H7T13409   0.863   0.823  13.484 -0.9723 -1.2829  1.5587
   9923SM   C8S13410   0.729   0.934  13.618  0.2601  0.3786 -0.9338
   9923SM   H8S13411   0.661   0.849  13.640  1.6435 -1.0325 -1.9036
   9923SM   H8T13412   0.664   1.023  13.601  1.9692  1.9193  0.1414
   9923SM   C9S13413   0.835   0.977  13.725  0.5822  0.6338 -0.0781
   9923SM   H9S13414   0.902   1.042  13.665 -0.3744  1.7218  0.0055
   9923SM   H9T13415   0.884   0.878  13.739 -1.5030 -0.6228 -1.1859
   9923SM  C10S13416   0.787   1.018  13.866 -0.5595 -0.1068  0.4639
   9923SM  H10S13417   0.732   1.114  13.867 -0.5926 -0.0310 -2.0942
   9923SM  H10T13418   0.881   1.039  13.922 -0.9435  3.8970 -0.1590
   9923SM  C11S13419   0.708   0.911  13.944  0.5376 -0.1591 -0.5659
   9923SM  H11S13420   0.763   0.814  13.944 -0.5143 -0.7646 -0.0456
   9923SM  H11T13421   0.608   0.897  13.899  0.0567  0.8895  0.1324
   9923SM  C12S13422   0.690   0.945  14.090 -0.4728 -0.5093 -0.2159
   9923SM  H12S13423   0.597   1.002  14.113  0.3937 -0.2254  3.0917
   9923SM  H12T13424   0.777   1.002  14.130 -1.5609  1.0820  0.0159
   9923SM  C13S13425   0.682   0.834  14.192 -0.2051  0.6013 -0.0060
   9923SM  H13S13426   0.768   0.764  14.187 -0.1895  0.5108  1.2836
   9923SM  H13T13427   0.594   0.770  14.174 -0.2572  0.5235  0.5039
   9923SM  C14S13428   0.680   0.888  14.335  0.1923  0.2954 -0.5360
   9923SM  H14S13429   0.576   0.921  14.354 -0.4201 -1.1449 -1.2350
   9923SM  H14T13430   0.759   0.966  14.346  0.2295 -0.0387  2.7227
   9923SM  C15S13431   0.700   0.784  14.448  0.3771 -0.5735 -0.5990
   9923SM  H15S13432   0.791   0.726  14.421  1.8028  0.0388  2.4146
   9923SM  H15T13433   0.620   0.707  14.439  1.0810 -1.2120 -1.7132
   9923SM  C16S13434   0.692   0.848  14.590  0.3025 -0.5717  0.4331
   9923SM  H16S13435   0.611   0.924  14.599  0.3610 -0.2567 -1.3100
   9923SM  H16T13436   0.786   0.906  14.583 -0.0759 -0.0035 -0.1229
   9923SM  C17S13437   0.688   0.751  14.709 -0.0151  0.1882  0.4114
   9923SM  H17S13438   0.791   0.707  14.709  0.3309  0.8972  2.5920
   9923SM  H17T13439   0.607   0.679  14.686 -0.8460  1.4728 -0.8096
   9923SM  C18S13440   0.651   0.812  14.845  0.5102  0.3223  0.4995
   9923SM  H18S13441   0.550   0.857  14.840  0.4101  0.0217 -0.3347
   9923SM  H18T13442   0.718   0.900  14.850 -3.2670  3.4656  0.8486
   9923SM  H18U13443   0.676   0.750  14.934  1.3581  0.4427  0.3525
   9923SM   C1F13444   0.361   1.138  12.955 -0.9013  0.0735  0.0300
   9923SM    OF13445   0.329   1.056  12.868  0.5631  0.2299  0.5238
   9923SM   C2F13446   0.264   1.232  13.019 -0.5667 -0.5978  0.1707
   9923SM   H2F13447   0.226   1.310  12.950  1.3032 -0.5196 -0.8305
   9923SM   H2G13448   0.311   1.292  13.099  0.4154 -0.8057 -0.2405
   9923SM   C3F13449   0.139   1.163  13.071  0.6355  0.1143 -0.7458
   9923SM   H3F13450   0.088   1.108  12.989  0.6506  0.5803 -1.0740
   9923SM   H3G13451   0.077   1.241  13.119  1.4621 -1.0269  2.4307
   9923SM   C4F13452   0.168   1.067  13.187  0.1590  0.7640  0.1647
   9923SM   H4F13453   0.219   0.980  13.139  0.7218  0.7699  0.7429
   9923SM   H4G13454   0.087   1.015  13.242  0.5525 -0.2606 -0.1898
   9923SM   C5F13455   0.250   1.130  13.295 -0.4444 -0.4415 -0.3345
   9923SM   H5F13456   0.223   1.234  13.321  3.3100  0.5363  0.2245
   9923SM   H5G13457   0.355   1.127  13.258 -1.1239 -1.9929 -2.3062
   9923SM   C6F13458   0.266   1.044  13.417  0.7173  0.1381 -0.6553
   9923SM   H6F13459   0.310   0.947  13.386  1.7016  0.7430 -1.1993
   9923SM   H6G13460   0.165   1.005  13.443  0.0646  2.3736  0.3833
   9923SM   C7F13461   0.327   1.109  13.543  0.2293  0.1849 -0.2200
   9923SM   H7F13462   0.260   1.193  13.572 -0.7136 -0.4767 -0.4187
   9923SM   H7G13463   0.421   1.159  13.512 -0.0178  0.3845 -0.6725
   9923SM   C8F13464   0.358   1.005  13.650 -0.1695  0.2673  0.0291
   9923SM   H8F13465   0.423   0.934  13.595 -1.6135 -0.7724 -0.3892
   9923SM   H8G13466   0.268   0.949  13.685 -0.4615  0.1003 -0.9677
   9923SM   C9F13467   0.416   1.061  13.780 -0.6437  0.1501  0.4390
   9923SM   H9F13468   0.524   1.085  13.773 -0.5536 -0.4835 -0.5958
   9923SM   H9G13469   0.411   0.975  13.850 -1.0186 -0.3167 -0.1529
   9923SM  C10F13470   0.350   1.179  13.842 -0.7040 -0.5486  0.4094
   9923SM  H10F13471   0.242   1.174  13.817 -0.1891  0.7881 -2.5675
   9923SM  H10G13472   0.389   1.260  13.777  0.9431 -3.0940 -2.0262
   9923SM  C11F13473   0.408   1.203  13.981  0.4946  0.8500  0.6149
   9923SM  H11F13474   0.372   1.307  13.993 -2.3392  0.0436 -0.0916
   9923SM  H11G13475   0.519   1.195  13.984  0.5333  1.6922  2.2190
   9923SM  C12F13476   0.335   1.115  14.091  0.0001 -0.4286 -0.1200
   9923SM  H12F13477   0.378   1.018  14.123 -0.3210 -0.8902 -1.0440
   9923SM  H12G13478   0.242   1.086  14.038 -0.3841  0.2190  0.1993
   9923SM  C13F13479   0.319   1.187  14.224 -0.4863  0.0577  0.3588
   9923SM  H13F13480   0.231   1.252  14.205 -1.7346 -1.6803 -0.1184
   9923SM  H13G13481   0.417   1.240  14.222  0.4167 -1.2917 -4.3518
   9923SM  C14F13482   0.289   1.098  14.338  0.4103 -0.3028 -0.2039
   9923SM  H14F13483   0.367   1.020  14.353  0.9780 -0.3483 -2.8912
   9923SM  H14G13484   0.194   1.048  14.312 -1.3291  3.1079 -0.8974
   9923SM  C15F13485   0.277   1.186  14.461  0.3594 -0.6004 -0.0787
   9923SM  H15F13486   0.201   1.265  14.446 -0.8530 -2.1295 -2.8446
   9923SM  H15G13487   0.379   1.230  14.471  1.0133 -2.4230  2.1022
   9923SM  C16F13488   0.264   1.097  14.589  0.0767 -0.0442 -0.4276
   9923SM  H16F13489   0.348   1.027  14.608 -0.9243 -0.9182  0.9778
   9923SM  H16G13490   0.168   1.040  14.583 -1.0377  1.7579 -0.6393
   9923SM  C17F13491   0.240   1.191  14.703 -0.1554  0.0969 -0.1317
   9923SM  H17F13492   0.165   1.273  14.695  1.5479  2.2374  3.2644
   9923SM  H17G13493   0.336   1.246  14.713 -0.2961  0.1282  1.3157
   9923SM  C18F13494   0.215   1.124  14.837  0.6924  0.3014  0.0648
   9923SM  H18F13495   0.287   1.045  14.868 -1.5263 -1.7775  0.2458
   9923SM  H18G13496   0.118   1.069  14.834  1.4290 -1.0192 -0.2045
   9923SM  C19F13497   0.207   1.227  14.955  0.7411 -0.6748  0.4648
   9923SM  H19F13498   0.152   1.315  14.917  1.8243  0.0591  0.5556
   9923SM  H19G13499   0.310   1.266  14.971  0.7176 -0.5054  0.2087
   9923SM  C20F13500   0.160   1.175  15.087  0.9010 -0.2915 -0.6685
   9923SM  H20F13501   0.225   1.091  15.118 -0.6918 -1.0988  0.6574
   9923SM  H20G13502   0.055   1.140  15.085  1.1558 -1.5397  2.3588
   9923SM  C21F13503   0.170   1.288  15.190  0.2995 -0.3355 -0.8159
   9923SM  H21F13504   0.130   1.381  15.144 -1.5753  0.3264  1.9315
   9923SM  H21G13505   0.275   1.312  15.218  0.8351 -1.9936 -1.2975
   9923SM  C22F13506   0.119   1.254  15.331  0.2090 -0.2629  0.5431
   9923SM  H22F13507   0.167   1.161  15.368 -1.2748 -1.7012 -0.9910
   9923SM  H22G13508   0.013   1.224  15.334  0.2837 -1.2985 -3.0288
   9923SM  C23F13509   0.149   1.355  15.443 -0.0749 -0.2901 -0.0361
   9923SM  H23F13510   0.098   1.325  15.537 -1.3186  1.0819 -0.2203
   9923SM  H23G13511   0.114   1.455  15.408  1.2200  0.1019 -0.2459
   9923SM  H23H13512   0.258   1.370  15.452  0.3128 -2.8724  0.0825
  10023SM     N13513   0.110   1.570  12.590  0.2275  0.0975  0.3826
  10023SM   C1513514   0.160   1.466  12.491  0.1051 -0.1849 -0.1249
  10023SM  H15A13515   0.146   1.497  12.389  3.1837  1.6364 -0.1101
  10023SM  H15B13516   0.128   1.365  12.510 -1.2314  0.2243 -0.0910
  10023SM  H15C13517   0.267   1.460  12.501 -0.0356  0.0075  1.8678
  10023SM   C1413518   0.162   1.708  12.557  0.2475  0.1320 -0.0378
  10023SM  H14A13519   0.104   1.787  12.603  0.3985  0.8025 -0.9693
  10023SM  H14B13520   0.154   1.721  12.450 -1.6567  0.1387  0.0665
  10023SM  H14C13521   0.264   1.719  12.590  0.3062 -0.2344 -0.0900
  10023SM   C1313522  -0.040   1.572  12.580 -0.4281 -0.4710 -0.1550
  10023SM  H13A13523  -0.059   1.608  12.480  2.3017  0.4527 -0.4373
  10023SM  H13B13524  -0.081   1.636  12.656  1.4046  2.6929 -1.6174
  10023SM  H13C13525  -0.070   1.469  12.594  4.1260 -2.1902 -1.1687
  10023SM   C1213526   0.152   1.527  12.727  0.4058 -0.4431 -0.7159
  10023SM  H12A13527   0.114   1.428  12.748 -1.9564  0.5605  0.0995
  10023SM  H12B13528   0.105   1.599  12.793 -0.8196 -0.5252 -1.4824
  10023SM   C1113529   0.306   1.523  12.755 -0.3838 -0.1445  0.4838
  10023SM  H11A13530   0.343   1.456  12.675 -4.0269  0.0905 -1.6294
  10023SM  H11B13531   0.313   1.467  12.851 -2.3277 -1.0645  0.1434
  10023SM     P13532   0.520   1.672  12.731 -0.2853  0.5403  0.1252
  10023SM   O1313533   0.545   1.651  12.589  0.2713 -0.2575  0.5131
  10023SM   O1413534   0.556   1.800  12.795 -0.2997  0.0563  0.0131
  10023SM   O1113535   0.570   1.541  12.808 -0.4137 -0.3159 -0.5780
  10023SM   O1213536   0.366   1.656  12.758  0.3599 -0.1356 -0.7922
  10023SM   C1S13537   0.581   1.546  12.953 -1.0129 -0.5964  0.4184
  10023SM   H1S13538   0.497   1.489  12.999 -0.1383 -2.2200  0.0704
  10023SM   H1T13539   0.599   1.651  12.985  0.1228  0.4079 -3.0818
  10023SM    NF13540   0.703   1.488  13.156 -0.6776 -0.3964 -0.1397
  10023SM   HNF13541   0.775   1.539  13.202 -0.4183 -0.6678 -0.2417
  10023SM   C2S13542   0.709   1.480  13.010  0.0330 -0.2678  0.7085
  10023SM   H2S13543   0.719   1.374  12.978 -1.7278  0.5360 -3.1872
  10023SM   C3S13544   0.830   1.552  12.941 -0.8115 -0.6336 -0.2225
  10023SM   H3S13545   0.845   1.659  12.965  1.6597 -0.2631 -2.9629
  10023SM    O313546   0.843   1.531  12.798  0.1432  0.0941 -0.2385
  10023SM   HO313547   0.752   1.511  12.774  0.3232 -1.6984  0.3867
  10023SM   C4S13548   0.952   1.499  13.014 -0.2423  0.2548 -0.4210
  10023SM   H4S13549   0.976   1.549  13.109  0.0514 -0.9278  0.1494
  10023SM   C5S13550   1.022   1.384  12.975 -0.5066 -0.1239 -0.9378
  10023SM   H5S13551   0.984   1.328  12.888 -0.5506 -2.7375  0.6500
  10023SM   C6S13552   1.133   1.314  13.054  0.5712  0.1484  0.1320
  10023SM   H6S13553   1.183   1.386  13.122  1.0715  1.4655 -1.5473
  10023SM   H6T13554   1.205   1.276  12.978 -0.7259  0.5526 -1.3553
  10023SM   C7S13555   1.084   1.201  13.142  0.6869  0.9746  0.3792
  10023SM   H7S13556   1.177   1.153  13.178 -0.6190 -1.4729  0.7326
  10023SM   H7T13557   1.032   1.131  13.073  1.3573 -1.9546  2.6171
  10023SM   C8S13558   0.982   1.216  13.252  0.2022 -0.6086 -0.2320
  10023SM   H8S13559   0.956   1.112  13.283  3.0037 -0.9774  1.1648
  10023SM   H8T13560   0.887   1.263  13.217 -0.6707 -2.7526 -0.9187
  10023SM   C9S13561   1.028   1.301  13.361  0.1267  0.5181 -0.8004
  10023SM   H9S13562   0.971   1.396  13.356  0.0140  0.4360 -1.0695
  10023SM   H9T13563   1.135   1.327  13.375 -0.3853  1.8058  1.1280
  10023SM  C10S13564   0.996   1.245  13.506 -0.1188  0.2431  0.0800
  10023SM  H10S13565   1.062   1.156  13.521  0.1107  0.3285 -0.4155
  10023SM  H10T13566   0.889   1.221  13.520 -0.1585 -0.3095 -1.0553
  10023SM  C11S13567   1.031   1.340  13.617  0.3480  0.1899 -0.7330
  10023SM  H11S13568   0.954   1.420  13.619 -1.4277 -1.4235 -0.2804
  10023SM  H11T13569   1.131   1.385  13.604  0.4692  0.1716  0.0684
  10023SM  C12S13570   1.023   1.271  13.758  0.3242 -0.1811  0.5928
  10023SM  H12S13571   1.103   1.195  13.762  0.9296  0.1603 -2.4431
  10023SM  H12T13572   0.927   1.216  13.772  0.0894  0.1388  0.2632
  10023SM  C13S13573   1.038   1.370  13.870  0.4016 -0.1107 -0.0120
  10023SM  H13S13574   0.956   1.445  13.864  0.5145 -0.0745 -1.5146
  10023SM  H13T13575   1.130   1.427  13.847 -0.6639  1.0027 -1.7720
  10023SM  C14S13576   1.052   1.308  14.014 -0.2859  0.5244  0.4222
  10023SM  H14S13577   1.144   1.247  14.019 -1.5074 -1.5793 -1.2329
  10023SM  H14T13578   0.963   1.241  14.016 -1.3366  1.8839  0.8982
  10023SM  C15S13579   1.031   1.395  14.133 -0.0475 -0.3957 -0.4835
  10023SM  H15S13580   0.939   1.457  14.121 -0.2770 -0.6796 -0.2140
  10023SM  H15T13581   1.117   1.464  14.146 -0.5639 -0.0162  1.0628
  10023SM  C16S13582   1.027   1.310  14.260 -0.0329 -0.5935  0.2790
  10023SM  H16S13583   1.117   1.246  14.268  0.1266 -0.2551  1.4469
  10023SM  H16T13584   0.939   1.246  14.240 -1.7306  1.3461  1.1535
  10023SM  C17S13585   1.008   1.394  14.387  0.4214 -0.2530 -0.3482
  10023SM  H17S13586   0.929   1.467  14.359  1.8744  1.7445  0.5194
  10023SM  H17T13587   1.092   1.457  14.425 -1.7443  2.1061  0.8503
  10023SM  C18S13588   0.950   1.306  14.508 -0.0196  0.0048  0.9984
  10023SM  H18S13589   0.951   1.371  14.598 -0.2214  0.8788  0.3776
  10023SM  H18T13590   1.001   1.208  14.521 -0.1815 -0.2445 -0.1478
  10023SM  H18U13591   0.843   1.291  14.483  0.5839 -1.2078 -1.0756
  10023SM   C1F13592   0.613   1.430  13.229 -0.4785 -0.3611  0.0872
  10023SM    OF13593   0.557   1.331  13.178  0.7234 -0.2383 -0.4494
  10023SM   C2F13594   0.590   1.491  13.370 -0.6571 -0.0450  0.4201
  10023SM   H2F13595   0.481   1.485  13.390 -0.5384 -1.0129  0.8469
  10023SM   H2G13596   0.638   1.591  13.372 -0.3541 -0.1927  1.3933
  10023SM   C3F13597   0.637   1.403  13.484 -0.1022 -0.2582 -0.1949
  10023SM   H3F13598   0.747   1.418  13.498  0.0189  1.7663 -2.7390
  10023SM   H3G13599   0.598   1.299  13.491 -2.2794  0.6165  2.1349
  10023SM   C4F13600   0.562   1.457  13.614 -0.1984  0.2988  0.0684
  10023SM   H4F13601   0.467   1.399  13.614 -0.2668  0.4115  0.3077
  10023SM   H4G13602   0.536   1.563  13.597  0.0852  0.6777  1.8821
  10023SM   C5F13603   0.649   1.447  13.734 -0.2411  0.2134  0.7424
  10023SM   H5F13604   0.755   1.473  13.712 -0.5006 -0.3071 -1.4102
  10023SM   H5G13605   0.659   1.341  13.765 -2.2380 -0.1624  0.2427
  10023SM   C6F13606   0.590   1.515  13.854 -0.5462 -0.4194 -0.1456
  10023SM   H6F13607   0.485   1.482  13.869 -1.3245  1.8648 -0.2024
  10023SM   H6G13608   0.593   1.625  13.838 -0.5514  0.1360  2.9249
  10023SM   C7F13609   0.664   1.501  13.991  0.1405  0.8261  0.3092
  10023SM   H7F13610   0.758   1.559  13.993  0.1744  0.8237 -0.7446
  10023SM   H7G13611   0.688   1.395  14.015 -1.6332  0.2713 -0.2252
  10023SM   C8F13612   0.569   1.542  14.109 -0.5620  0.5425 -0.2527
  10023SM   H8F13613   0.481   1.475  14.118 -1.8392  2.0000 -1.2056
  10023SM   H8G13614   0.548   1.650  14.091  1.6676  0.8795 -1.0943
  10023SM   C9F13615   0.644   1.537  14.246  0.5345 -0.1363  0.1634
  10023SM   H9F13616   0.734   1.603  14.238 -0.8813  1.7751 -0.8700
  10023SM   H9G13617   0.692   1.441  14.276 -0.3143 -0.1596  1.5402
  10023SM  C10F13618   0.556   1.576  14.364  0.8582  0.4105  0.4685
  10023SM  H10F13619   0.452   1.539  14.355  0.8156  0.3226  1.2399
  10023SM  H10G13620   0.552   1.687  14.356 -0.5979  0.2838 -1.1485
  10023SM  C11F13621   0.618   1.548  14.502  0.1724  0.4131  0.3201
  10023SM  H11F13622   0.713   1.604  14.514 -0.1553  0.8281  0.9849
  10023SM  H11G13623   0.640   1.439  14.510 -1.5099  0.0621  0.6104
  10023SM  C12F13624   0.533   1.595  14.618 -0.9693 -0.0424  0.5229
  10023SM  H12F13625   0.432   1.549  14.618 -2.0278  2.1383 -0.3643
  10023SM  H12G13626   0.513   1.704  14.606  1.7320  0.6221  1.3959
  10023SM  C13F13627   0.602   1.573  14.753  0.4050 -0.4885  0.0447
  10023SM  H13F13628   0.688   1.643  14.748 -1.5080  1.9362 -1.2320
  10023SM  H13G13629   0.634   1.467  14.763  3.9244  0.3901 -0.5933
  10023SM  C14F13630   0.511   1.608  14.872  0.3038 -0.5297  0.1119
  10023SM  H14F13631   0.428   1.533  14.872  1.9230 -2.3959  0.5728
  10023SM  H14G13632   0.473   1.711  14.852 -0.3812 -0.7945  0.0085
  10023SM  C15F13633   0.575   1.622  15.008 -0.0382  0.3593 -0.2235
  10023SM  H15F13634   0.526   1.703  15.067  1.8734  1.4898 -0.0781
  10023SM  H15G13635   0.677   1.663  14.993  1.0662 -2.2672 -0.3129
  10023SM  C16F13636   0.584   1.501  15.102  0.2544  0.0131  0.4712
  10023SM  H16F13637   0.631   1.420  15.042  2.4932  2.0805 -0.7040
  10023SM  H16G13638   0.483   1.471  15.139  1.4413 -3.4854  1.2544
  10023SM  C17F13639   0.669   1.526  15.223 -0.4133  0.1125  0.7306
  10023SM  H17F13640   0.621   1.598  15.292 -0.8766 -1.3663  2.0275
  10023SM  H17G13641   0.764   1.564  15.181  0.0653 -0.9583  0.8076
  10023SM  C18F13642   0.698   1.408  15.320  0.2802  0.4697  0.1203
  10023SM  H18F13643   0.748   1.329  15.261  0.2857  1.2807 -1.0114
  10023SM  H18G13644   0.599   1.375  15.356  0.7152 -3.2655 -1.6901
  10023SM  C19F13645   0.784   1.446  15.435 -0.5616  0.5968  0.2413
  10023SM  H19F13646   0.716   1.465  15.520  1.3136  1.3738  1.6416
  10023SM  H19G13647   0.839   1.541  15.422  0.8723  0.0034  1.6251
  10023SM  C20F13648   0.881   1.331  15.473  0.1943  0.0860 -0.1225
  10023SM  H20F13649   0.959   1.323  15.395  0.2282  0.4157 -0.1250
  10023SM  H20G13650   0.822   1.237  15.480 -0.7449  0.6088 -0.8308
  10023SM  C21F13651   0.949   1.353  15.603 -0.0221 -0.0246  0.2450
  10023SM  H21F13652   0.874   1.343  15.685  1.2062 -1.1063  1.2958
  10023SM  H21G13653   0.984   1.458  15.602 -1.0991  0.3582  0.6432
  10023SM  C22F13654   1.057   1.254  15.625 -0.1594  0.0857  0.4240
  10023SM  H22F13655   1.115   1.263  15.531  0.2154  2.6089  0.8240
  10023SM  H22G13656   1.020   1.150  15.636  0.7198 -0.1856  0.9248
  10023SM  C23F13657   1.149   1.299  15.739 -0.0642  0.5857 -0.1934
  10023SM  H23F13658   1.173   1.406  15.722 -2.1814  0.8852 -1.8292
  10023SM  H23G13659   1.249   1.251  15.730 -0.1820 -0.3349  2.5642
  10023SM  H23H13660   1.106   1.284  15.840  1.5775  0.3733  0.4953
  101CHL1    C313661   3.938   4.721  16.568 -0.4519 -0.2033 -0.1586
  101CHL1    H313662   3.906   4.826  16.551 -0.4705 -0.2411 -0.3603
  101CHL1    O313663   3.974   4.696  16.702  0.0380  0.3690  0.1166
  101CHL1   H3'13664   3.891   4.707  16.748 -2.3128 -1.8099 -3.1085
  101CHL1    C413665   3.813   4.635  16.531  0.0725  0.3896 -0.4046
  101CHL1   H4A13666   3.828   4.531  16.568  0.5868 -0.0507 -1.7940
  101CHL1   H4B13667   3.729   4.682  16.586 -0.9810 -1.0186 -0.7660
  101CHL1    C513668   3.790   4.630  16.380 -0.5413  0.3348 -0.2899
  101CHL1    C613669   3.670   4.655  16.335 -0.0064 -0.7281  0.3949
  101CHL1    H613670   3.585   4.687  16.397 -1.7771 -1.6048 -1.4674
  101CHL1    C713671   3.632   4.653  16.191 -0.4036 -0.3588 -0.1865
  101CHL1   H7A13672   3.542   4.589  16.177 -0.4845 -0.6012  1.3614
  101CHL1   H7B13673   3.612   4.752  16.145  1.0661 -0.4418 -1.0890
  101CHL1    C813674   3.742   4.591  16.089 -0.5746 -0.7552  0.0824
  101CHL1    H813675   3.711   4.484  16.094 -1.7744 -0.4008  0.6281
  101CHL1   C1413676   3.724   4.632  15.940 -0.0413 -0.7440 -0.7936
  101CHL1   H1413677   3.734   4.743  15.941 -0.1313 -0.7358 -0.4489
  101CHL1   C1513678   3.583   4.606  15.883 -0.1942  0.5002 -0.0141
  101CHL1  H15A13679   3.539   4.518  15.934 -3.5634  0.9483 -1.8448
  101CHL1  H15B13680   3.518   4.695  15.901  1.3963  1.3313  2.1553
  101CHL1   C1613681   3.600   4.576  15.735 -0.3914 -0.3565  0.0332
  101CHL1  H16A13682   3.591   4.467  15.715  1.8252 -0.8545  1.4076
  101CHL1  H16B13683   3.539   4.634  15.663  0.1939  2.5525  1.7176
  101CHL1   C1713684   3.749   4.606  15.710 -0.5107  0.9864  0.7863
  101CHL1   H1713685   3.751   4.717  15.712 -1.9241  1.0159  2.1550
  101CHL1   C1313686   3.824   4.571  15.849 -0.0405  0.1862  0.0772
  101CHL1   C1813687   3.834   4.412  15.852  0.4817  0.3771 -0.1662
  101CHL1  H18A13688   3.870   4.374  15.950  0.9197 -0.2126 -0.5463
  101CHL1  H18B13689   3.732   4.368  15.847  1.1708 -1.3846  0.4383
  101CHL1  H18C13690   3.908   4.378  15.776  0.6564 -0.1049  0.2136
  101CHL1   C1213691   3.966   4.633  15.887  0.9548  0.4478  0.0113
  101CHL1  H12A13692   4.043   4.584  15.824  1.1075  0.6051  0.0751
  101CHL1  H12B13693   3.944   4.740  15.865  2.7955  0.7000 -0.7596
  101CHL1   C1113694   3.992   4.599  16.035  0.3736 -0.1367 -0.0948
  101CHL1  H11A13695   4.007   4.490  16.049  1.1707  0.1421  1.3588
  101CHL1  H11B13696   4.083   4.653  16.067  0.1411  0.0482  0.2634
  101CHL1    C913697   3.877   4.635  16.143 -0.6862  0.8905  0.2491
  101CHL1    H913698   3.892   4.745  16.140 -0.7351  0.8753 -1.1812
  101CHL1   C1013699   3.914   4.599  16.292 -0.6354 -0.3184  0.0797
  101CHL1   C1913700   3.969   4.453  16.293 -0.0639  0.1427 -0.8577
  101CHL1  H19A13701   3.899   4.397  16.228 -1.6699  0.8807  0.1706
  101CHL1  H19B13702   4.064   4.451  16.236 -0.3507 -0.1132 -1.3343
  101CHL1  H19C13703   3.972   4.414  16.397  2.1873 -0.3306 -1.0474
  101CHL1    C113704   4.036   4.687  16.341  0.4602  0.5503 -0.0017
  101CHL1   H1A13705   4.127   4.658  16.284  1.4758  0.4598  1.6098
  101CHL1   H1B13706   4.009   4.793  16.321  0.6758  0.6215  0.0800
  101CHL1    C213707   4.061   4.678  16.491 -0.0046 -0.4736 -0.0689
  101CHL1   H2A13708   4.151   4.736  16.520 -1.1717  0.6229  1.6411
  101CHL1   H2B13709   4.084   4.576  16.527  1.3553  0.8541  3.2337
  101CHL1   C2013710   3.798   4.543  15.581  0.2110  0.3111 -0.1782
  101CHL1   H2013711   3.796   4.432  15.590  1.0112  0.1235 -1.7776
  101CHL1   C2113712   3.952   4.589  15.565  0.1241 -0.1952  0.1274
  101CHL1  H21A13713   4.021   4.550  15.642 -1.0085  0.3950  1.4736
  101CHL1  H21B13714   3.961   4.700  15.562 -1.3590 -0.0581 -0.1037
  101CHL1  H21C13715   3.988   4.549  15.468  0.2515  0.2496 -0.0118
  101CHL1   C2213716   3.714   4.572  15.457  0.0166  0.2446 -0.0224
  101CHL1  H22A13717   3.613   4.529  15.468  0.5427 -0.7948  0.9175
  101CHL1  H22B13718   3.699   4.682  15.448  0.9265  0.2606 -2.1865
  101CHL1   C2313719   3.768   4.527  15.322 -0.0434  2.0447 -1.2177
  101CHL1  H23A13720   3.868   4.572  15.304 -0.1628  1.5574 -3.5113
  101CHL1  H23B13721   3.801   4.421  15.331 -1.1021  1.6364 -1.8212
  101CHL1   C2413722   3.659   4.541  15.209 -0.0961  0.6429 -0.0418
  101CHL1  H24A13723   3.576   4.470  15.229 -0.3198  0.9444  0.1162
  101CHL1  H24B13724   3.638   4.650  15.219 -0.9216  0.3596  1.4913
  101CHL1   C2513725   3.704   4.513  15.062 -0.6968  0.2369  0.7297
  101CHL1   H2513726   3.781   4.592  15.045 -0.3202 -0.4334 -0.9166
  101CHL1   C2613727   3.767   4.374  15.043  0.0477  0.1545  0.1088
  101CHL1  H26A13728   3.826   4.364  14.949 -1.1900 -0.0425 -0.6635
  101CHL1  H26B13729   3.842   4.356  15.124  0.8474 -0.9340 -0.8426
  101CHL1  H26C13730   3.689   4.296  15.030  1.6975 -1.4231 -0.7176
  101CHL1   C2713731   3.603   4.552  14.954  0.3083 -0.1985 -0.0774
  101CHL1  H27A13732   3.572   4.658  14.970 -2.8664 -1.3035  1.8522
  101CHL1  H27B13733   3.656   4.549  14.856 -1.7974  2.0571 -1.3911
  101CHL1  H27C13734   3.513   4.488  14.954  0.4246 -0.3606 -0.1508
  102CHL1    C313735   2.844   5.038  16.545  0.6422  0.1373 -0.4281
  102CHL1    H313736   2.945   5.082  16.528  1.3438 -1.8501 -1.8542
  102CHL1    O313737   2.832   4.993  16.679  0.0036  0.1631 -0.0667
  102CHL1   H3'13738   2.827   5.071  16.735 -0.9561  1.3217 -1.6651
  102CHL1    C413739   2.732   5.133  16.520 -0.2055  0.1129  0.0449
  102CHL1   H4A13740   2.639   5.076  16.542  1.4485 -2.7619  0.1410
  102CHL1   H4B13741   2.741   5.218  16.591 -0.1751 -0.2894  0.5284
  102CHL1    C513742   2.739   5.179  16.374 -0.8159  0.2066  0.0608
  102CHL1    C613743   2.749   5.310  16.346 -0.0893  0.0975  0.0022
  102CHL1    H613744   2.759   5.386  16.425 -1.4906 -0.5597  0.8509
  102CHL1    C713745   2.735   5.371  16.208  0.5392 -0.2321 -0.1565
  102CHL1   H7A13746   2.654   5.447  16.212  0.3974 -0.1192 -3.0534
  102CHL1   H7B13747   2.828   5.422  16.174 -0.4432  0.1010 -2.6206
  102CHL1    C813748   2.682   5.268  16.101 -0.0361 -0.9647  0.7050
  102CHL1    H813749   2.574   5.245  16.115 -0.6234 -0.5308 -2.3674
  102CHL1   C1413750   2.721   5.317  15.958  0.6322  1.0057 -0.3418
  102CHL1   H1413751   2.831   5.306  15.960  0.4471 -1.6660 -0.9851
  102CHL1   C1513752   2.681   5.461  15.914 -0.6944  0.1536 -0.4791
  102CHL1  H15A13753   2.577   5.475  15.952 -0.1031  1.4778  0.7110
  102CHL1  H15B13754   2.739   5.539  15.967 -0.8819  0.7537 -1.1444
  102CHL1   C1613755   2.700   5.467  15.765 -0.9036  0.0515 -0.0780
  102CHL1  H16A13756   2.604   5.499  15.721 -1.1415  0.2246  0.5558
  102CHL1  H16B13757   2.782   5.535  15.733  1.1686 -1.8572  0.8551
  102CHL1   C1713758   2.730   5.317  15.731  0.3134 -0.5763  0.6213
  102CHL1   H1713759   2.840   5.300  15.733  0.5761  0.9577  2.1817
  102CHL1   C1313760   2.681   5.229  15.844  0.4295 -0.5598 -0.2415
  102CHL1   C1813761   2.520   5.219  15.842 -0.0008 -0.3104 -0.1327
  102CHL1  H18A13762   2.492   5.149  15.760 -1.8330 -0.7064  0.7807
  102CHL1  H18B13763   2.479   5.192  15.942  1.8204 -1.4737  0.3666
  102CHL1  H18C13764   2.478   5.319  15.818  1.5380  0.2915 -0.4737
  102CHL1   C1213765   2.750   5.090  15.870  0.2418 -0.2759 -0.2260
  102CHL1  H12A13766   2.715   5.020  15.791  0.0658 -1.4549  0.8572
  102CHL1  H12B13767   2.858   5.105  15.851  0.6853 -1.5815  1.0394
  102CHL1   C1113768   2.718   5.035  16.009 -0.0525 -0.2481  0.1985
  102CHL1  H11A13769   2.608   5.028  16.014 -0.0001 -1.9487 -0.4518
  102CHL1  H11B13770   2.745   4.928  16.025 -1.2482 -0.2224  3.0258
  102CHL1    C913771   2.756   5.139  16.125 -0.7474  0.8008 -0.8579
  102CHL1    H913772   2.865   5.156  16.113 -0.8683  2.2028 -0.1265
  102CHL1   C1013773   2.733   5.074  16.260  0.0275  1.0797 -0.3279
  102CHL1   C1913774   2.592   5.002  16.263  0.2765 -0.4936 -0.0469
  102CHL1  H19A13775   2.585   4.916  16.193  3.7484  0.0777 -1.2611
  102CHL1  H19B13776   2.570   4.957  16.363  0.7885  0.2232  0.3919
  102CHL1  H19C13777   2.516   5.078  16.233  3.9131  3.2659 -0.6321
  102CHL1    C113778   2.841   4.963  16.298  0.4832 -0.2321  0.2105
  102CHL1   H1A13779   2.821   4.883  16.224 -0.2564  1.9982 -2.1271
  102CHL1   H1B13780   2.936   5.017  16.280  0.5012 -0.9652 -2.2427
  102CHL1    C213781   2.842   4.919  16.448  0.1245 -0.2785 -0.0242
  102CHL1   H2A13782   2.922   4.847  16.474 -1.2578 -1.5827  0.7564
  102CHL1   H2B13783   2.747   4.862  16.459  0.5945 -0.9985  0.3391
  102CHL1   C2013784   2.678   5.289  15.584  0.8319 -0.2991  0.5448
  102CHL1   H2013785   2.570   5.265  15.595  0.5712 -0.5491 -1.9001
  102CHL1   C2113786   2.751   5.166  15.528 -0.3446 -0.3887  0.4574
  102CHL1  H21A13787   2.861   5.160  15.535 -0.1998  1.2993  0.0780
  102CHL1  H21B13788   2.728   5.168  15.420 -2.3834  1.6987  0.8476
  102CHL1  H21C13789   2.706   5.071  15.565  1.5134 -1.0198  1.1971
  102CHL1   C2213790   2.689   5.406  15.487  0.1452  0.4552 -0.1245
  102CHL1  H22A13791   2.648   5.364  15.393 -0.1196 -1.1669  0.6944
  102CHL1  H22B13792   2.628   5.496  15.511 -2.1500 -1.1909  0.5065
  102CHL1   C2313793   2.832   5.460  15.451 -0.2923  0.2681 -0.4507
  102CHL1  H23A13794   2.875   5.499  15.547 -0.4236 -2.7307  0.9506
  102CHL1  H23B13795   2.898   5.377  15.417  1.3130  0.5569  1.7193
  102CHL1   C2413796   2.838   5.561  15.339 -0.1177 -0.0780 -0.0611
  102CHL1  H24A13797   2.777   5.644  15.379 -1.7277 -0.3563 -1.8167
  102CHL1  H24B13798   2.937   5.610  15.324 -0.0991 -0.2209 -0.4101
  102CHL1   C2513799   2.788   5.517  15.200 -0.0901 -0.2926  0.0820
  102CHL1   H2513800   2.678   5.499  15.203 -1.0510  3.2219 -4.2040
  102CHL1   C2613801   2.793   5.637  15.096 -0.6655  0.8617  0.3638
  102CHL1  H26A13802   2.774   5.596  14.994  1.2703  0.8133 -0.0197
  102CHL1  H26B13803   2.722   5.718  15.122  1.0662  2.4675  0.3067
  102CHL1  H26C13804   2.897   5.675  15.093 -0.1714 -0.3591  1.0467
  102CHL1   C2713805   2.855   5.395  15.142 -0.3175 -0.2019 -0.0649
  102CHL1  H27A13806   2.830   5.307  15.205 -0.2377 -0.5377 -0.4971
  102CHL1  H27B13807   2.823   5.378  15.037 -2.8315  0.4079  0.5318
  102CHL1  H27C13808   2.965   5.413  15.132 -0.5281  1.8487  0.7845
  103CHL1    C313809   2.408   3.531  17.133  0.3227 -0.0772 -0.2075
  103CHL1    H313810   2.500   3.480  17.098 -0.2806 -1.5447  0.2764
  103CHL1    O313811   2.407   3.556  17.276  0.2463 -0.3788 -0.1192
  103CHL1   H3'13812   2.450   3.641  17.279  0.8958 -0.6223 -1.5529
  103CHL1    C413813   2.393   3.667  17.062 -0.2876  0.0769  0.2671
  103CHL1   H4A13814   2.308   3.733  17.087  0.5085  1.5555 -0.7799
  103CHL1   H4B13815   2.481   3.725  17.097  0.9183 -0.8710 -1.0729
  103CHL1    C513816   2.391   3.647  16.909 -0.4392 -0.3277 -0.3710
  103CHL1    C613817   2.478   3.716  16.833  0.1525  0.4434  0.3827
  103CHL1    H613818   2.554   3.782  16.878  2.3284 -0.9732 -1.0311
  103CHL1    C713819   2.485   3.710  16.676 -0.2547  0.1970  0.6964
  103CHL1   H7A13820   2.488   3.816  16.643  1.6078  0.8705  2.8258
  103CHL1   H7B13821   2.581   3.659  16.653 -0.2079  0.6822 -0.2463
  103CHL1    C813822   2.368   3.629  16.625 -0.0242 -0.4147  0.3653
  103CHL1    H813823   2.282   3.698  16.633 -0.0390 -0.4920  0.9094
  103CHL1   C1413824   2.385   3.598  16.473 -0.3723 -0.3125 -0.7677
  103CHL1   H1413825   2.469   3.524  16.472  0.5808  0.7421 -0.5007
  103CHL1   C1513826   2.433   3.706  16.375  0.5131 -0.4990  0.0601
  103CHL1  H15A13827   2.367   3.795  16.382 -2.1306 -2.3941  1.3266
  103CHL1  H15B13828   2.538   3.736  16.394  0.1239  2.1273 -1.5107
  103CHL1   C1613829   2.418   3.631  16.237 -0.0495 -0.3906 -0.2323
  103CHL1  H16A13830   2.384   3.710  16.167 -1.9528  0.9023  1.9949
  103CHL1  H16B13831   2.516   3.588  16.208  0.6553 -0.2336  1.7627
  103CHL1   C1713832   2.320   3.508  16.258 -0.1991 -0.1973 -0.0652
  103CHL1   H1713833   2.388   3.421  16.255 -2.9442 -2.4739 -0.6821
  103CHL1   C1313834   2.270   3.526  16.406 -0.0063  0.4336 -0.6338
  103CHL1   C1813835   2.144   3.611  16.411  0.4183  0.2126  0.0165
  103CHL1  H18A13836   2.160   3.717  16.383 -0.9952  0.8808  1.5981
  103CHL1  H18B13837   2.056   3.574  16.354 -0.7222  0.8379  1.3278
  103CHL1  H18C13838   2.109   3.624  16.515  0.3066 -0.1568  0.0258
  103CHL1   C1213839   2.245   3.395  16.485  0.1727  0.0534 -0.7835
  103CHL1  H12A13840   2.164   3.329  16.446 -0.3890 -0.3079  0.9052
  103CHL1  H12B13841   2.332   3.326  16.476 -0.0025 -0.2920  0.0560
  103CHL1   C1113842   2.216   3.422  16.637 -0.4602  0.2161  0.4612
  103CHL1  H11A13843   2.117   3.467  16.658  0.5322  2.1943  1.1520
  103CHL1  H11B13844   2.201   3.325  16.690 -0.4298 -0.9309 -1.5219
  103CHL1    C913845   2.325   3.503  16.709 -0.5138 -0.2528  0.5045
  103CHL1    H913846   2.415   3.439  16.712 -0.6130 -0.3809  2.5891
  103CHL1   C1013847   2.299   3.535  16.857  0.2693  0.3168 -0.2811
  103CHL1   C1913848   2.150   3.593  16.874  0.5761 -0.3984 -0.3795
  103CHL1  H19A13849   2.068   3.529  16.835 -1.1689  1.9318 -0.7529
  103CHL1  H19B13850   2.127   3.613  16.981  3.2118 -1.9874  0.5910
  103CHL1  H19C13851   2.133   3.682  16.811  1.0693 -0.1426 -0.1558
  103CHL1    C113852   2.313   3.410  16.941  0.2175  0.3212 -0.1742
  103CHL1   H1A13853   2.231   3.339  16.917 -0.0776  0.4757  0.3440
  103CHL1   H1B13854   2.401   3.348  16.914  0.0586  0.9818 -2.3672
  103CHL1    C213855   2.304   3.432  17.094  0.5020  0.2648  0.2445
  103CHL1   H2A13856   2.300   3.332  17.141  1.1297  0.1280  0.0173
  103CHL1   H2B13857   2.206   3.483  17.106  0.2312 -0.1988  0.0211
  103CHL1   C2013858   2.221   3.481  16.143  0.3318  0.5166 -0.2532
  103CHL1   H2013859   2.162   3.575  16.149  2.0185  1.9600 -3.4900
  103CHL1   C2113860   2.134   3.359  16.167 -0.3528  0.3481 -0.0118
  103CHL1  H21A13861   2.082   3.334  16.072 -1.5980  3.3919 -0.2474
  103CHL1  H21B13862   2.065   3.369  16.253 -0.5275  1.2265 -0.2495
  103CHL1  H21C13863   2.207   3.282  16.199  0.6771  0.6061 -1.6412
  103CHL1   C2213864   2.301   3.489  16.011 -0.3945  0.2506  0.3828
  103CHL1  H22A13865   2.370   3.576  16.017 -2.3414  1.7709  2.3317
  103CHL1  H22B13866   2.361   3.396  16.004 -0.3681  0.2725  0.3081
  103CHL1   C2313867   2.198   3.496  15.898  0.5956  0.0559  0.0818
  103CHL1  H23A13868   2.154   3.395  15.882  0.2105  0.3949 -1.0278
  103CHL1  H23B13869   2.118   3.568  15.926 -0.4018 -1.1052  0.3003
  103CHL1   C2413870   2.256   3.546  15.766 -0.7891  0.1524  0.4359
  103CHL1  H24A13871   2.276   3.655  15.774 -0.3269  0.1241 -0.2713
  103CHL1  H24B13872   2.350   3.489  15.748  0.1502  0.7822  3.0121
  103CHL1   C2513873   2.157   3.525  15.649  0.1655  0.4374  0.0173
  103CHL1   H2513874   2.110   3.424  15.652 -1.4731  1.1773  0.1532
  103CHL1   C2613875   2.037   3.614  15.665  0.4166 -0.0455 -0.0685
  103CHL1  H26A13876   1.972   3.564  15.740  0.8806  0.0346  0.3890
  103CHL1  H26B13877   2.058   3.713  15.710  1.4628  0.6490 -1.9661
  103CHL1  H26C13878   1.982   3.634  15.570 -0.1014 -2.3130 -0.3035
  103CHL1   C2713879   2.221   3.542  15.512  0.4130 -0.9320  0.0806
  103CHL1  H27A13880   2.297   3.461  15.500 -0.1175 -1.4587  0.2224
  103CHL1  H27B13881   2.141   3.545  15.435  0.8771  0.6812 -0.3713
  103CHL1  H27C13882   2.263   3.645  15.504 -0.4815 -0.5006  0.8271
  104CHL1    C313883   6.660   0.058  16.341  0.1571 -0.3966  0.1833
  104CHL1    H313884   6.734   0.135  16.312 -1.6275  0.4404 -2.4174
  104CHL1    O313885   6.647   0.049  16.482  0.6723 -0.2331  0.8992
  104CHL1   H3'13886   6.712  -0.017  16.509  1.1297  0.2212  0.9268
  104CHL1    C413887   6.525   0.098  16.285 -0.0192  1.3115  0.2527
  104CHL1   H4A13888   6.451   0.034  16.338 -0.2025  1.3241  0.0121
  104CHL1   H4B13889   6.520   0.205  16.313  1.8244  1.5488 -0.1577
  104CHL1    C513890   6.515   0.085  16.136  0.2913  0.4995 -0.0909
  104CHL1    C613891   6.486   0.194  16.053 -0.1956  0.6039 -0.1873
  104CHL1    H613892   6.455   0.289  16.099  1.2020  1.7497 -1.5197
  104CHL1    C713893   6.461   0.193  15.902  0.8225 -0.4664 -0.7964
  104CHL1   H7A13894   6.360   0.235  15.878  0.5580 -0.7673 -0.2183
  104CHL1   H7B13895   6.539   0.245  15.843  0.4020 -0.2957 -1.2161
  104CHL1    C813896   6.455   0.047  15.848 -0.3997 -0.0039  0.2897
  104CHL1    H813897   6.358   0.003  15.878 -1.5037  0.6683 -2.0447
  104CHL1   C1413898   6.482   0.042  15.699  0.2799 -0.3232  0.4554
  104CHL1   H1413899   6.582   0.085  15.678  0.4044 -0.0042  1.6348
  104CHL1   C1513900   6.381   0.119  15.613 -0.3142 -0.0830 -0.8132
  104CHL1  H15A13901   6.282   0.086  15.652 -0.5454  0.9136 -0.5249
  104CHL1  H15B13902   6.391   0.228  15.633 -2.0067 -0.2435  1.3245
  104CHL1   C1613903   6.402   0.059  15.470  0.7040 -0.0054  0.2296
  104CHL1  H16A13904   6.304   0.016  15.438  0.8099  1.3091 -2.0422
  104CHL1  H16B13905   6.449   0.132  15.400  1.5911 -1.2785 -0.5569
  104CHL1   C1713906   6.502  -0.060  15.487  0.2272  0.3739  0.4259
  104CHL1   H1713907   6.602  -0.017  15.462  0.1028  0.6084  0.3292
  104CHL1   C1313908   6.495  -0.095  15.636  0.0497  0.5431 -0.5711
  104CHL1   C1813909   6.380  -0.183  15.653 -0.3813 -0.3068 -0.2819
  104CHL1  H18A13910   6.296  -0.142  15.593  1.0086 -1.0612 -2.8901
  104CHL1  H18B13911   6.401  -0.285  15.615 -1.0721  0.2404 -2.2581
  104CHL1  H18C13912   6.343  -0.185  15.758 -0.3247  1.3394 -0.2023
  104CHL1   C1213913   6.617  -0.158  15.705  0.4998  0.1272 -0.2130
  104CHL1  H12A13914   6.623  -0.259  15.659 -0.2356  1.0054 -2.3482
  104CHL1  H12B13915   6.711  -0.102  15.685  0.1842  1.3425  1.4910
  104CHL1   C1113916   6.604  -0.172  15.853  0.5351  0.5731  0.4061
  104CHL1  H11A13917   6.524  -0.248  15.869  1.1301 -0.8354 -2.5688
  104CHL1  H11B13918   6.694  -0.225  15.891  1.1164  1.1917 -0.0825
  104CHL1    C913919   6.570  -0.038  15.917  0.1888 -0.4992  0.8542
  104CHL1    H913920   6.661   0.025  15.908  0.4719 -0.6815  2.2821
  104CHL1   C1013921   6.550  -0.052  16.073 -0.7068 -0.5415  0.0136
  104CHL1   C1913922   6.433  -0.150  16.110 -0.3882  0.1627  0.8660
  104CHL1  H19A13923   6.462  -0.249  16.069 -0.9203  0.6500 -0.7580
  104CHL1  H19B13924   6.423  -0.160  16.221  1.0447  0.7465  1.0757
  104CHL1  H19C13925   6.338  -0.121  16.062  0.6702  2.6206  0.1343
  104CHL1    C113926   6.688  -0.090  16.129 -0.4809  0.3935 -0.3769
  104CHL1   H1A13927   6.706  -0.198  16.110  0.5634  0.0236  2.1843
  104CHL1   H1B13928   6.767  -0.033  16.076  0.1856  1.6824  1.8641
  104CHL1    C213929   6.700  -0.078  16.286  0.6391 -0.1832 -0.3660
  104CHL1   H2A13930   6.800  -0.104  16.326 -0.3754  0.0134  2.5465
  104CHL1   H2B13931   6.622  -0.144  16.330 -1.0482  2.2932  0.6365
  104CHL1   C2013932   6.491  -0.176  15.383  0.3933 -0.5765  0.4241
  104CHL1   H2013933   6.396  -0.233  15.397 -0.2585  0.3494 -0.1001
  104CHL1   C2113934   6.611  -0.272  15.389  0.2495  0.1975  1.1359
  104CHL1  H21A13935   6.599  -0.343  15.473 -0.7466 -0.3487  0.5457
  104CHL1  H21B13936   6.707  -0.216  15.390  0.3393  0.2368  4.8455
  104CHL1  H21C13937   6.612  -0.337  15.299 -1.2385  2.3763 -0.5665
  104CHL1   C2213938   6.492  -0.121  15.238  0.0337  0.1825 -0.4090
  104CHL1  H22A13939   6.466  -0.204  15.168 -0.7126  0.6970 -0.7578
  104CHL1  H22B13940   6.409  -0.047  15.237 -0.0681  0.0741 -0.1036
  104CHL1   C2313941   6.615  -0.043  15.190  0.0944 -0.1940 -0.1443
  104CHL1  H23A13942   6.634   0.040  15.260 -2.8389 -1.0234  1.8033
  104CHL1  H23B13943   6.710  -0.101  15.188  1.4377  1.8593  0.9286
  104CHL1   C2413944   6.588   0.018  15.051 -0.2002 -0.5142 -0.1091
  104CHL1  H24A13945   6.585  -0.062  14.974 -3.1288 -2.4734  1.8341
  104CHL1  H24B13946   6.494   0.078  15.044  0.7500  0.8964 -1.3446
  104CHL1   C2513947   6.704   0.113  15.008  0.6388  0.0090  0.1377
  104CHL1   H2513948   6.697   0.203  15.073 -1.0977  0.7765 -1.0612
  104CHL1   C2613949   6.840   0.047  15.022  0.1136  0.0486  0.6258
  104CHL1  H26A13950   6.837  -0.041  14.954 -1.2079  0.7250 -0.2319
  104CHL1  H26B13951   6.915   0.120  14.987 -0.1839  0.1696  0.2284
  104CHL1  H26C13952   6.862   0.018  15.127  0.8920  0.9648  0.7202
  104CHL1   C2713953   6.674   0.149  14.863  0.1448  0.5085 -0.4231
  104CHL1  H27A13954   6.748   0.219  14.818 -1.0634  1.4763 -0.9614
  104CHL1  H27B13955   6.673   0.053  14.806 -0.4718 -1.2059  2.2862
  104CHL1  H27C13956   6.570   0.185  14.847 -0.8906 -1.2639  1.7425
  105CHL1    C313957   5.773   3.859  16.979 -0.2466 -0.2262 -0.2267
  105CHL1    H313958   5.680   3.804  16.954  0.4337 -1.4949 -0.0267
  105CHL1    O313959   5.795   3.873  17.119 -0.3655 -0.0706  0.5830
  105CHL1   H3'13960   5.850   3.951  17.134 -2.7153  1.8119  0.1292
  105CHL1    C413961   5.887   3.784  16.911 -0.4087  0.4974 -0.2349
  105CHL1   H4A13962   5.981   3.842  16.924 -0.0425  0.2758 -1.6655
  105CHL1   H4B13963   5.910   3.689  16.965 -2.0024 -0.7311 -1.5898
  105CHL1    C513964   5.863   3.760  16.761 -0.4810 -0.6262 -0.1602
  105CHL1    C613965   5.849   3.639  16.709  0.3042  0.0329 -0.9590
  105CHL1    H613966   5.869   3.549  16.770  0.5567  0.5333 -0.2924
  105CHL1    C713967   5.827   3.611  16.567 -0.3899 -0.8264  0.2846
  105CHL1   H7A13968   5.891   3.526  16.538  0.8206  0.4073 -0.7796
  105CHL1   H7B13969   5.722   3.581  16.546 -0.4515 -0.6422  0.3245
  105CHL1    C813970   5.864   3.736  16.479  0.0374 -0.7442 -0.3429
  105CHL1    H813971   5.975   3.748  16.484 -0.1728  1.2444  0.4225
  105CHL1   C1413972   5.812   3.713  16.336 -0.2486  0.4009 -0.2097
  105CHL1   H1413973   5.702   3.703  16.340 -0.3730  1.2269 -1.1269
  105CHL1   C1513974   5.875   3.593  16.267 -0.0721 -0.0444  0.6365
  105CHL1  H15A13975   5.982   3.570  16.283  0.0120 -1.6666 -1.7269
  105CHL1  H15B13976   5.830   3.501  16.310 -0.7686  0.3609  0.7945
  105CHL1   C1613977   5.831   3.607  16.124  0.0390 -0.5469  0.2121
  105CHL1  H16A13978   5.925   3.589  16.068  1.0767 -2.0455  2.2951
  105CHL1  H16B13979   5.745   3.541  16.098  0.3416 -1.9058  2.3949
  105CHL1   C1713980   5.780   3.757  16.109 -0.0714  0.4226  0.2187
  105CHL1   H1713981   5.669   3.755  16.114 -0.2790  2.5791 -1.5986
  105CHL1   C1313982   5.823   3.823  16.242  0.6812 -0.6727 -0.2435
  105CHL1   C1813983   5.973   3.857  16.228  0.3849  0.5472  0.2616
  105CHL1  H18A13984   5.973   3.946  16.160 -2.7268  0.4511 -0.0091
  105CHL1  H18B13985   6.002   3.881  16.332  1.0954 -0.1107  0.2245
  105CHL1  H18C13986   6.038   3.774  16.194  1.5471  0.8593  1.6323
  105CHL1   C1213987   5.735   3.937  16.294  0.0542  0.7595  0.1631
  105CHL1  H12A13988   5.739   4.016  16.216  0.1346 -0.0418 -0.6638
  105CHL1  H12B13989   5.634   3.893  16.300  0.2235  0.5129  1.7153
  105CHL1   C1113990   5.781   3.980  16.434 -0.0530 -0.1751 -0.0784
  105CHL1  H11A13991   5.880   4.029  16.437  1.2515 -2.5788  4.2439
  105CHL1  H11B13992   5.703   4.051  16.470  2.6214  2.8301  0.1764
  105CHL1    C913993   5.792   3.858  16.532 -0.1118 -0.1707  0.4338
  105CHL1    H913994   5.690   3.818  16.551  0.5828 -3.3696 -1.6521
  105CHL1   C1013995   5.843   3.885  16.677 -0.3213 -0.9508  0.7343
  105CHL1   C1913996   5.977   3.963  16.660  0.0588  0.3150 -0.2250
  105CHL1  H19A13997   6.056   3.915  16.598 -1.0358 -1.6140 -0.1881
  105CHL1  H19B13998   5.953   4.064  16.621 -1.4948 -0.0858 -0.3786
  105CHL1  H19C13999   6.018   3.984  16.761  0.0454  0.0087 -0.1556
  105CHL1    C114000   5.742   3.980  16.753  0.5351  0.4436 -0.1736
  105CHL1   H1A14001   5.746   4.077  16.698 -0.4024  0.0417 -0.9771
  105CHL1   H1B14002   5.640   3.943  16.729  0.6868 -0.1405  0.0652
  105CHL1    C214003   5.765   3.997  16.907 -0.5827 -0.2687  1.3758
  105CHL1   H2A14004   5.689   4.065  16.949  1.3970  2.2633  1.1169
  105CHL1   H2B14005   5.863   4.049  16.912 -0.3378 -0.2371 -1.7739
  105CHL1   C2014006   5.816   3.816  15.970  0.2305 -0.0960  0.7301
  105CHL1   H2014007   5.926   3.828  15.971  0.2725 -0.4471  0.4265
  105CHL1   C2114008   5.749   3.955  15.949  0.2908  0.2453  0.2247
  105CHL1  H21A14009   5.802   4.036  16.003  1.6585  0.8712 -1.9327
  105CHL1  H21B14010   5.643   3.941  15.981  1.2665 -1.7819  2.9745
  105CHL1  H21C14011   5.744   3.996  15.846  0.1455 -0.0703  0.1024
  105CHL1   C2214012   5.772   3.719  15.852 -0.5231 -0.3665 -0.0866
  105CHL1  H22A14013   5.830   3.626  15.872 -3.1430 -1.6494  2.5880
  105CHL1  H22B14014   5.663   3.696  15.858 -0.5327 -0.2405  0.2934
  105CHL1   C2314015   5.799   3.774  15.711  0.2078 -0.1167  0.0311
  105CHL1  H23A14016   5.734   3.861  15.687  0.4630  0.0144 -0.1828
  105CHL1  H23B14017   5.903   3.814  15.712 -0.1734  0.9076  0.5811
  105CHL1   C2414018   5.778   3.659  15.610 -0.3409 -0.3040 -0.4045
  105CHL1  H24A14019   5.862   3.586  15.609 -0.8266 -0.9205  1.0357
  105CHL1  H24B14020   5.694   3.595  15.646 -0.5355 -1.5816 -2.8704
  105CHL1   C2514021   5.750   3.709  15.466 -0.4988  0.3391 -0.1930
  105CHL1   H2514022   5.672   3.787  15.475  0.3498  1.3437 -1.3423
  105CHL1   C2614023   5.877   3.771  15.398  0.2934 -0.0758 -0.1970
  105CHL1  H26A14024   5.867   3.802  15.292  2.1350 -0.8848 -0.6410
  105CHL1  H26B14025   5.917   3.858  15.454  1.7910 -1.5342  1.0734
  105CHL1  H26C14026   5.959   3.697  15.389  0.3704 -0.0076 -0.0553
  105CHL1   C2714027   5.701   3.587  15.382  0.5882  0.0276 -0.1840
  105CHL1  H27A14028   5.648   3.615  15.289  2.1300  0.6573 -0.9128
  105CHL1  H27B14029   5.788   3.525  15.351  0.0389 -0.7159 -0.2646
  105CHL1  H27C14030   5.621   3.531  15.436  1.2230 -0.4607  0.2676
  106CHL1    C314031   1.697   4.333  16.705  0.3752 -0.5156  0.6795
  106CHL1    H314032   1.597   4.287  16.690  0.5045 -0.0970 -1.9874
  106CHL1    O314033   1.719   4.373  16.837 -0.2189  0.3183  0.1223
  106CHL1   H3'14034   1.652   4.438  16.857 -0.3493  0.3992 -0.5642
  106CHL1    C414035   1.808   4.239  16.653  0.4860 -0.5275 -0.2380
  106CHL1   H4A14036   1.906   4.290  16.671 -0.9247  2.1323  0.5686
  106CHL1   H4B14037   1.806   4.149  16.718  2.2549  0.0424  0.6878
  106CHL1    C514038   1.785   4.210  16.505 -0.0650  0.8881 -0.0402
  106CHL1    C614039   1.779   4.078  16.470  0.0815  0.2616  0.0738
  106CHL1    H614040   1.811   4.001  16.541  0.7243  0.6511  0.2147
  106CHL1    C714041   1.764   4.025  16.330  0.8316  0.2187 -0.1007
  106CHL1   H7A14042   1.843   3.951  16.309 -3.2681 -4.5091 -0.6172
  106CHL1   H7B14043   1.664   3.977  16.333 -0.4716  2.7757  0.8106
  106CHL1    C814044   1.781   4.142  16.223  0.3930 -0.8562 -0.1666
  106CHL1    H814045   1.891   4.153  16.212  0.7300 -2.1129  1.5063
  106CHL1   C1414046   1.726   4.103  16.092  0.4718  0.7618  0.3403
  106CHL1   H1414047   1.617   4.094  16.114  0.9343 -2.5694  1.8808
  106CHL1   C1514048   1.770   3.960  16.036  0.6685  0.0193  0.8434
  106CHL1  H15A14049   1.881   3.965  16.032  0.6188  0.8141 -0.1638
  106CHL1  H15B14050   1.726   3.877  16.095 -1.9734 -0.1058 -1.1271
  106CHL1   C1614051   1.711   3.961  15.895 -0.4204 -0.1350  0.4426
  106CHL1  H16A14052   1.789   3.933  15.820  0.1741 -2.0706  1.7305
  106CHL1  H16B14053   1.623   3.894  15.888  0.3964 -1.2691  0.7743
  106CHL1   C1714054   1.669   4.115  15.868  0.0400 -0.2437 -0.0692
  106CHL1   H1714055   1.561   4.112  15.892 -0.5840 -0.2770 -2.6172
  106CHL1   C1314056   1.742   4.200  15.977 -0.0003  0.0539 -0.6786
  106CHL1   C1814057   1.884   4.229  15.939 -0.0734  0.2947 -1.0615
  106CHL1  H18A14058   1.956   4.245  16.023  0.5263 -1.8629 -1.0953
  106CHL1  H18B14059   1.921   4.140  15.885  2.3120  1.2432 -1.0882
  106CHL1  H18C14060   1.886   4.314  15.868 -0.7853  1.6439  0.4568
  106CHL1   C1214061   1.667   4.330  16.018  0.1367 -0.5388 -0.1087
  106CHL1  H12A14062   1.678   4.417  15.950  0.1673 -0.3764  0.1075
  106CHL1  H12B14063   1.559   4.302  16.020 -0.7404  2.4958  1.9254
  106CHL1   C1114064   1.721   4.379  16.154 -0.8006 -0.2371 -0.2481
  106CHL1  H11A14065   1.829   4.400  16.141 -0.6527 -1.8089 -2.0130
  106CHL1  H11B14066   1.673   4.474  16.185 -1.2587 -0.3745 -0.5264
  106CHL1    C914067   1.717   4.275  16.264  0.0583 -0.8238  0.7194
  106CHL1    H914068   1.611   4.254  16.289  0.2119 -1.8657  0.5515
  106CHL1   C1014069   1.767   4.324  16.406 -0.4286  0.1891  0.1610
  106CHL1   C1914070   1.915   4.385  16.392 -0.5705 -0.6637 -0.1998
  106CHL1  H19A14071   1.917   4.470  16.321  1.0101 -0.1166  0.4386
  106CHL1  H19B14072   1.954   4.417  16.491  3.3957  0.9721 -2.0641
  106CHL1  H19C14073   1.973   4.298  16.354 -0.3168  0.4183 -2.4794
  106CHL1    C114074   1.670   4.428  16.461  0.3452 -0.2009 -0.3133
  106CHL1   H1A14075   1.692   4.528  16.419 -0.0852  0.9451  2.0515
  106CHL1   H1B14076   1.569   4.389  16.438 -0.3639  2.0575 -1.2578
  106CHL1    C214077   1.687   4.461  16.613 -0.2236 -0.2630 -0.3183
  106CHL1   H2A14078   1.614   4.535  16.654 -0.3353  0.2966 -1.4936
  106CHL1   H2B14079   1.794   4.492  16.621  0.7078 -3.3157  0.2874
  106CHL1   C2014080   1.682   4.164  15.719  0.1427  0.2270 -0.5862
  106CHL1   H2014081   1.792   4.163  15.703  0.3339 -0.7013  0.5942
  106CHL1   C2114082   1.621   4.302  15.709  0.0795 -0.9404 -0.3312
  106CHL1  H21A14083   1.617   4.330  15.602  1.0225  0.0996 -0.1133
  106CHL1  H21B14084   1.679   4.383  15.758 -2.3774  0.6055  0.1443
  106CHL1  H21C14085   1.516   4.299  15.744 -0.8380  0.3598 -2.7732
  106CHL1   C2214086   1.619   4.066  15.615 -0.0795  0.4394 -0.2362
  106CHL1  H22A14087   1.642   4.113  15.518 -1.3980 -0.8540 -1.2234
  106CHL1  H22B14088   1.672   3.968  15.616 -0.1201  0.3116  3.3101
  106CHL1   C2314089   1.469   4.056  15.628 -0.0223  0.5851  0.0294
  106CHL1  H23A14090   1.458   4.003  15.726  1.6108  0.1634  0.0216
  106CHL1  H23B14091   1.414   4.152  15.632 -0.1326  0.4959  0.8720
  106CHL1   C2414092   1.397   3.972  15.517  0.1516  0.1236  0.7792
  106CHL1  H24A14093   1.474   3.920  15.456  0.5168 -1.8092  2.7853
  106CHL1  H24B14094   1.343   3.891  15.570  1.0686  0.1881  1.8365
  106CHL1   C2514095   1.309   4.052  15.422 -0.5275  0.1052 -0.3503
  106CHL1   H2514096   1.228   4.102  15.479 -1.8106  0.2682 -2.2183
  106CHL1   C2614097   1.385   4.160  15.358 -0.6624  0.2310  0.2437
  106CHL1  H26A14098   1.457   4.115  15.287 -3.2018 -0.1468 -2.2633
  106CHL1  H26B14099   1.317   4.216  15.290 -0.0890 -0.5502 -1.0052
  106CHL1  H26C14100   1.441   4.231  15.422  1.9355  0.3401 -2.0059
  106CHL1   C2714101   1.227   3.959  15.330 -0.5192 -0.1338 -0.2502
  106CHL1  H27A14102   1.296   3.898  15.268  2.4012 -0.0260  2.6211
  106CHL1  H27B14103   1.178   3.887  15.399  1.0147 -1.0924 -0.1067
  106CHL1  H27C14104   1.146   4.012  15.277  1.1413 -0.3698 -3.2748
  107CHL1    C314105   3.393   0.057  16.379  0.3632 -0.3757 -0.1705
  107CHL1    H314106   3.308  -0.013  16.365  0.6168 -0.6330 -0.4324
  107CHL1    O314107   3.382   0.113  16.513  0.4925  0.0467  0.3127
  107CHL1   H3'14108   3.335   0.195  16.495  1.0802  0.7952  1.9134
  107CHL1    C414109   3.523  -0.019  16.375 -0.0458  0.0805 -0.1180
  107CHL1   H4A14110   3.601   0.057  16.398 -0.1550  0.4004 -0.7701
  107CHL1   H4B14111   3.523  -0.102  16.449 -1.1775 -1.4258 -1.7098
  107CHL1    C514112   3.552  -0.080  16.238  0.5934  0.1566  0.0580
  107CHL1    C614113   3.576  -0.207  16.222  0.1862  0.5292 -0.3329
  107CHL1    H614114   3.580  -0.281  16.303 -2.5545 -0.2943 -0.8470
  107CHL1    C714115   3.618  -0.265  16.087  0.0485  0.5341  0.2188
  107CHL1   H7A14116   3.700  -0.340  16.094 -0.1679  0.3953  1.5145
  107CHL1   H7B14117   3.542  -0.330  16.037 -1.6231  1.7476  1.1112
  107CHL1    C814118   3.650  -0.159  15.982  0.2469  0.5021  0.2263
  107CHL1    H814119   3.746  -0.108  16.007  2.1144 -2.3112 -0.7132
  107CHL1   C1414120   3.669  -0.221  15.846  0.5251  0.1780 -0.3552
  107CHL1   H1414121   3.579  -0.280  15.817  1.0232 -0.6889 -0.1929
  107CHL1   C1514122   3.778  -0.326  15.827  0.1646 -0.3908  0.2748
  107CHL1  H15A14123   3.870  -0.302  15.885  0.9165  0.6896 -1.2896
  107CHL1  H15B14124   3.737  -0.426  15.852  0.8002 -0.8065 -0.2926
  107CHL1   C1614125   3.821  -0.315  15.676 -0.1569 -0.3342  0.2357
  107CHL1  H16A14126   3.924  -0.274  15.662 -0.1096 -0.9405 -1.3686
  107CHL1  H16B14127   3.807  -0.409  15.618  1.3376 -0.3574 -0.1228
  107CHL1   C1714128   3.713  -0.218  15.615  0.3004  0.2115 -0.4208
  107CHL1   H1714129   3.628  -0.289  15.603 -0.5397  0.2994  3.6351
  107CHL1   C1314130   3.682  -0.121  15.726 -0.0178 -0.0163  0.4120
  107CHL1   C1814131   3.802  -0.027  15.748  0.1614 -0.6648 -0.4977
  107CHL1  H18A14132   3.801   0.064  15.685  0.0091  0.4307  1.0321
  107CHL1  H18B14133   3.800   0.023  15.848 -0.8737  0.5288 -1.0829
  107CHL1  H18C14134   3.899  -0.082  15.741 -0.3967 -1.8567  0.6951
  107CHL1   C1214135   3.556  -0.034  15.725 -0.3744 -0.0950 -0.3959
  107CHL1  H12A14136   3.553   0.051  15.653 -1.4096  1.9429  1.8863
  107CHL1  H12B14137   3.473  -0.106  15.705  0.1606 -0.5103 -1.1707
  107CHL1   C1114138   3.545   0.041  15.859  0.0685 -0.2207  0.1177
  107CHL1  H11A14139   3.617   0.124  15.872  1.2439 -1.6580  4.5845
  107CHL1  H11B14140   3.445   0.088  15.859  0.1328  0.0276 -1.9776
  107CHL1    C914141   3.550  -0.049  15.988 -0.3720  0.1715 -0.5457
  107CHL1    H914142   3.451  -0.099  15.976 -0.5686  0.3904  0.1333
  107CHL1   C1014143   3.547   0.025  16.129  0.1513  0.0058  0.0640
  107CHL1   C1914144   3.669   0.124  16.136 -0.0046 -0.0617 -0.5745
  107CHL1  H19A14145   3.677   0.184  16.229  0.1657 -0.5915 -0.2391
  107CHL1  H19B14146   3.762   0.063  16.133 -1.6223 -2.6932 -1.0842
  107CHL1  H19C14147   3.672   0.201  16.056  2.0710  2.1903  1.5157
  107CHL1    C114148   3.408   0.096  16.140 -0.0648 -0.2781 -0.2095
  107CHL1   H1A14149   3.398   0.177  16.064 -0.8848 -1.5163 -1.4572
  107CHL1   H1B14150   3.325   0.026  16.118  0.1856 -1.4455  2.2033
  107CHL1    C214151   3.381   0.164  16.274 -0.1250 -0.5134  0.7718
  107CHL1   H2A14152   3.278   0.203  16.291  0.1521  0.9614 -0.6836
  107CHL1   H2B14153   3.457   0.244  16.283 -1.5070  1.2678 -2.0537
  107CHL1   C2014154   3.753  -0.162  15.478 -0.4307  0.2471 -0.3996
  107CHL1   H2014155   3.828  -0.081  15.490  1.2323 -1.5729  2.6617
  107CHL1   C2114156   3.625  -0.096  15.408 -0.2787 -0.4261 -0.0544
  107CHL1  H21A14157   3.598   0.003  15.450 -1.7935 -0.5989 -0.5423
  107CHL1  H21B14158   3.536  -0.161  15.426 -0.1929 -0.4596  0.2432
  107CHL1  H21C14159   3.644  -0.081  15.300 -0.1870  1.5301  0.1989
  107CHL1   C2214160   3.807  -0.284  15.382 -0.1564  0.3307  0.2464
  107CHL1  H22A14161   3.837  -0.243  15.283 -0.0317 -2.1801 -0.8364
  107CHL1  H22B14162   3.902  -0.326  15.422  2.1674  1.5898 -3.4641
  107CHL1   C2314163   3.703  -0.401  15.349  0.1712 -0.9928  0.3590
  107CHL1  H23A14164   3.657  -0.437  15.443  1.6857 -1.1025  1.0857
  107CHL1  H23B14165   3.629  -0.358  15.278  0.4352  0.2124  0.7959
  107CHL1   C2414166   3.781  -0.522  15.284  0.2932 -0.7905 -0.3300
  107CHL1  H24A14167   3.857  -0.482  15.213  2.7542 -2.5012  1.1532
  107CHL1  H24B14168   3.832  -0.579  15.365 -0.1416 -1.6626 -0.6606
  107CHL1   C2514169   3.692  -0.623  15.212  0.7476  0.4077  0.3415
  107CHL1   H2514170   3.601  -0.612  15.276  2.2413  2.2325  2.2865
  107CHL1   C2614171   3.663  -0.567  15.072  0.0482 -0.3154 -0.4373
  107CHL1  H26A14172   3.761  -0.558  15.019  0.7197  1.6082  1.0028
  107CHL1  H26B14173   3.598  -0.635  15.013 -2.1981  0.4818  1.0051
  107CHL1  H26C14174   3.619  -0.465  15.067  1.9174  0.6705  1.5211
  107CHL1   C2714175   3.753  -0.761  15.207  0.2150  0.7119  0.2903
  107CHL1  H27A14176   3.853  -0.756  15.158 -0.2873 -1.9940 -1.2319
  107CHL1  H27B14177   3.765  -0.811  15.306  0.1725 -3.8836 -1.7525
  107CHL1  H27C14178   3.692  -0.824  15.138 -0.7881  0.2549  1.5528
  108CHL1    C314179   5.730   2.938  16.615  0.6578  0.7569  0.3292
  108CHL1    H314180   5.671   2.853  16.575  0.0692  0.9689  0.7382
  108CHL1    O314181   5.740   2.918  16.755  0.5868 -0.1186 -0.1396
  108CHL1   H3'14182   5.651   2.920  16.791  0.3965 -1.8798 -0.4323
  108CHL1    C414183   5.874   2.919  16.556  0.3250  0.3079  1.0575
  108CHL1   H4A14184   5.940   2.994  16.605  0.9783 -1.2111  2.6024
  108CHL1   H4B14185   5.910   2.818  16.585  0.7064  0.3267  0.6639
  108CHL1    C514186   5.868   2.937  16.406 -0.3295  0.5068 -0.8222
  108CHL1    C614187   5.909   2.837  16.329  0.3013 -0.1562  0.3434
  108CHL1    H614188   5.953   2.748  16.378 -0.4930 -0.1022  1.1938
  108CHL1    C714189   5.914   2.845  16.184 -0.4520 -0.2486 -0.2438
  108CHL1   H7A14190   6.005   2.795  16.144 -0.9874  0.9424 -3.2509
  108CHL1   H7B14191   5.818   2.801  16.151 -1.8240  1.8502  0.7415
  108CHL1    C814192   5.909   2.991  16.122 -0.9651 -0.2923  0.2427
  108CHL1    H814193   6.015   3.026  16.125 -0.8894 -0.4182 -0.6009
  108CHL1   C1414194   5.867   2.990  15.983  0.1337 -0.0363  0.7036
  108CHL1   H1414195   5.760   2.960  15.981 -0.1416  0.8838 -1.5687
  108CHL1   C1514196   5.926   2.885  15.886 -0.6031  0.2546  0.2162
  108CHL1  H15A14197   6.037   2.883  15.896 -0.4783  0.9402 -0.8763
  108CHL1  H15B14198   5.884   2.783  15.899  1.7520 -0.6514  1.4443
  108CHL1   C1614199   5.890   2.934  15.747  0.0876  0.2408 -0.7091
  108CHL1  H16A14200   5.978   2.930  15.680  0.0306  0.4548 -0.7982
  108CHL1  H16B14201   5.808   2.878  15.697 -0.4554 -0.7397  1.1775
  108CHL1   C1714202   5.830   3.080  15.770  0.6089 -0.7077  0.5386
  108CHL1   H1714203   5.719   3.080  15.773  0.5466  1.8311  0.5955
  108CHL1   C1314204   5.866   3.124  15.912 -0.2633 -0.2874  0.0624
  108CHL1   C1814205   6.014   3.180  15.918 -0.1091 -0.5491  0.3653
  108CHL1  H18A14206   6.044   3.208  16.021 -0.7582 -1.0388  0.6973
  108CHL1  H18B14207   6.083   3.101  15.882  0.8674  0.9501 -1.1512
  108CHL1  H18C14208   6.041   3.268  15.857 -1.1760 -1.7552 -1.9999
  108CHL1   C1214209   5.768   3.218  15.983 -0.3549 -0.1414  0.0074
  108CHL1  H12A14210   5.793   3.321  15.948  3.3503 -0.9146 -0.0162
  108CHL1  H12B14211   5.665   3.187  15.957  0.2283 -0.1618 -2.5535
  108CHL1   C1114212   5.793   3.215  16.134  0.1223 -0.3153 -0.0630
  108CHL1  H11A14213   5.884   3.276  16.153  0.5746  0.2713 -3.4871
  108CHL1  H11B14214   5.706   3.267  16.178  0.1044  0.7195 -1.2485
  108CHL1    C914215   5.808   3.074  16.205 -0.3879 -0.0609 -0.1939
  108CHL1    H914216   5.708   3.026  16.191 -1.8575  2.3036  1.4529
  108CHL1   C1014217   5.824   3.077  16.357  1.2970 -0.5576 -0.1507
  108CHL1   C1914218   5.926   3.192  16.397  0.0665  0.5245  0.2348
  108CHL1  H19A14219   5.877   3.288  16.372  0.1143  0.5500  0.2401
  108CHL1  H19B14220   5.945   3.189  16.506  1.0856  1.8567  0.1233
  108CHL1  H19C14221   6.014   3.168  16.333 -1.3189 -0.1636 -1.5315
  108CHL1    C114222   5.687   3.099  16.425  0.1046 -0.7881 -0.0610
  108CHL1   H1A14223   5.664   3.205  16.403  1.3185 -0.2462  1.1146
  108CHL1   H1B14224   5.615   3.035  16.370  0.2637 -0.8577 -0.1914
  108CHL1    C214225   5.681   3.075  16.579 -0.1043 -0.7424  0.0665
  108CHL1   H2A14226   5.576   3.092  16.611 -0.8731 -1.4626 -1.9051
  108CHL1   H2B14227   5.741   3.152  16.633 -0.6728  1.3371 -2.0506
  108CHL1   C2014228   5.872   3.169  15.646 -0.2660  0.5324  0.0360
  108CHL1   H2014229   5.982   3.176  15.643 -0.1921  0.3543  1.5913
  108CHL1   C2114230   5.826   3.311  15.658  0.1839  0.2845 -0.2642
  108CHL1  H21A14231   5.849   3.376  15.570 -1.6091  2.0582  0.5133
  108CHL1  H21B14232   5.879   3.349  15.747 -1.5416  1.3665  0.3415
  108CHL1  H21C14233   5.717   3.319  15.673  0.7018  2.5591  3.1698
  108CHL1   C2214234   5.833   3.109  15.505 -0.1140 -0.0827 -0.8405
  108CHL1  H22A14235   5.839   3.184  15.422 -1.3383 -0.1747 -1.0319
  108CHL1  H22B14236   5.887   3.014  15.487 -0.3705 -1.1041  2.9835
  108CHL1   C2314237   5.680   3.077  15.502 -0.2064 -0.4409 -0.9357
  108CHL1  H23A14238   5.658   2.992  15.570 -2.7349  1.5397  0.9844
  108CHL1  H23B14239   5.620   3.164  15.538  1.4114  0.4897 -0.4052
  108CHL1   C2414240   5.638   3.055  15.356  0.0105 -0.3319  0.5433
  108CHL1  H24A14241   5.529   3.062  15.340  0.0678  2.4409  0.8711
  108CHL1  H24B14242   5.664   3.147  15.299  1.2209 -0.3165  1.0719
  108CHL1   C2514243   5.704   2.921  15.296 -0.8923 -0.1417 -0.4151
  108CHL1   H2514244   5.815   2.934  15.301 -0.8248 -1.0093  1.6825
  108CHL1   C2614245   5.665   2.788  15.369  0.3102  0.1770 -0.3381
  108CHL1  H26A14246   5.560   2.755  15.356 -0.5406  2.3023  0.5330
  108CHL1  H26B14247   5.742   2.718  15.331 -1.8174 -1.6982 -1.3970
  108CHL1  H26C14248   5.674   2.806  15.479  0.1187  1.2603 -0.4815
  108CHL1   C2714249   5.671   2.909  15.150 -0.2398 -0.3998 -0.7633
  108CHL1  H27A14250   5.560   2.912  15.153 -0.2108  0.4166  2.0869
  108CHL1  H27B14251   5.712   2.992  15.088  0.3839 -1.7057 -2.1517
  108CHL1  H27C14252   5.702   2.811  15.109  1.6482 -0.4069  0.5426
  109CHL1    C314253   2.034   6.419  16.541  0.6260 -0.0997  0.2429
  109CHL1    H314254   2.025   6.309  16.555  1.0777  0.0180  1.6204
  109CHL1    O314255   2.015   6.462  16.680  0.0551 -0.1781  1.1130
  109CHL1   H3'14256   1.932   6.509  16.681 -0.1061 -0.3226 -1.0256
  109CHL1    C414257   2.175   6.450  16.487 -0.1861  0.1250 -0.9108
  109CHL1   H4A14258   2.174   6.560  16.500 -0.1747  0.0298 -0.0329
  109CHL1   H4B14259   2.247   6.412  16.563 -2.9977 -2.1353  0.8927
  109CHL1    C514260   2.198   6.409  16.343 -0.2391 -0.3008 -0.4763
  109CHL1    C614261   2.298   6.324  16.313  0.1162  0.2741 -0.6066
  109CHL1    H614262   2.364   6.307  16.399 -1.3492  3.6765  1.4004
  109CHL1    C714263   2.316   6.278  16.170  0.1586  0.2707 -0.9739
  109CHL1   H7A14264   2.422   6.290  16.136  0.2917  0.6093 -0.4545
  109CHL1   H7B14265   2.274   6.176  16.173  0.6227  0.0931  1.6166
  109CHL1    C814266   2.239   6.359  16.062  0.8412  0.2207  0.3797
  109CHL1    H814267   2.292   6.456  16.052  0.1085  0.4272 -2.0227
  109CHL1   C1414268   2.224   6.274  15.939  0.0125  0.3841 -0.2003
  109CHL1   H1414269   2.164   6.188  15.976 -0.7853  0.8130 -0.4798
  109CHL1   C1514270   2.349   6.219  15.867  0.3050 -0.0276 -0.5324
  109CHL1  H15A14271   2.432   6.293  15.867 -0.5314  0.9384 -0.4554
  109CHL1  H15B14272   2.374   6.121  15.913 -0.7927  0.3555  0.9574
  109CHL1   C1614273   2.298   6.178  15.734 -0.2282 -0.1526  0.0443
  109CHL1  H16A14274   2.370   6.223  15.662 -0.2818  1.7739  1.1276
  109CHL1  H16B14275   2.296   6.068  15.721 -2.3585 -0.3368  1.5119
  109CHL1   C1714276   2.150   6.232  15.724  0.5973 -0.4719  0.4678
  109CHL1   H1714277   2.092   6.153  15.776  1.2046 -0.2023  1.6074
  109CHL1   C1314278   2.151   6.343  15.829 -0.2136 -0.3154  0.3413
  109CHL1   C1814279   2.231   6.463  15.779  0.4827 -0.2004  0.8450
  109CHL1  H18A14280   2.325   6.433  15.728 -0.5506  0.8271 -1.8642
  109CHL1  H18B14281   2.178   6.524  15.702  1.0143 -2.6189 -1.5706
  109CHL1  H18C14282   2.262   6.530  15.862 -0.4456 -1.4954  2.2907
  109CHL1   C1214283   2.013   6.393  15.872 -0.0907  0.9630  0.8550
  109CHL1  H12A14284   1.977   6.463  15.794  2.6524  1.2813 -0.2167
  109CHL1  H12B14285   1.947   6.305  15.883 -0.3949  0.8098 -1.7807
  109CHL1   C1114286   2.026   6.478  15.998  0.2368 -0.2953  1.0715
  109CHL1  H11A14287   2.088   6.570  15.984 -1.5693  1.1059  1.9144
  109CHL1  H11B14288   1.926   6.515  16.028 -0.0493  0.5361 -0.7448
  109CHL1    C914289   2.093   6.392  16.108  0.1457  0.2096 -0.5325
  109CHL1    H914290   2.036   6.296  16.107 -0.5554  0.6176 -0.3295
  109CHL1   C1014291   2.095   6.457  16.247  0.0730 -0.0065  0.0868
  109CHL1   C1914292   2.117   6.606  16.243 -0.1033 -0.0509 -0.5496
  109CHL1  H19A14293   2.107   6.647  16.345  0.6894 -1.8288  0.2886
  109CHL1  H19B14294   2.208   6.628  16.184 -0.5652 -0.1115 -1.2963
  109CHL1  H19C14295   2.029   6.654  16.194  1.0471  1.8529 -0.8326
  109CHL1    C114296   1.947   6.432  16.303  0.8641  0.3745 -0.2049
  109CHL1   H1A14297   1.872   6.481  16.237 -0.7716 -2.8771 -0.9730
  109CHL1   H1B14298   1.922   6.323  16.302  0.0234  0.5571 -0.8615
  109CHL1    C214299   1.922   6.475  16.455  0.8643 -0.1767  0.6725
  109CHL1   H2A14300   1.818   6.456  16.491  0.7059 -1.7208 -0.4756
  109CHL1   H2B14301   1.934   6.585  16.455  0.9505 -0.1675 -0.5866
  109CHL1   C2014302   2.097   6.259  15.586 -0.0629  0.0420  0.6562
  109CHL1   H2014303   2.083   6.368  15.569 -3.7077 -0.4762 -0.6488
  109CHL1   C2114304   1.962   6.198  15.579 -0.8810 -0.2759 -0.2658
  109CHL1  H21A14305   1.937   6.192  15.471 -1.7539  3.3242 -0.3779
  109CHL1  H21B14306   1.896   6.265  15.637  0.7067  1.5913 -0.5284
  109CHL1  H21C14307   1.962   6.094  15.620  0.4070 -1.2360 -2.5161
  109CHL1   C2214308   2.195   6.220  15.466  0.4029 -0.6918 -0.2134
  109CHL1  H22A14309   2.289   6.276  15.488  0.2875 -0.3979 -0.4633
  109CHL1  H22B14310   2.202   6.109  15.470 -0.1299 -0.7210  4.4985
  109CHL1   C2314311   2.130   6.249  15.333 -0.5515 -0.6110  0.3960
  109CHL1  H23A14312   2.053   6.175  15.302 -0.6950 -1.0062  1.6585
  109CHL1  H23B14313   2.081   6.348  15.346 -2.0139 -1.5718  3.0764
  109CHL1   C2414314   2.246   6.273  15.223 -0.8458  0.4016 -0.4133
  109CHL1  H24A14315   2.323   6.341  15.264  0.5203 -2.2522  1.7141
  109CHL1  H24B14316   2.299   6.179  15.198 -2.5969 -0.4826 -0.9980
  109CHL1   C2514317   2.182   6.324  15.096  0.7216  0.3564 -0.0318
  109CHL1   H2514318   2.102   6.395  15.125  0.3471 -0.3727  0.7393
  109CHL1   C2614319   2.276   6.418  15.017 -0.3250  0.2535  0.1876
  109CHL1  H26A14320   2.359   6.364  14.966 -1.2382  0.0201 -1.1205
  109CHL1  H26B14321   2.230   6.481  14.938  2.3008 -0.7648 -2.3478
  109CHL1  H26C14322   2.320   6.481  15.096  1.3539  1.0514 -1.3069
  109CHL1   C2714323   2.120   6.224  14.997  0.4971  0.2024 -0.4190
  109CHL1  H27A14324   2.209   6.168  14.962  1.4305  1.3908 -0.0049
  109CHL1  H27B14325   2.056   6.150  15.050  1.0277  0.0145 -0.0283
  109CHL1  H27C14326   2.064   6.271  14.913  1.1822  0.3526 -0.7959
  110CHL1    C314327   1.386   5.727  16.798 -0.4630  0.1931 -0.2830
  110CHL1    H314328   1.422   5.622  16.793 -0.5318  0.1663 -0.2221
  110CHL1    O314329   1.399   5.772  16.929  0.1466 -0.3487  0.1404
  110CHL1   H3'14330   1.440   5.859  16.928  1.5042 -0.9805 -0.0441
  110CHL1    C414331   1.476   5.821  16.724  0.0082  0.6943 -0.1699
  110CHL1   H4A14332   1.449   5.928  16.738 -1.4021  0.2265  0.9169
  110CHL1   H4B14333   1.578   5.821  16.768 -0.1130 -0.2568  0.1441
  110CHL1    C514334   1.470   5.785  16.579 -0.2423 -0.3491  0.2713
  110CHL1    C614335   1.582   5.734  16.519  0.0657 -0.5697 -0.3340
  110CHL1    H614336   1.664   5.693  16.580  0.9620 -1.5723 -2.1118
  110CHL1    C714337   1.585   5.720  16.371  0.1148  1.3182 -0.5304
  110CHL1   H7A14338   1.685   5.746  16.328  0.5772  0.7760  0.1821
  110CHL1   H7B14339   1.589   5.610  16.356  1.6519  0.8290  2.4845
  110CHL1    C814340   1.462   5.777  16.298 -0.4692  0.1393  0.3883
  110CHL1    H814341   1.462   5.888  16.284 -1.6705  0.3083  1.5260
  110CHL1   C1414342   1.456   5.708  16.161 -0.1044 -0.0357  0.0617
  110CHL1   H1414343   1.449   5.599  16.181  1.2919 -0.3757 -1.1311
  110CHL1   C1514344   1.579   5.723  16.064  0.3195  0.6603  0.5630
  110CHL1  H15A14345   1.615   5.827  16.057 -3.5396  2.0589 -1.4736
  110CHL1  H15B14346   1.654   5.646  16.091 -0.5775 -1.2126 -1.8844
  110CHL1   C1614347   1.520   5.673  15.928  0.1042 -0.8947 -0.0814
  110CHL1  H16A14348   1.540   5.759  15.860  0.2726  0.6945  1.8859
  110CHL1  H16B14349   1.583   5.590  15.889  0.1587 -0.7916 -0.2159
  110CHL1   C1714350   1.365   5.654  15.945 -0.5220 -0.2781 -0.0847
  110CHL1   H1714351   1.349   5.551  15.983  0.9551 -0.6377 -0.3866
  110CHL1   C1314352   1.331   5.745  16.072 -0.2486 -0.2469  0.3169
  110CHL1   C1814353   1.337   5.885  16.033 -0.1376 -1.0114  0.2601
  110CHL1  H18A14354   1.253   5.915  15.966 -0.7663 -1.7173  0.7162
  110CHL1  H18B14355   1.336   5.953  16.121 -2.0114 -0.8937  0.1927
  110CHL1  H18C14356   1.435   5.905  15.985  0.7745 -0.1402  2.3695
  110CHL1   C1214357   1.203   5.710  16.144  0.4020  0.0930  0.0454
  110CHL1  H12A14358   1.114   5.748  16.089 -0.4020 -3.4986 -1.3748
  110CHL1  H12B14359   1.205   5.599  16.151  2.7202  0.1202  0.5214
  110CHL1   C1114360   1.202   5.763  16.287 -1.2654  0.4057 -0.9229
  110CHL1  H11A14361   1.204   5.872  16.263 -1.6012 -0.2857 -4.7825
  110CHL1  H11B14362   1.115   5.719  16.340 -1.5200  0.2460 -1.4704
  110CHL1    C914363   1.335   5.740  16.372 -0.3151 -0.2178  0.2222
  110CHL1    H914364   1.337   5.630  16.389  1.0092 -0.9357 -3.4697
  110CHL1   C1014365   1.336   5.809  16.516 -0.0970 -0.0604  0.5797
  110CHL1   C1914366   1.310   5.959  16.503 -0.7068  0.3376 -0.0684
  110CHL1  H19A14367   1.385   6.002  16.434  0.1394  0.4845  0.9232
  110CHL1  H19B14368   1.212   5.975  16.453  0.3491 -0.4052 -2.5389
  110CHL1  H19C14369   1.319   6.014  16.599  0.6256  0.5959 -0.3344
  110CHL1    C114370   1.227   5.742  16.603  0.1825 -0.1004 -0.0792
  110CHL1   H1A14371   1.127   5.775  16.570 -0.0031  0.4546  0.9848
  110CHL1   H1B14372   1.227   5.632  16.588 -1.8686 -0.0582 -0.5707
  110CHL1    C214373   1.243   5.759  16.753 -1.0498  0.7733 -0.5639
  110CHL1   H2A14374   1.174   5.692  16.808  0.8807 -0.2125  0.7671
  110CHL1   H2B14375   1.211   5.860  16.788 -0.7327  0.7310 -0.1428
  110CHL1   C2014376   1.277   5.673  15.822  1.0202 -0.6626 -0.3992
  110CHL1   H2014377   1.251   5.780  15.808  3.0130  0.2569  2.1627
  110CHL1   C2114378   1.133   5.607  15.834 -0.3893  0.8251  0.7568
  110CHL1  H21A14379   1.067   5.676  15.891  0.3225  1.3660  0.9367
  110CHL1  H21B14380   1.133   5.507  15.882  1.6315 -0.1928 -1.2335
  110CHL1  H21C14381   1.075   5.609  15.739  2.5955  0.7148 -1.1825
  110CHL1   C2214382   1.356   5.618  15.701 -0.4410 -0.0889 -0.2885
  110CHL1  H22A14383   1.443   5.687  15.687  0.2973 -1.0849 -0.7290
  110CHL1  H22B14384   1.391   5.516  15.729  2.3217  1.1940  1.4607
  110CHL1   C2314385   1.273   5.612  15.568  0.5693 -0.3924 -0.6543
  110CHL1  H23A14386   1.190   5.539  15.584  0.1148  0.0470 -0.9732
  110CHL1  H23B14387   1.242   5.717  15.550 -0.8722 -0.8523 -1.0137
  110CHL1   C2414388   1.362   5.568  15.453 -0.0657  0.8909 -0.3332
  110CHL1  H24A14389   1.455   5.628  15.457  1.6386 -1.5922 -0.3489
  110CHL1  H24B14390   1.396   5.462  15.464 -2.1711 -0.0173 -1.7569
  110CHL1   C2514391   1.314   5.591  15.309 -0.2592 -0.5756  0.9491
  110CHL1   H2514392   1.243   5.676  15.318 -0.8156 -0.6330 -1.8935
  110CHL1   C2614393   1.413   5.638  15.198 -0.2645  0.3716  0.1496
  110CHL1  H26A14394   1.472   5.547  15.171  0.1538  0.6344  0.1644
  110CHL1  H26B14395   1.366   5.687  15.111  1.1859  0.9190 -0.3647
  110CHL1  H26C14396   1.489   5.705  15.244  1.1611 -1.4877  0.6733
  110CHL1   C2714397   1.225   5.481  15.262  1.0215 -0.1437 -0.0514
  110CHL1  H27A14398   1.163   5.509  15.174 -0.2107  0.7986  1.0825
  110CHL1  H27B14399   1.275   5.385  15.237  0.4690 -0.6466  0.7521
  110CHL1  H27C14400   1.153   5.449  15.340 -0.1410  0.8864 -0.6751
  111CHL1    C314401   1.926   1.206  16.767  0.4088  0.4619  0.3489
  111CHL1    H314402   1.861   1.296  16.778  1.3973  1.3398 -0.7706
  111CHL1    O314403   1.954   1.178  16.903  0.0909  0.4953 -0.1045
  111CHL1   H3'14404   2.035   1.221  16.930 -0.7365  1.1246  1.5312
  111CHL1    C414405   1.848   1.098  16.701 -0.3686  0.7497 -0.7382
  111CHL1   H4A14406   1.905   1.003  16.707 -0.5082  0.6956 -0.2194
  111CHL1   H4B14407   1.759   1.080  16.765  1.1094 -1.2181  0.8996
  111CHL1    C514408   1.827   1.128  16.553 -0.3532  0.1171 -0.4912
  111CHL1    C614409   1.707   1.128  16.505 -0.1463  0.0542  0.2622
  111CHL1    H614410   1.617   1.117  16.568 -1.2313  1.2091 -1.0000
  111CHL1    C714411   1.675   1.153  16.359  0.2693  0.2793  0.1748
  111CHL1   H7A14412   1.608   1.076  16.316  1.4835 -1.0899  0.6755
  111CHL1   H7B14413   1.626   1.253  16.359  1.3077  0.8041  0.0801
  111CHL1    C814414   1.803   1.146  16.267 -0.3751 -0.5639 -0.5340
  111CHL1    H814415   1.824   1.039  16.247 -0.2636 -0.8068  0.8028
  111CHL1   C1414416   1.781   1.219  16.132  0.2809  0.0775 -0.1822
  111CHL1   H1414417   1.755   1.321  16.168 -0.2221 -0.0191 -0.2579
  111CHL1   C1514418   1.661   1.181  16.044  0.1266 -0.0133 -0.5175
  111CHL1  H15A14419   1.661   1.070  16.036  2.1758 -0.0014 -1.2933
  111CHL1  H15B14420   1.565   1.210  16.091  1.3905 -0.0497  2.3172
  111CHL1   C1614421   1.690   1.245  15.910 -0.1806  0.4789 -0.0578
  111CHL1  H16A14422   1.682   1.168  15.830  0.6873  3.4790 -3.2923
  111CHL1  H16B14423   1.619   1.325  15.881  1.4721  1.3311 -1.9672
  111CHL1   C1714424   1.831   1.313  15.922 -0.3716 -0.7755  0.0704
  111CHL1   H1714425   1.816   1.414  15.965 -2.0730 -0.8270 -0.3020
  111CHL1   C1314426   1.893   1.230  16.039 -0.1255  0.3240 -0.0963
  111CHL1   C1814427   1.934   1.085  15.994 -0.5059 -0.1708  0.1017
  111CHL1  H18A14428   1.855   1.027  15.941 -0.0809 -0.5308 -0.1359
  111CHL1  H18B14429   2.018   1.085  15.922 -0.6404  0.1187 -0.0618
  111CHL1  H18C14430   1.971   1.030  16.083 -1.2134  0.5232  0.8511
  111CHL1   C1214431   2.004   1.300  16.112  0.0895  0.1441 -0.9674
  111CHL1  H12A14432   2.093   1.302  16.045 -0.2596 -1.1497 -1.4967
  111CHL1  H12B14433   1.968   1.399  16.147 -1.3164 -0.6180 -0.1561
  111CHL1   C1114434   2.048   1.224  16.234  0.3016  0.5832 -0.6226
  111CHL1  H11A14435   2.090   1.125  16.206 -0.8248 -0.0310 -0.2151
  111CHL1  H11B14436   2.126   1.279  16.290  0.0280 -0.3757  0.7679
  111CHL1    C914437   1.925   1.219  16.332 -0.0540  0.0286  0.3726
  111CHL1    H914438   1.894   1.324  16.351  0.8993 -0.0188  2.4715
  111CHL1   C1014439   1.957   1.155  16.471  0.1208  0.0601 -0.1454
  111CHL1   C1914440   2.038   1.029  16.456 -0.0898  0.2219  0.3026
  111CHL1  H19A14441   2.045   0.961  16.544 -0.7774 -1.8781 -1.1796
  111CHL1  H19B14442   1.990   0.960  16.384 -0.2219  0.4292  0.1897
  111CHL1  H19C14443   2.133   1.056  16.405 -0.7850 -1.5126 -2.1133
  111CHL1    C114444   2.039   1.263  16.551 -0.0387  0.0989  0.2045
  111CHL1   H1A14445   2.139   1.283  16.507  0.2835  1.5089  1.4933
  111CHL1   H1B14446   1.994   1.364  16.549  0.9786  0.5539 -1.4833
  111CHL1    C214447   2.057   1.231  16.699 -0.1514  0.0106  0.6867
  111CHL1   H2A14448   2.108   1.318  16.747 -1.5663  1.4046 -0.2717
  111CHL1   H2B14449   2.120   1.141  16.716  2.4608  1.8079  1.3019
  111CHL1   C2014450   1.902   1.313  15.791  0.2852  0.6447 -0.4404
  111CHL1   H2014451   1.947   1.216  15.762 -0.4155  0.8039 -2.1702
  111CHL1   C2114452   2.025   1.407  15.797  0.1887 -0.4891  0.3950
  111CHL1  H21A14453   1.999   1.512  15.822 -1.8458 -0.6676 -0.7469
  111CHL1  H21B14454   2.070   1.411  15.695 -0.9969 -0.2763 -0.1297
  111CHL1  H21C14455   2.098   1.359  15.865 -0.8106 -0.3965  1.5551
  111CHL1   C2214456   1.815   1.350  15.673  0.4739 -0.4022 -0.0208
  111CHL1  H22A14457   1.869   1.339  15.576 -1.1459 -3.3735 -0.7138
  111CHL1  H22B14458   1.737   1.273  15.655  0.4434 -0.2728 -0.4767
  111CHL1   C2314459   1.750   1.492  15.682  0.6722  0.1887 -0.4744
  111CHL1  H23A14460   1.682   1.513  15.767  2.3218 -1.0773  1.2471
  111CHL1  H23B14461   1.838   1.560  15.693  0.2299  0.5981  0.6737
  111CHL1   C2414462   1.685   1.532  15.550 -0.2037  0.4460 -0.0518
  111CHL1  H24A14463   1.641   1.632  15.567  1.0015  0.9131  0.3676
  111CHL1  H24B14464   1.761   1.546  15.470  1.0828  0.8752  1.2106
  111CHL1   C2514465   1.569   1.443  15.495  0.2096 -0.4718  0.4395
  111CHL1   H2514466   1.602   1.339  15.473  0.0759 -0.1818 -1.1908
  111CHL1   C2614467   1.456   1.432  15.599  0.4157 -0.6146 -0.2823
  111CHL1  H26A14468   1.475   1.370  15.689 -1.8692  0.3183  0.9419
  111CHL1  H26B14469   1.421   1.532  15.632  0.2773 -0.2560 -1.4697
  111CHL1  H26C14470   1.362   1.392  15.554 -0.0947  0.3195 -0.0787
  111CHL1   C2714471   1.502   1.494  15.370 -0.4569  0.1915 -0.3124
  111CHL1  H27A14472   1.579   1.536  15.302  0.3478  0.2757  0.6357
  111CHL1  H27B14473   1.439   1.417  15.319 -1.0139 -0.3013  1.0808
  111CHL1  H27C14474   1.447   1.588  15.392  1.4226  0.7129  2.5392
  112CHL1    C314475   4.687   2.021  16.638  0.0783  0.6994 -0.3308
  112CHL1    H314476   4.777   1.991  16.580  0.5358 -0.8102  1.0819
  112CHL1    O314477   4.715   2.000  16.776 -0.5023 -0.6118  0.0166
  112CHL1   H3'14478   4.774   1.924  16.776  0.1349 -0.1297  0.6156
  112CHL1    C414479   4.652   2.165  16.594  0.3539 -0.2034 -0.3672
  112CHL1   H4A14480   4.550   2.186  16.634  0.0296 -0.8267 -0.8458
  112CHL1   H4B14481   4.729   2.236  16.629  0.0637  0.1658 -0.4746
  112CHL1    C514482   4.641   2.179  16.448  0.4880  0.4898  0.2683
  112CHL1    C614483   4.714   2.263  16.378 -0.1025  0.0735 -0.7874
  112CHL1    H614484   4.767   2.331  16.446 -1.3114 -0.7530  1.0587
  112CHL1    C714485   4.699   2.283  16.230  0.0491 -0.1191 -0.4495
  112CHL1   H7A14486   4.685   2.392  16.217 -3.1531  0.0822  3.0202
  112CHL1   H7B14487   4.787   2.255  16.168 -1.4210  0.8502 -3.1541
  112CHL1    C814488   4.569   2.220  16.175  1.1076  0.3727 -0.6148
  112CHL1    H814489   4.486   2.285  16.210  0.4817 -0.4609 -0.5236
  112CHL1   C1414490   4.579   2.208  16.027 -0.1939  0.1628  0.4203
  112CHL1   H1414491   4.665   2.140  16.007 -1.1005 -0.9723  0.2570
  112CHL1   C1514492   4.617   2.338  15.953  0.2507  1.1233  0.0136
  112CHL1  H15A14493   4.566   2.429  15.991 -1.8973 -0.2753  0.5918
  112CHL1  H15B14494   4.725   2.361  15.966  0.3912  0.4919 -0.0024
  112CHL1   C1614495   4.573   2.315  15.810  0.5941 -0.6708  0.0054
  112CHL1  H16A14496   4.502   2.391  15.772  1.7302 -0.5209 -1.9430
  112CHL1  H16B14497   4.659   2.313  15.739  0.0448  0.9515 -0.7489
  112CHL1   C1714498   4.504   2.177  15.809 -0.1267 -0.4464 -0.3443
  112CHL1   H1714499   4.583   2.106  15.776  1.4527  2.0177 -2.1080
  112CHL1   C1314500   4.463   2.147  15.954  0.3378  0.4296 -0.3808
  112CHL1   C1814501   4.342   2.230  15.982 -0.1637  0.4882 -0.0240
  112CHL1  H18A14502   4.302   2.224  16.085 -3.8293  2.6203 -1.1563
  112CHL1  H18B14503   4.358   2.339  15.961  2.4919  0.4715  1.4542
  112CHL1  H18C14504   4.264   2.184  15.918 -0.3660  0.2034  0.4201
  112CHL1   C1214505   4.452   2.003  16.001 -0.4507 -0.2266 -0.1907
  112CHL1  H12A14506   4.371   1.947  15.951 -1.0941 -0.0326  0.6204
  112CHL1  H12B14507   4.548   1.954  15.973 -1.1186 -0.4875 -2.1843
  112CHL1   C1114508   4.431   1.997  16.152 -0.7174  0.0131  0.1328
  112CHL1  H11A14509   4.328   2.035  16.164 -0.9398 -0.8160  0.9329
  112CHL1  H11B14510   4.426   1.891  16.186 -0.5498 -0.6046 -1.6454
  112CHL1    C914511   4.550   2.076  16.233  0.2898  0.0341  0.0236
  112CHL1    H914512   4.641   2.019  16.204 -0.4584 -0.8856 -0.6029
  112CHL1   C1014513   4.535   2.080  16.388  0.0868 -0.5764 -0.1976
  112CHL1   C1914514   4.393   2.133  16.427 -0.7077  0.5526 -0.0439
  112CHL1  H19A14515   4.319   2.076  16.367 -0.4740  0.3381 -0.1281
  112CHL1  H19B14516   4.379   2.117  16.536  0.9586  0.2790  0.1640
  112CHL1  H19C14517   4.377   2.239  16.396 -0.4080  1.0621  1.4460
  112CHL1    C114518   4.565   1.937  16.435  0.2255  0.2365 -0.5627
  112CHL1   H1A14519   4.489   1.861  16.406 -1.1040  1.8795 -1.5445
  112CHL1   H1B14520   4.655   1.907  16.377 -0.1821 -0.4669 -0.8410
  112CHL1    C214521   4.586   1.918  16.583  0.0197 -1.1699 -0.6450
  112CHL1   H2A14522   4.604   1.809  16.600 -2.9092 -1.6625 -0.1473
  112CHL1   H2B14523   4.485   1.945  16.622 -0.9425 -1.3916 -2.8546
  112CHL1   C2014524   4.398   2.166  15.698  0.0736  0.1730 -0.1064
  112CHL1   H2014525   4.304   2.217  15.728 -0.6472 -0.1863 -1.6489
  112CHL1   C2114526   4.365   2.016  15.690 -0.0042  0.6435  0.4219
  112CHL1  H21A14527   4.452   1.952  15.716  1.6682  1.4461 -2.6319
  112CHL1  H21B14528   4.332   1.983  15.589 -0.6793  1.9506  0.2006
  112CHL1  H21C14529   4.280   2.001  15.760 -2.1468 -1.0165 -2.3184
  112CHL1   C2214530   4.434   2.219  15.554 -0.5331  0.4120 -0.0212
  112CHL1  H22A14531   4.498   2.309  15.565 -1.1806  0.9455 -0.5764
  112CHL1  H22B14532   4.485   2.138  15.497 -1.1684 -0.4710  0.6464
  112CHL1   C2314533   4.314   2.275  15.467  0.7894  0.8643 -0.3152
  112CHL1  H23A14534   4.254   2.182  15.459  1.3484  0.1629  2.5734
  112CHL1  H23B14535   4.241   2.341  15.518  1.7168  2.2414 -0.7332
  112CHL1   C2414536   4.352   2.336  15.335 -0.4121 -0.2016  0.1389
  112CHL1  H24A14537   4.406   2.258  15.279  0.4999  0.0204  0.6955
  112CHL1  H24B14538   4.268   2.370  15.270 -0.8358  1.5362  1.4913
  112CHL1   C2514539   4.432   2.471  15.344  0.5950  0.1165 -0.3427
  112CHL1   H2514540   4.508   2.466  15.425  2.1094  0.7072 -1.6753
  112CHL1   C2614541   4.504   2.500  15.218 -0.6618  0.2977  0.1473
  112CHL1  H26A14542   4.437   2.521  15.132 -0.7810 -1.8508 -0.3576
  112CHL1  H26B14543   4.564   2.592  15.232 -0.5832  0.0772  1.4000
  112CHL1  H26C14544   4.568   2.411  15.198 -1.5149 -0.4141  0.4576
  112CHL1   C2714545   4.330   2.588  15.370 -0.2864  1.0267  0.0377
  112CHL1  H27A14546   4.266   2.556  15.455  0.5560  2.2438  1.1654
  112CHL1  H27B14547   4.396   2.670  15.405  1.7190 -0.4472 -0.0799
  112CHL1  H27C14548   4.273   2.617  15.279 -1.5156 -2.3173 -0.3998
  113CHL1    C314549   0.609   6.055  16.667  0.2397 -0.8223 -0.5231
  113CHL1    H314550   0.584   6.155  16.624  1.4284 -1.4485 -2.8741
  113CHL1    O314551   0.593   6.082  16.806  0.2993  0.3862 -0.7325
  113CHL1   H3'14552   0.638   6.005  16.840  1.3966  0.1751 -2.5286
  113CHL1    C414553   0.521   5.946  16.607 -0.0879  0.0518 -0.5928
  113CHL1   H4A14554   0.545   5.850  16.658 -3.7912  0.0658  1.5246
  113CHL1   H4B14555   0.414   5.961  16.635 -0.5294 -1.6361 -1.2159
  113CHL1    C514556   0.529   5.943  16.453 -0.0768  0.2201  0.1708
  113CHL1    C614557   0.432   5.962  16.367 -0.6778  0.0092  0.3919
  113CHL1    H614558   0.337   5.998  16.410 -0.4202  0.4172  0.6309
  113CHL1    C714559   0.435   5.969  16.212 -0.0989 -0.0089 -0.3958
  113CHL1   H7A14560   0.349   5.914  16.170 -0.1396 -0.5245  0.3460
  113CHL1   H7B14561   0.418   6.074  16.181  0.5794 -0.2864 -1.7661
  113CHL1    C814562   0.578   5.910  16.165 -1.7331 -0.0644 -0.6423
  113CHL1    H814563   0.574   5.801  16.184 -1.3064  0.2146  1.4003
  113CHL1   C1414564   0.606   5.959  16.024  0.2737  0.2442  0.0515
  113CHL1   H1414565   0.620   6.069  16.036 -0.4011  0.6158 -2.1990
  113CHL1   C1514566   0.498   5.944  15.909  0.1924  0.2192  0.2531
  113CHL1  H15A14567   0.467   5.838  15.914  0.6342  0.0975  0.5317
  113CHL1  H15B14568   0.419   6.017  15.935  0.0723  1.1469 -2.4240
  113CHL1   C1614569   0.573   5.977  15.782 -0.1583 -0.7247  0.7591
  113CHL1  H16A14570   0.547   5.911  15.697 -1.2544  2.4008 -1.5136
  113CHL1  H16B14571   0.549   6.076  15.738 -0.4022 -1.8463 -1.7960
  113CHL1   C1714572   0.727   5.970  15.822  0.4435  0.6556  0.6282
  113CHL1   H1714573   0.755   6.075  15.846 -0.2697  1.0816 -0.3256
  113CHL1   C1314574   0.730   5.898  15.960  0.2225 -0.1406  0.4927
  113CHL1   C1814575   0.717   5.739  15.938 -0.0196 -0.6523 -0.3582
  113CHL1  H18A14576   0.630   5.717  15.872 -1.6174  3.8391 -0.0905
  113CHL1  H18B14577   0.813   5.707  15.892  1.0387  1.0085  0.5934
  113CHL1  H18C14578   0.708   5.675  16.028  1.7502 -2.0961 -1.1457
  113CHL1   C1214579   0.850   5.937  16.043 -0.4550 -0.6557 -0.0947
  113CHL1  H12A14580   0.941   5.882  16.009  2.5224  3.7081  0.0269
  113CHL1  H12B14581   0.866   6.046  16.033  1.0352 -0.9917 -2.1866
  113CHL1   C1114582   0.832   5.905  16.197 -0.0927  0.2410 -0.3083
  113CHL1  H11A14583   0.834   5.796  16.219  0.8238  0.8575  3.3573
  113CHL1  H11B14584   0.917   5.955  16.248 -1.0768  0.6858  0.9352
  113CHL1    C914585   0.700   5.956  16.255  0.6354  1.1632 -0.0919
  113CHL1    H914586   0.695   6.067  16.252 -2.9690  1.1218 -1.8091
  113CHL1   C1014587   0.678   5.919  16.410 -0.6124 -0.7131  0.1208
  113CHL1   C1914588   0.701   5.764  16.425  0.1116 -0.3488 -0.3801
  113CHL1  H19A14589   0.808   5.741  16.407  0.9732  3.3884 -0.9483
  113CHL1  H19B14590   0.672   5.729  16.526 -0.5311 -0.3509 -0.5611
  113CHL1  H19C14591   0.631   5.706  16.361 -0.1700  0.5879 -0.9457
  113CHL1    C114592   0.773   6.017  16.486  0.2457  0.8358 -0.3611
  113CHL1   H1A14593   0.875   5.977  16.467  0.9714  2.5355 -0.2035
  113CHL1   H1B14594   0.774   6.117  16.438  0.1738  0.9882 -0.0454
  113CHL1    C214595   0.754   6.034  16.641 -0.3429  0.4610 -0.4167
  113CHL1   H2A14596   0.819   6.109  16.691 -0.0531 -1.8540  3.0300
  113CHL1   H2B14597   0.779   5.937  16.687 -0.2686  1.0969  0.9129
  113CHL1   C2014598   0.834   5.930  15.716 -0.2392  1.2714 -1.1970
  113CHL1   H2014599   0.901   5.857  15.766 -0.5668  1.9791  0.3352
  113CHL1   C2114600   0.921   6.049  15.685 -0.1900 -0.2303 -0.2728
  113CHL1  H21A14601   0.965   6.090  15.778 -0.2307 -0.9988  0.0971
  113CHL1  H21B14602   0.857   6.117  15.625 -1.4067 -1.7712 -0.8006
  113CHL1  H21C14603   1.013   6.022  15.628  0.8041  2.6039 -0.1291
  113CHL1   C2214604   0.784   5.864  15.581  0.3554  0.4670 -0.6712
  113CHL1  H22A14605   0.738   5.769  15.617  0.9245  0.5368  0.2491
  113CHL1  H22B14606   0.729   5.951  15.541 -0.2726  0.6187  0.4847
  113CHL1   C2314607   0.904   5.815  15.489 -0.1904 -0.1858 -0.7812
  113CHL1  H23A14608   0.974   5.900  15.473 -1.2586  0.6191 -1.2384
  113CHL1  H23B14609   0.962   5.743  15.552  0.7061  2.5192  1.7344
  113CHL1   C2414610   0.839   5.767  15.363  0.1324  0.5998  0.5404
  113CHL1  H24A14611   0.762   5.691  15.389  0.3704 -0.2721 -1.1839
  113CHL1  H24B14612   0.786   5.855  15.322 -2.4427 -1.0303  0.1692
  113CHL1   C2514613   0.937   5.719  15.253 -0.0171 -0.0745 -0.5499
  113CHL1   H2514614   1.011   5.657  15.309  0.4142  0.1785 -0.8297
  113CHL1   C2614615   0.864   5.641  15.139  0.8256  0.4668 -0.2880
  113CHL1  H26A14616   0.789   5.570  15.179 -0.0761  1.4893 -0.1183
  113CHL1  H26B14617   0.794   5.713  15.090 -0.3174  0.7079  1.6075
  113CHL1  H26C14618   0.935   5.589  15.072 -2.2988 -1.7630 -2.1436
  113CHL1   C2714619   1.023   5.828  15.178  0.3698  0.3248 -0.0297
  113CHL1  H27A14620   1.066   5.768  15.095 -3.7380 -2.1771 -0.6324
  113CHL1  H27B14621   0.957   5.909  15.141 -0.3403 -0.2618 -0.0741
  113CHL1  H27C14622   1.098   5.878  15.243 -1.0863  3.2612 -0.4705
  114CHL1    C314623   4.289   0.359  16.375  0.5003 -0.0604 -0.0795
  114CHL1    H314624   4.382   0.420  16.373  0.5148 -0.0910 -1.7134
  114CHL1    O314625   4.242   0.323  16.503 -1.4652  0.0203  0.8977
  114CHL1   H3'14626   4.152   0.350  16.484 -0.5594  1.1844 -2.5400
  114CHL1    C414627   4.183   0.442  16.300  0.3362  0.5908  0.0118
  114CHL1   H4A14628   4.081   0.399  16.300  0.3284  0.6049 -0.3765
  114CHL1   H4B14629   4.179   0.536  16.360  0.5363 -0.4393  1.6827
  114CHL1    C514630   4.221   0.472  16.157 -0.8243  0.3998  0.0084
  114CHL1    C614631   4.230   0.596  16.116  0.0654 -0.5459  0.0676
  114CHL1    H614632   4.196   0.677  16.182 -0.0960 -0.3450 -0.2616
  114CHL1    C714633   4.270   0.625  15.978  0.3400 -0.7888  0.5609
  114CHL1   H7A14634   4.222   0.715  15.935  0.6305 -0.4042  1.0326
  114CHL1   H7B14635   4.379   0.647  15.977  0.0812  0.7353  1.9845
  114CHL1    C814636   4.241   0.497  15.887 -0.1295  0.5394  0.0978
  114CHL1    H814637   4.135   0.470  15.868 -0.1565  1.3619 -1.0928
  114CHL1   C1414638   4.298   0.526  15.749 -0.0910  0.0212  0.4422
  114CHL1   H1414639   4.408   0.540  15.756  0.0394  0.1454 -1.3784
  114CHL1   C1514640   4.239   0.644  15.676  0.1547  1.2209  0.7051
  114CHL1  H15A14641   4.130   0.635  15.696 -0.2726  0.1570 -1.7015
  114CHL1  H15B14642   4.269   0.749  15.696 -0.6555  1.1227  2.5704
  114CHL1   C1614643   4.262   0.610  15.525  0.1905  0.3231 -0.0865
  114CHL1  H16A14644   4.158   0.610  15.484  1.5174  2.7564 -4.0031
  114CHL1  H16B14645   4.302   0.698  15.471 -0.4205 -0.1693 -1.4073
  114CHL1   C1714646   4.334   0.477  15.512  0.6001 -0.3762 -0.1123
  114CHL1   H1714647   4.439   0.511  15.522 -0.0491  1.3367  1.5325
  114CHL1   C1314648   4.294   0.402  15.648 -0.9318  0.2676  1.1055
  114CHL1   C1814649   4.147   0.345  15.621  0.0729 -0.2066 -0.3680
  114CHL1  H18A14650   4.083   0.426  15.580 -1.1115 -0.7660  0.3161
  114CHL1  H18B14651   4.143   0.258  15.553  1.2770 -0.9928  0.5173
  114CHL1  H18C14652   4.106   0.302  15.715  0.2444 -1.0670 -0.6765
  114CHL1   C1214653   4.385   0.296  15.708  0.1196 -0.3318  0.1800
  114CHL1  H12A14654   4.374   0.201  15.651 -1.3442  0.0244 -0.1787
  114CHL1  H12B14655   4.493   0.321  15.717  0.3784 -1.1381 -0.6242
  114CHL1   C1114656   4.331   0.255  15.843  0.1126  0.0208  0.3870
  114CHL1  H11A14657   4.233   0.205  15.832  0.0646  0.5065 -1.6721
  114CHL1  H11B14658   4.399   0.180  15.890 -0.6979 -0.9472  0.0453
  114CHL1    C914659   4.320   0.376  15.939  0.2425 -0.0472  0.2230
  114CHL1    H914660   4.422   0.418  15.952  0.0352  0.6486 -0.3444
  114CHL1   C1014661   4.258   0.348  16.075 -0.6896  0.6907 -0.5534
  114CHL1   C1914662   4.122   0.275  16.058 -0.1160  0.2148  0.5420
  114CHL1  H19A14663   4.044   0.335  16.006  0.6460 -0.5868 -1.6372
  114CHL1  H19B14664   4.133   0.178  16.006 -0.2680  0.4866  0.0028
  114CHL1  H19C14665   4.093   0.250  16.163 -0.7288  0.6574  0.4810
  114CHL1    C114666   4.358   0.259  16.155 -0.2421 -0.1477 -0.6804
  114CHL1   H1A14667   4.400   0.171  16.102 -0.6501 -0.8886  0.1979
  114CHL1   H1B14668   4.449   0.323  16.160 -0.1336 -0.3132 -0.4809
  114CHL1    C214669   4.317   0.230  16.298 -0.3248  0.0318  0.8611
  114CHL1   H2A14670   4.395   0.179  16.358  0.4738 -0.6396 -0.6943
  114CHL1   H2B14671   4.233   0.158  16.296 -1.2461  1.0856 -0.7581
  114CHL1   C2014672   4.301   0.397  15.381  0.0895  0.4183 -0.0965
  114CHL1   H2014673   4.197   0.360  15.375  0.5841 -0.8975 -1.4813
  114CHL1   C2114674   4.393   0.271  15.377  0.5114 -0.0150  0.0675
  114CHL1  H21A14675   4.499   0.291  15.403  0.8433 -0.5609 -0.8184
  114CHL1  H21B14676   4.390   0.221  15.278  1.8795  1.0655 -0.5433
  114CHL1  H21C14677   4.342   0.204  15.449 -0.2463 -0.7795 -1.1424
  114CHL1   C2214678   4.332   0.488  15.251 -0.3441  0.0880 -0.6074
  114CHL1  H22A14679   4.276   0.583  15.265  1.6914  1.1126  1.1269
  114CHL1  H22B14680   4.442   0.497  15.249 -0.1894 -1.5910 -2.3529
  114CHL1   C2314681   4.281   0.413  15.126 -0.0632  0.3425  0.2861
  114CHL1  H23A14682   4.367   0.355  15.086 -1.6182 -1.3657 -0.7070
  114CHL1  H23B14683   4.203   0.335  15.137  2.0079 -2.0761 -0.9997
  114CHL1   C2414684   4.252   0.514  15.007  0.9655 -0.3368 -0.1553
  114CHL1  H24A14685   4.334   0.588  15.003  0.5465  0.1354 -0.1694
  114CHL1  H24B14686   4.261   0.461  14.909  0.7002  2.6815 -1.9209
  114CHL1   C2514687   4.115   0.590  15.018 -0.1401  0.2808 -0.5553
  114CHL1   H2514688   4.118   0.652  15.110 -0.5145 -1.3495  0.5987
  114CHL1   C2614689   4.098   0.687  14.900 -0.0834  0.1242  0.9769
  114CHL1  H26A14690   4.199   0.730  14.881  0.2699 -1.4410 -1.0880
  114CHL1  H26B14691   4.056   0.640  14.808 -3.7191  2.9856  0.9639
  114CHL1  H26C14692   4.026   0.768  14.923 -1.8935 -0.8947 -0.8348
  114CHL1   C2714693   3.996   0.495  15.036  0.1409  0.5470 -0.2028
  114CHL1  H27A14694   3.907   0.561  15.035  1.6577  2.7842  1.8454
  114CHL1  H27B14695   3.981   0.403  14.975 -2.2456 -0.4810  1.7779
  114CHL1  H27C14696   4.001   0.448  15.136 -2.5182 -2.5484 -1.3511
  115CHL1    C314697   1.539   2.023  17.039  0.6295  0.1861  0.0257
  115CHL1    H314698   1.434   2.055  17.024  0.5411  0.3621  0.9923
  115CHL1    O314699   1.562   1.985  17.169 -0.5716  0.1050  0.2064
  115CHL1   H3'14700   1.635   2.039  17.200 -0.5500 -0.7134  1.6666
  115CHL1    C414701   1.582   1.911  16.935 -0.0327  0.6926  0.5371
  115CHL1   H4A14702   1.687   1.884  16.957 -0.6930 -1.1736  1.6263
  115CHL1   H4B14703   1.524   1.821  16.964 -0.0609  0.9708  1.3717
  115CHL1    C514704   1.560   1.950  16.793 -0.6167 -0.0313  0.3134
  115CHL1    C614705   1.478   1.886  16.709  0.2533  0.0742 -0.2192
  115CHL1    H614706   1.425   1.799  16.751  3.8177 -0.4904  3.7305
  115CHL1    C714707   1.460   1.909  16.566  0.5253  0.5647 -0.3399
  115CHL1   H7A14708   1.494   1.814  16.521  1.0381 -0.3660  1.8820
  115CHL1   H7B14709   1.357   1.944  16.541  0.6969  0.5918 -1.0389
  115CHL1    C814710   1.561   2.014  16.511 -0.2234  0.2084 -0.4169
  115CHL1    H814711   1.661   1.965  16.511  1.3792  3.0643 -2.8742
  115CHL1   C1414712   1.516   2.059  16.377  0.2431 -0.7960  0.4334
  115CHL1   H1414713   1.423   2.118  16.393  0.5907 -0.8852  3.3325
  115CHL1   C1514714   1.481   1.957  16.275 -0.1551  0.9350 -0.1607
  115CHL1  H15A14715   1.550   1.872  16.254 -0.9800  0.0421  0.6608
  115CHL1  H15B14716   1.384   1.904  16.288 -0.1614  0.2643 -2.4281
  115CHL1   C1614717   1.478   2.040  16.141  0.2153 -0.2431 -0.7649
  115CHL1  H16A14718   1.539   1.993  16.061  0.4414 -1.2011 -0.0380
  115CHL1  H16B14719   1.371   2.046  16.110 -0.1052 -2.6474 -0.2705
  115CHL1   C1714720   1.535   2.183  16.171  0.8681 -0.5606 -0.0894
  115CHL1   H1714721   1.448   2.252  16.171  0.9571 -0.3477 -3.1146
  115CHL1   C1314722   1.610   2.174  16.311  0.2022 -0.5652  1.3204
  115CHL1   C1814723   1.756   2.125  16.288  0.0252 -0.0643 -0.5557
  115CHL1  H18A14724   1.833   2.200  16.258 -0.3876  1.4162  1.7854
  115CHL1  H18B14725   1.793   2.072  16.379 -0.1031 -0.2090 -0.5871
  115CHL1  H18C14726   1.770   2.050  16.208  2.6241  0.3944 -0.6264
  115CHL1   C1214727   1.606   2.293  16.413 -0.0381  0.5205  0.8389
  115CHL1  H12A14728   1.665   2.374  16.364 -1.4001  0.4909 -0.9517
  115CHL1  H12B14729   1.500   2.325  16.417  0.5088  2.7891 -0.7750
  115CHL1   C1114730   1.657   2.251  16.554 -0.6571  0.1256  0.4620
  115CHL1  H11A14731   1.768   2.246  16.557 -0.6573 -0.8983 -0.4524
  115CHL1  H11B14732   1.629   2.333  16.624  0.4097  0.6062  0.3333
  115CHL1    C914733   1.587   2.130  16.614  0.0220  0.3632  0.2021
  115CHL1    H914734   1.490   2.176  16.641  0.5893  3.2800 -2.1496
  115CHL1   C1014735   1.638   2.077  16.751 -0.3070 -0.2743  0.0158
  115CHL1   C1914736   1.794   2.038  16.732  0.3810 -0.0101  0.0535
  115CHL1  H19A14737   1.836   1.985  16.820  1.8094 -0.5407 -0.9119
  115CHL1  H19B14738   1.805   1.977  16.640 -3.0265  0.2411 -0.6528
  115CHL1  H19C14739   1.853   2.130  16.714  1.4458 -1.1934 -3.3615
  115CHL1    C114740   1.623   2.182  16.868  0.4261 -0.5254 -0.1859
  115CHL1   H1A14741   1.689   2.268  16.844  0.0388 -0.5600 -1.4259
  115CHL1   H1B14742   1.515   2.206  16.867 -0.2022 -2.8659  1.7248
  115CHL1    C214743   1.639   2.133  17.016  0.8642 -0.3486 -0.0096
  115CHL1   H2A14744   1.619   2.218  17.085 -1.2076  1.0372 -2.1401
  115CHL1   H2B14745   1.741   2.092  17.034  0.7192 -2.0780 -2.6340
  115CHL1   C2014746   1.605   2.229  16.040 -0.4995 -0.6632  0.1491
  115CHL1   H2014747   1.685   2.154  16.019  1.2490  0.6488  1.8598
  115CHL1   C2114748   1.678   2.362  16.070  0.4081 -0.6696 -0.3150
  115CHL1  H21A14749   1.600   2.442  16.077 -0.1464 -1.1172 -1.1725
  115CHL1  H21B14750   1.749   2.374  15.985  2.1220 -1.2436  0.9879
  115CHL1  H21C14751   1.745   2.357  16.158  1.8122  0.1235 -1.3008
  115CHL1   C2214752   1.515   2.251  15.922  0.7204 -0.1524  0.3740
  115CHL1  H22A14753   1.459   2.155  15.910 -0.8795  0.4641  2.2506
  115CHL1  H22B14754   1.430   2.317  15.949 -1.6904 -3.1546  0.7010
  115CHL1   C2314755   1.589   2.284  15.793  0.2477  0.1088 -0.5666
  115CHL1  H23A14756   1.645   2.380  15.798  1.8128 -0.8216  1.4020
  115CHL1  H23B14757   1.676   2.214  15.785  1.7201  1.9434 -1.5117
  115CHL1   C2414758   1.502   2.278  15.660  0.0539 -0.4303 -0.2529
  115CHL1  H24A14759   1.465   2.175  15.641  2.1661 -0.8734 -2.5157
  115CHL1  H24B14760   1.413   2.337  15.692  0.1189 -1.7345  2.6955
  115CHL1   C2514761   1.585   2.332  15.538  0.1370  0.3268 -0.2648
  115CHL1   H2514762   1.620   2.436  15.556 -0.1165  0.5400 -0.9800
  115CHL1   C2614763   1.717   2.253  15.510 -0.3894  0.7080 -0.2464
  115CHL1  H26A14764   1.693   2.151  15.473  1.8239  0.2600 -0.6186
  115CHL1  H26B14765   1.776   2.314  15.439 -0.1060  0.2866 -0.3786
  115CHL1  H26C14766   1.777   2.238  15.603 -2.7172  1.7772  1.5213
  115CHL1   C2714767   1.501   2.335  15.411  0.4251 -0.0535  0.2895
  115CHL1  H27A14768   1.451   2.236  15.399 -0.1936  0.0192  1.9261
  115CHL1  H27B14769   1.422   2.413  15.423 -0.4437 -1.0842  1.6327
  115CHL1  H27C14770   1.568   2.346  15.324 -0.5588 -1.9629 -0.7928
  116CHL1    C314771   2.552   1.108  16.737 -0.6718 -0.4473  0.1071
  116CHL1    H314772   2.442   1.113  16.753 -0.8771 -1.5155 -0.8871
  116CHL1    O314773   2.618   1.109  16.868  0.5908 -0.2568 -0.1408
  116CHL1   H3'14774   2.711   1.107  16.845  1.3629 -3.0516  2.4983
  116CHL1    C414775   2.588   0.983  16.654  0.0378  0.0488 -0.2324
  116CHL1   H4A14776   2.699   0.973  16.652 -0.0375 -0.8980 -1.3195
  116CHL1   H4B14777   2.550   0.891  16.705 -2.2271  0.8467 -0.3622
  116CHL1    C514778   2.534   0.983  16.510  0.5484  0.1922  0.1684
  116CHL1    C614779   2.456   0.885  16.464  0.5458  0.2504 -0.3147
  116CHL1    H614780   2.429   0.797  16.523  1.2518  0.1290 -0.1609
  116CHL1    C714781   2.398   0.882  16.326  0.0517 -0.1274 -0.9417
  116CHL1   H7A14782   2.400   0.774  16.298 -0.0407 -1.0759  2.3101
  116CHL1   H7B14783   2.290   0.906  16.333 -0.4367 -1.2050 -3.5171
  116CHL1    C814784   2.467   0.986  16.235 -0.2707 -0.1662  0.7268
  116CHL1    H814785   2.566   0.946  16.205 -0.3383 -1.3802  1.9887
  116CHL1   C1414786   2.394   0.991  16.097  0.0390  0.9854  0.1901
  116CHL1   H1414787   2.292   1.033  16.114 -0.5243  0.2327 -1.1747
  116CHL1   C1514788   2.368   0.864  16.018 -0.1071 -0.0098 -0.4893
  116CHL1  H15A14789   2.456   0.796  16.020 -0.4678 -0.4610  0.7698
  116CHL1  H15B14790   2.286   0.811  16.070 -0.4113  1.2809  0.4116
  116CHL1   C1614791   2.330   0.908  15.875  0.8166 -0.2300 -0.7270
  116CHL1  H16A14792   2.381   0.852  15.794 -2.3747 -2.3410 -1.4635
  116CHL1  H16B14793   2.221   0.898  15.860  0.6219  0.3935  0.2257
  116CHL1   C1714794   2.357   1.072  15.869 -0.1041 -0.1469  0.2239
  116CHL1   H1714795   2.264   1.125  15.901 -0.8640 -0.0323 -1.9618
  116CHL1   C1314796   2.456   1.091  15.992  0.3656 -0.5386  0.3956
  116CHL1   C1814797   2.595   1.041  15.953 -0.0344 -0.0516 -0.5592
  116CHL1  H18A14798   2.595   0.946  15.895 -0.5773 -1.6005  1.8700
  116CHL1  H18B14799   2.647   1.120  15.894  2.8880 -1.2442  0.2377
  116CHL1  H18C14800   2.659   1.037  16.043 -2.8348 -0.2468  1.5519
  116CHL1   C1214801   2.458   1.230  16.057  0.0844  0.4756 -0.0881
  116CHL1  H12A14802   2.518   1.297  15.991 -0.8643 -0.4702 -1.9696
  116CHL1  H12B14803   2.351   1.257  16.069  0.2239  0.6735  0.7738
  116CHL1   C1114804   2.532   1.233  16.197  0.2524  0.5690  0.0502
  116CHL1  H11A14805   2.638   1.212  16.171 -0.1075  1.7729 -2.6375
  116CHL1  H11B14806   2.511   1.334  16.239 -2.8889 -0.6507  1.7497
  116CHL1    C914807   2.474   1.125  16.295 -0.9654 -0.3101 -0.7784
  116CHL1    H914808   2.371   1.144  16.332  0.2535  0.4199  2.5325
  116CHL1   C1014809   2.565   1.112  16.428  0.6547 -0.5084 -0.0475
  116CHL1   C1914810   2.714   1.101  16.389  0.4441  0.4441 -0.8832
  116CHL1  H19A14811   2.783   1.075  16.472 -2.4325 -0.0190  1.5319
  116CHL1  H19B14812   2.736   1.018  16.318 -0.4911 -0.4690 -0.1476
  116CHL1  H19C14813   2.745   1.197  16.343 -0.1768  1.6368  1.0501
  116CHL1    C114814   2.535   1.231  16.515  0.1024  0.3866 -0.7032
  116CHL1   H1A14815   2.572   1.321  16.461 -1.3234  0.7201 -1.1620
  116CHL1   H1B14816   2.427   1.255  16.527  0.0593 -0.4112  0.6887
  116CHL1    C214817   2.598   1.231  16.654 -0.0320 -0.1613  0.3821
  116CHL1   H2A14818   2.588   1.328  16.708  0.6431  1.2433 -1.8716
  116CHL1   H2B14819   2.707   1.219  16.640  0.2650  0.7468  1.7562
  116CHL1   C2014820   2.398   1.115  15.727 -0.2590 -0.1127 -0.0833
  116CHL1   H2014821   2.482   1.049  15.698  1.6150  1.9513  0.4294
  116CHL1   C2114822   2.452   1.263  15.728 -1.0227  0.6139  0.2857
  116CHL1  H21A14823   2.530   1.266  15.807  0.9778 -2.0729 -1.4209
  116CHL1  H21B14824   2.371   1.336  15.753 -1.8049 -0.0254 -0.3121
  116CHL1  H21C14825   2.498   1.287  15.630  1.1607 -0.5891  0.9549
  116CHL1   C2214826   2.274   1.103  15.632 -0.4958  0.1938  0.5554
  116CHL1  H22A14827   2.256   0.994  15.619  0.1581  0.3930 -3.2697
  116CHL1  H22B14828   2.190   1.156  15.682  0.8755  1.8275  1.2005
  116CHL1   C2314829   2.288   1.150  15.482 -0.8662 -0.0218 -0.3050
  116CHL1  H23A14830   2.186   1.154  15.437 -1.2477 -2.1206  0.2327
  116CHL1  H23B14831   2.329   1.251  15.500  3.4478 -1.3864 -1.2466
  116CHL1   C2414832   2.369   1.044  15.404  0.3334  0.2520 -0.4910
  116CHL1  H24A14833   2.464   1.029  15.460 -1.0988 -2.9474  1.3326
  116CHL1  H24B14834   2.321   0.944  15.409  1.3882 -0.2135  1.9723
  116CHL1   C2514835   2.400   1.081  15.257 -0.8740 -0.4270  0.1716
  116CHL1   H2514836   2.451   0.998  15.203 -0.9656  0.3719 -1.1864
  116CHL1   C2614837   2.271   1.102  15.187  0.4745 -0.1958  0.7300
  116CHL1  H26A14838   2.277   1.083  15.078 -0.1058 -0.7702  0.7927
  116CHL1  H26B14839   2.198   1.027  15.224  0.0274  1.1226  2.6884
  116CHL1  H26C14840   2.222   1.201  15.194  1.3195  0.5163 -2.0605
  116CHL1   C2714841   2.505   1.193  15.235 -0.2373  0.2366 -0.4047
  116CHL1  H27A14842   2.472   1.282  15.294 -1.7647 -0.1387 -0.6473
  116CHL1  H27B14843   2.594   1.158  15.291 -0.4238  1.7141  0.9075
  116CHL1  H27C14844   2.528   1.208  15.127 -1.1977 -0.8723 -0.7832
  117CHL1    C314845   4.684   1.513  16.628  0.2588  0.3454 -0.8474
  117CHL1    H314846   4.699   1.623  16.618  1.7879  0.3672  1.1632
  117CHL1    O314847   4.675   1.489  16.767  0.4075  0.1451 -0.4215
  117CHL1   H3'14848   4.679   1.394  16.781 -1.7010  0.0165 -0.3105
  117CHL1    C414849   4.559   1.466  16.555 -0.1080  0.4108 -0.0333
  117CHL1   H4A14850   4.545   1.357  16.571 -5.1596  0.9153  0.5481
  117CHL1   H4B14851   4.469   1.516  16.595 -0.4138 -0.9163  0.9891
  117CHL1    C514852   4.567   1.483  16.404  0.9578 -1.3291  0.8288
  117CHL1    C614853   4.474   1.551  16.341  0.0721 -0.3782 -0.6288
  117CHL1    H614854   4.389   1.576  16.406  0.3772  0.1991 -0.4379
  117CHL1    C714855   4.472   1.585  16.196  0.2240  0.0449 -0.0891
  117CHL1   H7A14856   4.371   1.562  16.156  0.1428  0.3702 -0.0735
  117CHL1   H7B14857   4.492   1.693  16.186 -1.0676  0.1744 -1.7279
  117CHL1    C814858   4.574   1.506  16.113  0.6196  0.1149  0.2182
  117CHL1    H814859   4.527   1.407  16.099 -4.1583  2.3147 -1.3578
  117CHL1   C1414860   4.587   1.570  15.972 -0.5489 -0.8834  0.0194
  117CHL1   H1414861   4.616   1.672  16.006  2.0878 -1.2819 -0.8081
  117CHL1   C1514862   4.471   1.586  15.873 -0.1691 -0.0638  0.5068
  117CHL1  H15A14863   4.410   1.494  15.867  0.0223 -0.2142  0.7919
  117CHL1  H15B14864   4.393   1.661  15.894 -0.9220 -0.4128 -0.9318
  117CHL1   C1614865   4.533   1.617  15.735  0.0428  0.4446 -0.6771
  117CHL1  H16A14866   4.494   1.552  15.654  0.5358 -0.0356 -0.5346
  117CHL1  H16B14867   4.515   1.724  15.708  0.3011  0.7573  0.3512
  117CHL1   C1714868   4.688   1.592  15.755 -0.5591 -0.2041 -0.4797
  117CHL1   H1714869   4.717   1.699  15.764 -0.5724 -0.2233 -0.2113
  117CHL1   C1314870   4.701   1.513  15.886 -0.0577 -0.7501 -0.8941
  117CHL1   C1814871   4.654   1.371  15.849 -0.7660 -0.5304 -0.3227
  117CHL1  H18A14872   4.557   1.360  15.796 -1.1158 -0.4982  0.2924
  117CHL1  H18B14873   4.727   1.338  15.773 -0.1710  0.5815 -0.2551
  117CHL1  H18C14874   4.655   1.314  15.945  0.2481  3.0164  1.9729
  117CHL1   C1214875   4.834   1.512  15.966 -0.3987  0.1045  0.4166
  117CHL1  H12A14876   4.922   1.472  15.911  0.1263  0.7664  0.7598
  117CHL1  H12B14877   4.867   1.615  15.992  1.3059 -0.0565 -0.9068
  117CHL1   C1114878   4.822   1.438  16.096  0.2185  0.4369 -0.6894
  117CHL1  H11A14879   4.807   1.330  16.077  1.0014  0.2724 -0.3970
  117CHL1  H11B14880   4.917   1.448  16.153 -0.0288  0.0206 -0.1934
  117CHL1    C914881   4.712   1.490  16.188  0.2330  0.3971 -0.3448
  117CHL1    H914882   4.738   1.597  16.199  1.5289  0.1015 -0.3714
  117CHL1   C1014883   4.700   1.432  16.327 -0.1557  0.8956  0.1927
  117CHL1   C1914884   4.702   1.285  16.322  0.2787  0.5553  0.2226
  117CHL1  H19A14885   4.789   1.245  16.267 -0.0420  1.1592 -0.7503
  117CHL1  H19B14886   4.695   1.235  16.422  1.3679  0.2903  0.1717
  117CHL1  H19C14887   4.611   1.244  16.272  0.5274  0.4969 -0.1789
  117CHL1    C114888   4.823   1.472  16.414 -0.3203  0.1460  0.2476
  117CHL1   H1A14889   4.912   1.419  16.375 -1.9919 -0.9125 -2.4413
  117CHL1   H1B14890   4.850   1.579  16.403  0.3528 -0.0444  0.0018
  117CHL1    C214891   4.807   1.447  16.568  0.0798 -0.2808 -0.0848
  117CHL1   H2A14892   4.901   1.480  16.618  0.1035 -2.5996  1.5560
  117CHL1   H2B14893   4.793   1.340  16.593 -0.8373  0.3419  2.2641
  117CHL1   C2014894   4.759   1.554  15.624 -0.2138 -0.0907  0.1505
  117CHL1   H2014895   4.730   1.450  15.598  0.0251  0.3263 -2.0641
  117CHL1   C2114896   4.909   1.575  15.651 -0.0011  0.4109  0.8187
  117CHL1  H21A14897   4.965   1.571  15.554 -1.7035 -1.3748 -0.1626
  117CHL1  H21B14898   4.959   1.497  15.712  1.6404  0.8630  0.1348
  117CHL1  H21C14899   4.938   1.671  15.700  3.1335 -0.1838  0.3911
  117CHL1   C2214900   4.715   1.644  15.506  0.3082  0.2812  0.3902
  117CHL1  H22A14901   4.604   1.639  15.503  0.1398  2.7548 -2.8182
  117CHL1  H22B14902   4.744   1.751  15.511 -3.1117  1.3105  0.6127
  117CHL1   C2314903   4.772   1.590  15.375 -0.4576 -0.5069  0.5231
  117CHL1  H23A14904   4.882   1.574  15.376 -0.7276 -2.6756  1.6815
  117CHL1  H23B14905   4.734   1.486  15.377 -0.1159 -0.6239  1.0025
  117CHL1   C2414906   4.711   1.653  15.256  0.3085 -0.3684  0.3643
  117CHL1  H24A14907   4.601   1.639  15.251 -0.3624  3.6696  0.3021
  117CHL1  H24B14908   4.733   1.762  15.269 -0.4278 -0.2907  1.0877
  117CHL1   C2514909   4.783   1.610  15.134 -0.2104  0.4755 -0.5140
  117CHL1   H2514910   4.893   1.615  15.144 -0.0395 -1.5743 -0.7883
  117CHL1   C2614911   4.762   1.458  15.102 -0.0938  0.0121 -0.2167
  117CHL1  H26A14912   4.809   1.427  15.006 -0.2285 -2.7357  0.5139
  117CHL1  H26B14913   4.801   1.396  15.186 -0.3115 -1.6611 -1.3102
  117CHL1  H26C14914   4.655   1.430  15.101  0.2771 -1.6781  1.1252
  117CHL1   C2714915   4.764   1.692  15.001  0.0346  0.6434  0.5353
  117CHL1  H27A14916   4.810   1.632  14.920 -0.0049 -0.5970  1.4101
  117CHL1  H27B14917   4.654   1.703  14.985  0.0386  0.4427  0.3648
  117CHL1  H27C14918   4.807   1.793  15.019  1.3240 -0.2162  2.5280
  118CHL1    C314919   6.705   2.679  17.283  0.1261  1.0046 -0.5171
  118CHL1    H314920   6.611   2.733  17.261 -1.2537 -1.7321 -1.9449
  118CHL1    O314921   6.703   2.667  17.424  0.0317  0.0635  0.9231
  118CHL1   H3'14922   6.785   2.623  17.448 -0.7627 -2.0586 -0.0233
  118CHL1    C414923   6.699   2.544  17.217 -0.7545  0.3811  0.5320
  118CHL1   H4A14924   6.784   2.481  17.247 -0.4627 -0.3171 -1.6014
  118CHL1   H4B14925   6.607   2.487  17.242 -0.6116 -0.8698 -1.5309
  118CHL1    C514926   6.699   2.553  17.060 -0.2521 -0.3896  0.3845
  118CHL1    C614927   6.600   2.505  16.991 -0.1231  0.3457  0.0908
  118CHL1    H614928   6.519   2.447  17.039  0.1501 -1.1691 -1.1715
  118CHL1    C714929   6.585   2.497  16.844 -0.0094 -0.8779  0.3234
  118CHL1   H7A14930   6.578   2.391  16.810 -1.5101 -0.5676 -0.3929
  118CHL1   H7B14931   6.492   2.549  16.815 -0.5833 -1.4648  1.0607
  118CHL1    C814932   6.712   2.549  16.774  0.0676 -0.2957  0.5570
  118CHL1    H814933   6.786   2.467  16.770  0.6395  0.2655 -2.4684
  118CHL1   C1414934   6.676   2.582  16.631  0.7419 -0.1098 -0.3431
  118CHL1   H1414935   6.610   2.671  16.636  0.2296 -0.5508  1.3859
  118CHL1   C1514936   6.613   2.482  16.540  0.3648 -0.2240 -0.2181
  118CHL1  H15A14937   6.670   2.387  16.541  0.3791 -0.2164 -0.4177
  118CHL1  H15B14938   6.508   2.461  16.571  0.2093 -0.0600 -0.6290
  118CHL1   C1614939   6.619   2.547  16.403 -0.4261  0.6264 -0.2967
  118CHL1  H16A14940   6.637   2.459  16.338 -1.2632 -0.1837  0.5414
  118CHL1  H16B14941   6.518   2.590  16.385 -2.1404 -1.9374  2.3376
  118CHL1   C1714942   6.728   2.654  16.412 -0.4619 -0.0505 -0.0719
  118CHL1   H1714943   6.675   2.750  16.430 -1.6253 -0.5973 -0.4651
  118CHL1   C1314944   6.798   2.630  16.549  0.3490  0.2458  0.2489
  118CHL1   C1814945   6.915   2.528  16.542 -0.8311  0.9335  0.4229
  118CHL1  H18A14946   6.939   2.489  16.644  0.2255  0.5728  0.0520
  118CHL1  H18B14947   6.882   2.442  16.480 -1.5143  1.5803 -0.1107
  118CHL1  H18C14948   7.006   2.573  16.496 -1.0789  0.2024 -0.8261
  118CHL1   C1214949   6.838   2.763  16.623 -0.5182  0.6645 -0.3907
  118CHL1  H12A14950   6.919   2.821  16.574  2.6654 -1.3326  2.1013
  118CHL1  H12B14951   6.747   2.826  16.623  0.2746  1.8381  0.3874
  118CHL1   C1114952   6.885   2.738  16.768 -0.2327  0.5730 -0.3267
  118CHL1  H11A14953   6.973   2.671  16.759 -1.5396 -1.2560 -0.2350
  118CHL1  H11B14954   6.904   2.840  16.807  0.7044 -0.2110  1.3445
  118CHL1    C914955   6.774   2.676  16.849  0.6683 -0.2423 -0.2996
  118CHL1    H914956   6.690   2.749  16.847  0.2852 -0.5735  1.6609
  118CHL1   C1014957   6.803   2.644  17.000 -0.7480 -0.3232  0.2931
  118CHL1   C1914958   6.951   2.589  17.009  0.3026  0.2399 -0.0806
  118CHL1  H19A14959   6.965   2.502  16.941  1.7753  0.5697 -0.2387
  118CHL1  H19B14960   7.020   2.663  16.964  2.3294 -1.3445  0.2701
  118CHL1  H19C14961   6.977   2.558  17.113 -1.5796 -0.4352  0.2359
  118CHL1    C114962   6.792   2.778  17.074  0.2348 -1.3487 -0.4153
  118CHL1   H1A14963   6.868   2.851  17.038 -0.7181  0.2077  0.5661
  118CHL1   H1B14964   6.694   2.827  17.052  0.7300  0.1650  0.5486
  118CHL1    C214965   6.813   2.769  17.226 -0.8814 -0.7309  0.6061
  118CHL1   H2A14966   6.817   2.869  17.274 -1.9654 -0.8310  0.9323
  118CHL1   H2B14967   6.916   2.732  17.243 -0.5788 -0.9772 -1.4565
  118CHL1   C2014968   6.818   2.664  16.288 -1.4899 -0.1613 -0.2109
  118CHL1   H2014969   6.874   2.569  16.274 -1.8402 -0.8422  2.5334
  118CHL1   C2114970   6.918   2.782  16.305  0.0766  0.5174 -0.0899
  118CHL1  H21A14971   6.879   2.878  16.345  3.2467  1.8862 -0.0208
  118CHL1  H21B14972   6.969   2.804  16.209  2.6615  0.1354  1.1127
  118CHL1  H21C14973   6.997   2.756  16.379 -2.2019  2.5113  3.3241
  118CHL1   C2214974   6.734   2.683  16.162 -0.0267  0.2136  0.5173
  118CHL1  H22A14975   6.656   2.604  16.154  0.9588 -0.6689 -0.9482
  118CHL1  H22B14976   6.675   2.776  16.170 -1.3809 -0.7819  3.6378
  118CHL1   C2314977   6.813   2.681  16.026 -0.2798  0.1281 -0.8773
  118CHL1  H23A14978   6.888   2.763  16.030  0.0736 -0.2219  0.3631
  118CHL1  H23B14979   6.874   2.589  16.035  1.3534  1.2042 -0.3917
  118CHL1   C2414980   6.720   2.682  15.903 -0.0671  0.0036  0.0340
  118CHL1  H24A14981   6.643   2.602  15.905  0.7397 -0.7926 -0.2577
  118CHL1  H24B14982   6.656   2.772  15.890  1.7977  1.1763 -1.4534
  118CHL1   C2514983   6.793   2.660  15.773 -0.8211  0.3698  0.0623
  118CHL1   H2514984   6.818   2.554  15.751  1.3861  0.6085  1.1539
  118CHL1   C2614985   6.706   2.696  15.648 -0.4137 -0.0039  0.1844
  118CHL1  H26A14986   6.627   2.618  15.643  0.2440 -0.7296  0.9421
  118CHL1  H26B14987   6.657   2.792  15.675  0.5361 -0.3844  3.8558
  118CHL1  H26C14988   6.777   2.713  15.564  1.3505  1.6247  1.8932
  118CHL1   C2714989   6.929   2.733  15.771  0.6769  0.2215 -0.4151
  118CHL1  H27A14990   6.915   2.843  15.776 -0.8668 -0.0219  1.9084
  118CHL1  H27B14991   7.008   2.709  15.844 -0.6978 -0.0018  1.0550
  118CHL1  H27C14992   6.967   2.710  15.669 -1.0088 -0.6980 -0.8774
  119CHL1    C314993   1.037   1.481  16.812  0.0302  0.6467  0.2339
  119CHL1    H314994   1.060   1.427  16.718 -1.8562  0.9489 -0.4579
  119CHL1    O314995   1.089   1.423  16.933 -0.0277 -0.5198 -0.0782
  119CHL1   H3'14996   1.020   1.437  16.999 -0.6199 -1.6750 -0.4260
  119CHL1    C414997   1.084   1.624  16.798  0.4064  0.0995  0.4407
  119CHL1   H4A14998   1.048   1.678  16.888 -2.6017 -0.3612 -0.3601
  119CHL1   H4B14999   1.194   1.635  16.803  0.1630  2.9213  1.1283
  119CHL1    C515000   1.032   1.682  16.667 -0.3219  0.1031  0.1223
  119CHL1    C615001   1.112   1.728  16.571 -0.3033  0.1842 -0.2421
  119CHL1    H615002   1.218   1.710  16.590 -0.7933 -1.0698  1.5277
  119CHL1    C715003   1.067   1.790  16.447 -0.2519 -0.2359  0.1126
  119CHL1   H7A15004   1.127   1.879  16.415  0.0741 -0.7086 -0.6359
  119CHL1   H7B15005   1.082   1.705  16.377  1.0606 -1.4838  1.8349
  119CHL1    C815006   0.914   1.828  16.454 -0.0094  0.1326 -0.2667
  119CHL1    H815007   0.901   1.914  16.523 -1.8075 -0.0302 -0.3785
  119CHL1   C1415008   0.864   1.865  16.320 -0.4923  0.1181  0.6561
  119CHL1   H1415009   0.882   1.772  16.263  0.5718  1.5493 -1.4728
  119CHL1   C1515010   0.942   1.972  16.241  0.4409  0.5287  0.5195
  119CHL1  H15A15011   0.959   2.067  16.297 -1.6961  1.2398  0.0262
  119CHL1  H15B15012   1.038   1.929  16.203  0.4285  0.2978  0.7422
  119CHL1   C1615013   0.858   2.009  16.121  0.4390  0.2440  0.2254
  119CHL1  H16A15014   0.845   2.119  16.127  0.2664  0.1602  1.5873
  119CHL1  H16B15015   0.900   1.972  16.024 -0.0953  0.4651 -0.0926
  119CHL1   C1715016   0.718   1.940  16.142  0.0429 -0.7200  0.5675
  119CHL1   H1715017   0.716   1.845  16.085  2.2060 -1.2855  1.3556
  119CHL1   C1315018   0.715   1.895  16.292  0.5602 -0.1054 -0.4405
  119CHL1   C1815019   0.666   2.022  16.375  0.2775  0.3882  0.2246
  119CHL1  H18A15020   0.717   2.114  16.339 -0.3257  0.1579 -1.3337
  119CHL1  H18B15021   0.555   2.030  16.367  0.2384  1.7609  1.6013
  119CHL1  H18C15022   0.688   2.004  16.482  0.5135  1.6988  0.4175
  119CHL1   C1215023   0.642   1.758  16.331  0.1175 -0.4018 -0.4861
  119CHL1  H12A15024   0.534   1.780  16.346  0.9160  2.0560  2.9162
  119CHL1  H12B15025   0.677   1.679  16.260 -0.5554 -0.0946 -1.1736
  119CHL1   C1115026   0.673   1.721  16.480 -0.1692 -0.0317 -0.1576
  119CHL1  H11A15027   0.612   1.790  16.542 -2.0355 -1.0239 -0.8127
  119CHL1  H11B15028   0.634   1.619  16.503 -1.1636 -0.1185 -2.0343
  119CHL1    C915029   0.830   1.708  16.505 -0.5945  0.1729 -0.5094
  119CHL1    H915030   0.864   1.624  16.442  0.5218  1.8021 -2.1830
  119CHL1   C1015031   0.876   1.673  16.648 -0.3100  0.2374  0.7297
  119CHL1   C1915032   0.806   1.771  16.748  0.6158 -0.0476 -0.4301
  119CHL1  H19A15033   0.854   1.763  16.848  0.9199  3.3431 -0.2125
  119CHL1  H19B15034   0.817   1.875  16.713  2.2904  0.6105  1.8596
  119CHL1  H19C15035   0.696   1.752  16.751  0.2156  2.1196 -0.0157
  119CHL1    C115036   0.829   1.531  16.684 -0.2492  0.6836 -0.2924
  119CHL1   H1A15037   0.718   1.524  16.686 -0.2264  0.2191 -0.4862
  119CHL1   H1B15038   0.855   1.460  16.603 -2.8783 -1.3738  0.5370
  119CHL1    C215039   0.883   1.477  16.818 -0.4561 -0.0865 -0.0158
  119CHL1   H2A15040   0.861   1.368  16.824  1.2766 -0.4178  0.8672
  119CHL1   H2B15041   0.841   1.522  16.911  0.2948  1.1318 -0.2500
  119CHL1   C2015042   0.595   2.020  16.078 -0.6194 -0.2144  0.0748
  119CHL1   H2015043   0.599   2.111  16.143  0.4632 -0.1148 -0.1038
  119CHL1   C2115044   0.465   1.940  16.096 -0.4524  0.0088  0.0547
  119CHL1  H21A15045   0.455   1.914  16.203  0.3448 -0.2701  0.0675
  119CHL1  H21B15046   0.460   1.851  16.029 -0.0792  0.3621 -0.4528
  119CHL1  H21C15047   0.383   2.013  16.078 -0.6172 -0.2567 -0.3049
  119CHL1   C2215048   0.626   2.041  15.928  0.9057 -0.2551  0.0340
  119CHL1  H22A15049   0.734   2.068  15.917  0.5106  2.0004  1.2160
  119CHL1  H22B15050   0.604   1.949  15.868  0.4091  1.4849 -2.6375
  119CHL1   C2315051   0.544   2.151  15.851 -0.1745  0.0069 -0.3035
  119CHL1  H23A15052   0.433   2.153  15.866 -0.1087  0.3399  0.1688
  119CHL1  H23B15053   0.586   2.245  15.892  0.9135 -1.0611  1.1558
  119CHL1   C2415054   0.580   2.162  15.699 -0.0905  0.0377 -0.8243
  119CHL1  H24A15055   0.690   2.170  15.689 -0.1415  0.0809 -1.4441
  119CHL1  H24B15056   0.551   2.066  15.651 -0.7838  0.1040 -0.5477
  119CHL1   C2515057   0.506   2.279  15.637  0.6186  0.3119  0.2948
  119CHL1   H2515058   0.541   2.376  15.678 -0.5600  0.4016  1.1493
  119CHL1   C2615059   0.534   2.276  15.481  0.1070 -0.2567 -0.7751
  119CHL1  H26A15060   0.643   2.297  15.482  0.1036 -0.2468 -0.3960
  119CHL1  H26B15061   0.514   2.177  15.435  0.5679  0.5814 -2.8790
  119CHL1  H26C15062   0.487   2.362  15.428  3.3569  2.0049 -0.2786
  119CHL1   C2715063   0.356   2.264  15.644  0.1496  0.0086  0.4485
  119CHL1  H27A15064   0.322   2.277  15.749 -0.5727 -1.4857  0.4319
  119CHL1  H27B15065   0.308   2.335  15.574 -1.3584 -0.1581  1.2695
  119CHL1  H27C15066   0.332   2.159  15.617  3.2144 -0.4084 -0.9743
  120CHL1    C315067   6.348   1.957  16.874  0.4466  0.5117 -0.0167
  120CHL1    H315068   6.239   1.939  16.865  0.5615 -2.3784  2.4815
  120CHL1    O315069   6.371   1.968  17.010 -0.3380  0.0706 -0.0693
  120CHL1   H3'15070   6.464   1.986  17.025 -0.4375 -1.0699  2.3813
  120CHL1    C415071   6.423   1.831  16.826 -0.0419  0.5491  0.7465
  120CHL1   H4A15072   6.530   1.857  16.843  0.1753 -0.9030  1.8411
  120CHL1   H4B15073   6.381   1.747  16.884 -2.2294  0.7590 -0.4340
  120CHL1    C515074   6.392   1.819  16.677 -0.3162 -0.6967 -0.9126
  120CHL1    C615075   6.324   1.711  16.642  0.1509  0.3132  0.1885
  120CHL1    H615076   6.292   1.644  16.724  0.4039 -0.2348 -0.1551
  120CHL1    C715077   6.269   1.684  16.505 -0.5649  0.1652  0.0502
  120CHL1   H7A15078   6.278   1.575  16.483 -0.5102  0.2087 -0.1437
  120CHL1   H7B15079   6.162   1.711  16.497 -0.9023 -0.7512  1.2839
  120CHL1    C815080   6.357   1.765  16.409 -0.0992 -0.3015 -0.5888
  120CHL1    H815081   6.457   1.718  16.402  0.4163  0.7316 -0.4207
  120CHL1   C1415082   6.294   1.753  16.270  0.1574  0.1651 -0.1123
  120CHL1   H1415083   6.192   1.795  16.280 -0.4408 -1.3292  0.2260
  120CHL1   C1515084   6.281   1.610  16.212  0.0808  0.3915 -0.5024
  120CHL1  H15A15085   6.382   1.563  16.215  0.9198  2.1721  0.0529
  120CHL1  H15B15086   6.206   1.546  16.264  1.4008 -0.9931 -0.2341
  120CHL1   C1615087   6.235   1.641  16.073 -0.1046  0.0648 -0.3545
  120CHL1  H16A15088   6.290   1.573  16.004 -1.7463 -1.1739 -0.4857
  120CHL1  H16B15089   6.128   1.620  16.054  0.0439 -0.4093 -0.7031
  120CHL1   C1715090   6.268   1.793  16.043 -0.6342  0.2047 -0.3694
  120CHL1   H1715091   6.172   1.848  16.053 -0.8513 -0.1131 -0.6372
  120CHL1   C1315092   6.356   1.838  16.162  0.1500  0.7555 -0.3901
  120CHL1   C1815093   6.503   1.787  16.140  0.4750 -0.2801 -0.4808
  120CHL1  H18A15094   6.566   1.810  16.229 -3.8286  0.5280  2.6659
  120CHL1  H18B15095   6.508   1.678  16.120 -1.5711 -0.1159 -2.2655
  120CHL1  H18C15096   6.542   1.843  16.052 -2.1565 -0.2672 -1.7375
  120CHL1   C1215097   6.360   1.982  16.200  0.3855  0.5755 -0.4481
  120CHL1  H12A15098   6.405   2.041  16.117  0.0488 -0.2821 -1.2532
  120CHL1  H12B15099   6.254   2.016  16.211  0.0747 -0.6463  0.5222
  120CHL1   C1115100   6.424   2.012  16.336  0.1522  0.3552  1.1751
  120CHL1  H11A15101   6.535   1.998  16.331  0.0829  0.0808 -0.0374
  120CHL1  H11B15102   6.408   2.118  16.363  0.3715  0.4339  1.0062
  120CHL1    C915103   6.373   1.912  16.447  0.6943  0.7586  0.3793
  120CHL1    H915104   6.267   1.943  16.452 -0.6480 -2.7219 -2.5441
  120CHL1   C1015105   6.433   1.933  16.589 -0.3233  0.5446 -0.5318
  120CHL1   C1915106   6.584   1.922  16.573  0.0371  0.1374  0.1107
  120CHL1  H19A15107   6.631   1.904  16.673 -1.7715  0.0230  0.9774
  120CHL1  H19B15108   6.624   1.846  16.503  3.8394  0.1760  1.9698
  120CHL1  H19C15109   6.623   2.018  16.532  0.3371 -0.6463 -1.5093
  120CHL1    C115110   6.376   2.061  16.649  0.3741  0.0020 -0.2597
  120CHL1   H1A15111   6.424   2.145  16.595  1.5115 -0.6869 -0.3671
  120CHL1   H1B15112   6.266   2.059  16.635  0.3528  0.1482 -0.1109
  120CHL1    C215113   6.402   2.072  16.804  0.0738  0.4789 -0.2120
  120CHL1   H2A15114   6.360   2.169  16.839 -2.6816 -0.6523 -0.1579
  120CHL1   H2B15115   6.512   2.071  16.818 -0.0788  0.0733  1.1126
  120CHL1   C2015116   6.319   1.821  15.901  0.2665  0.5816 -0.3910
  120CHL1   H2015117   6.417   1.768  15.888 -0.0934 -0.8573  2.1540
  120CHL1   C2115118   6.347   1.967  15.868  0.6047  0.2236 -0.2477
  120CHL1  H21A15119   6.355   1.973  15.757 -1.1589 -2.0177 -0.5604
  120CHL1  H21B15120   6.450   2.000  15.892  0.1537  1.0261  0.6715
  120CHL1  H21C15121   6.269   2.037  15.905  1.1702 -0.2297  1.9379
  120CHL1   C2215122   6.217   1.758  15.793 -1.3504  0.2691 -0.3670
  120CHL1  H22A15123   6.271   1.761  15.696  2.3058 -3.2597  1.2702
  120CHL1  H22B15124   6.205   1.648  15.800 -2.3588  0.0557 -3.6373
  120CHL1   C2315125   6.087   1.835  15.787  0.3242  0.1077  0.4203
  120CHL1  H23A15126   6.012   1.806  15.864  0.2250  0.0477  0.3000
  120CHL1  H23B15127   6.093   1.946  15.795 -3.0606  0.4448 -0.3729
  120CHL1   C2415128   6.012   1.805  15.645  0.2619 -0.1000 -0.1807
  120CHL1  H24A15129   6.085   1.826  15.564 -1.1761  0.3508 -1.4001
  120CHL1  H24B15130   5.991   1.696  15.639 -1.1838  0.1341  0.2034
  120CHL1   C2515131   5.882   1.872  15.619 -0.1709 -0.3488 -0.0119
  120CHL1   H2515132   5.807   1.845  15.697 -0.9944 -0.5485 -0.8634
  120CHL1   C2615133   5.882   2.023  15.616  0.3880  0.3321  1.1464
  120CHL1  H26A15134   5.974   2.056  15.564 -0.2660  0.3176 -0.0327
  120CHL1  H26B15135   5.788   2.060  15.569 -1.0863 -3.3020  0.8692
  120CHL1  H26C15136   5.887   2.071  15.716 -1.0484 -1.8670  2.3623
  120CHL1   C2715137   5.823   1.809  15.492 -0.1870 -0.0827 -0.0504
  120CHL1  H27A15138   5.821   1.698  15.503 -0.8590  0.0601  1.4657
  120CHL1  H27B15139   5.724   1.857  15.479 -0.6117 -0.3183  1.9631
  120CHL1  H27C15140   5.892   1.837  15.409 -0.5053  1.1042  0.0677
  121CHL1    C315141   4.163   5.310  13.311  0.5760 -0.0068 -0.3741
  121CHL1    H315142   4.151   5.417  13.338  1.1456  0.0328 -0.2686
  121CHL1    O315143   4.189   5.304  13.169  0.3854 -0.4942  0.5312
  121CHL1   H3'15144   4.234   5.219  13.162  0.6818 -0.7349  3.8063
  121CHL1    C415145   4.282   5.251  13.395 -0.6572 -0.5321  0.1874
  121CHL1   H4A15146   4.299   5.146  13.363 -0.0097 -0.0345 -1.2077
  121CHL1   H4B15147   4.374   5.306  13.365 -0.6452  0.2844  1.6535
  121CHL1    C515148   4.262   5.267  13.545 -0.3351  0.3623 -0.0148
  121CHL1    C615149   4.348   5.331  13.624 -0.3461 -0.3962 -0.5982
  121CHL1    H615150   4.433   5.385  13.581 -0.5757  0.1264 -0.4087
  121CHL1    C715151   4.341   5.329  13.776  0.1389  0.0700 -0.2236
  121CHL1   H7A15152   4.444   5.318  13.817  0.8709 -0.7897 -2.1755
  121CHL1   H7B15153   4.308   5.431  13.805  0.2990 -0.0329  0.3545
  121CHL1    C815154   4.241   5.223  13.835  0.1521  0.1508 -0.2273
  121CHL1    H815155   4.287   5.124  13.816  0.7630  0.6334 -1.3825
  121CHL1   C1415156   4.220   5.232  13.984  0.5966 -0.5608  0.0865
  121CHL1   H1415157   4.175   5.333  13.997  0.4704 -0.7674  1.3468
  121CHL1   C1515158   4.349   5.224  14.077  0.1012  0.4160 -0.5153
  121CHL1  H15A15159   4.421   5.151  14.035  1.3050  0.7642  0.8469
  121CHL1  H15B15160   4.400   5.322  14.086  1.1795 -0.2884  2.0651
  121CHL1   C1615161   4.290   5.175  14.207 -0.9260  0.0379  0.5080
  121CHL1  H16A15162   4.331   5.076  14.234  2.1740  0.3003 -2.5162
  121CHL1  H16B15163   4.320   5.238  14.293  3.3035 -0.3571 -0.4352
  121CHL1   C1715164   4.132   5.166  14.185 -0.1760  0.1845 -0.0912
  121CHL1   H1715165   4.091   5.268  14.203 -0.3255 -0.0405  0.8979
  121CHL1   C1315166   4.110   5.137  14.037 -0.6574  0.3310  0.1931
  121CHL1   C1815167   4.154   4.988  14.020  0.8280 -0.4969 -0.1756
  121CHL1  H18A15168   4.263   4.965  14.032  1.1578 -0.6014 -2.8694
  121CHL1  H18B15169   4.100   4.902  14.063  0.7616 -0.3888 -0.0417
  121CHL1  H18C15170   4.145   4.968  13.911 -1.5264  0.7289 -0.2702
  121CHL1   C1215171   3.987   5.181  13.967  0.1298  0.4948 -0.0849
  121CHL1  H12A15172   3.897   5.125  14.000  0.0639 -1.2043 -2.8103
  121CHL1  H12B15173   3.974   5.287  13.995  0.8577  0.3219  0.9579
  121CHL1   C1115174   3.990   5.151  13.819 -0.8877  0.6446  0.4278
  121CHL1  H11A15175   3.992   5.042  13.795 -1.3218  0.7202  0.0492
  121CHL1  H11B15176   3.899   5.199  13.779  0.4386  0.9254 -2.5132
  121CHL1    C915177   4.113   5.220  13.743  0.0221 -0.0674 -0.0668
  121CHL1    H915178   4.072   5.324  13.739 -0.8668 -0.3594  0.8959
  121CHL1   C1015179   4.136   5.190  13.596  0.2675 -0.7916  0.1111
  121CHL1   C1915180   4.154   5.041  13.579  0.0595  0.4198  0.4290
  121CHL1  H19A15181   4.193   5.002  13.482  1.2399  1.7138  0.3485
  121CHL1  H19B15182   4.232   4.987  13.637  0.0586 -0.9655 -0.7784
  121CHL1  H19C15183   4.058   4.986  13.595  0.1998 -0.3069 -1.0141
  121CHL1    C115184   4.020   5.244  13.511  0.3272  0.5744 -0.8436
  121CHL1   H1A15185   3.928   5.184  13.531  1.4321 -1.0584 -0.4442
  121CHL1   H1B15186   4.009   5.352  13.535  1.4331  0.8395 -1.4853
  121CHL1    C215187   4.034   5.238  13.361 -0.0852 -0.1087  0.2164
  121CHL1   H2A15188   3.949   5.292  13.314  0.9111  1.5700  0.2596
  121CHL1   H2B15189   4.030   5.134  13.321 -0.7423  0.5037 -1.4174
  121CHL1   C2015190   4.061   5.075  14.281  0.5762  0.4706  0.2468
  121CHL1   H2015191   4.079   4.969  14.255 -1.1970  0.2251 -0.1414
  121CHL1   C2115192   3.905   5.089  14.268  0.0752  0.4379 -0.0007
  121CHL1  H21A15193   3.884   5.198  14.259 -2.0637  0.2394  1.5946
  121CHL1  H21B15194   3.860   5.043  14.359  3.1810 -1.6575  0.6306
  121CHL1  H21C15195   3.861   5.049  14.174  2.6661  0.0062 -1.1240
  121CHL1   C2215196   4.094   5.089  14.432 -0.2261 -0.2412 -0.3338
  121CHL1  H22A15197   4.044   5.002  14.479  2.9495 -0.9501  2.0575
  121CHL1  H22B15198   4.201   5.077  14.460 -0.1864  2.2987  0.9072
  121CHL1   C2315199   4.043   5.216  14.505 -0.4372  0.2247 -0.6765
  121CHL1  H23A15200   4.112   5.297  14.473 -0.2043  1.1909  2.0072
  121CHL1  H23B15201   3.944   5.250  14.468 -0.0104  2.1213 -0.1551
  121CHL1   C2415202   4.038   5.183  14.661 -0.5697  0.0178  0.7527
  121CHL1  H24A15203   3.953   5.117  14.691 -1.1145  0.2048 -0.3305
  121CHL1  H24B15204   4.133   5.129  14.682  0.1857  1.5550  1.4211
  121CHL1   C2515205   4.023   5.313  14.745 -0.0836  0.4465 -0.5530
  121CHL1   H2515206   4.095   5.383  14.696  2.1612 -0.1919  1.6209
  121CHL1   C2615207   3.879   5.371  14.728 -0.0259 -0.2521 -0.2127
  121CHL1  H26A15208   3.800   5.294  14.738 -0.7734  0.7044  1.7276
  121CHL1  H26B15209   3.856   5.455  14.797  1.2032 -1.3156  1.5929
  121CHL1  H26C15210   3.861   5.410  14.626  0.7614  0.9023  0.0701
  121CHL1   C2715211   4.047   5.287  14.893 -0.1101 -0.2034 -0.4019
  121CHL1  H27A15212   4.142   5.230  14.903  0.5484  0.8789 -0.2977
  121CHL1  H27B15213   4.057   5.385  14.945 -2.3726  0.1308 -0.5050
  121CHL1  H27C15214   3.955   5.237  14.930  0.1927  1.0839  2.2937
  122CHL1    C315215   3.336   5.469  12.782 -0.0007  0.1986  0.7204
  122CHL1    H315216   3.387   5.371  12.786 -0.7929 -0.2141  0.9228
  122CHL1    O315217   3.307   5.506  12.646 -0.3369  0.0384  0.0903
  122CHL1   H3'15218   3.298   5.601  12.647 -0.3715  0.0427  1.9934
  122CHL1    C415219   3.194   5.459  12.855 -0.8231 -0.6835 -0.7736
  122CHL1   H4A15220   3.150   5.559  12.831  1.0141 -0.1133 -1.9657
  122CHL1   H4B15221   3.146   5.380  12.794 -1.4887 -0.9085  0.0327
  122CHL1    C515222   3.218   5.434  12.998  0.1505 -0.4050 -0.2685
  122CHL1    C615223   3.170   5.325  13.060 -0.3110  0.2499 -0.3591
  122CHL1    H615224   3.117   5.247  13.004  1.2428 -0.6452 -0.6237
  122CHL1    C715225   3.159   5.307  13.208  0.0578  0.1720  0.2320
  122CHL1   H7A15226   3.060   5.259  13.223 -0.6852  1.6947  0.3833
  122CHL1   H7B15227   3.235   5.231  13.236  1.3543  0.7860 -1.3994
  122CHL1    C815228   3.187   5.434  13.287  0.5316  0.4986 -0.5105
  122CHL1    H815229   3.099   5.499  13.271 -0.4793 -0.7636 -0.2319
  122CHL1   C1415230   3.214   5.402  13.432  0.1504 -0.1716  0.2096
  122CHL1   H1415231   3.305   5.338  13.429  0.8171  0.7788 -0.3819
  122CHL1   C1515232   3.108   5.325  13.514 -0.3252  0.3453  0.2716
  122CHL1  H15A15233   3.009   5.367  13.484  0.5133  1.5017 -0.9692
  122CHL1  H15B15234   3.109   5.214  13.503 -0.4347  0.3589  0.1179
  122CHL1   C1615235   3.140   5.361  13.659 -0.4170 -0.1564 -0.2638
  122CHL1  H16A15236   3.054   5.412  13.706 -1.2882 -0.1266 -1.8025
  122CHL1  H16B15237   3.154   5.266  13.715  0.5708 -0.1305 -0.4455
  122CHL1   C1715238   3.259   5.462  13.659 -0.1911 -0.0905  0.2775
  122CHL1   H1715239   3.359   5.414  13.663  0.6463  1.4424 -1.0351
  122CHL1   C1315240   3.261   5.526  13.514  0.9664 -0.6096 -0.9067
  122CHL1   C1815241   3.150   5.632  13.515 -0.2262  0.2097  0.1950
  122CHL1  H18A15242   3.053   5.594  13.553  0.0495 -0.0012  0.6856
  122CHL1  H18B15243   3.181   5.723  13.571 -1.6237  0.9495 -0.1793
  122CHL1  H18C15244   3.136   5.662  13.409  0.7501  0.5187  0.1468
  122CHL1   C1215245   3.394   5.575  13.454  0.1210 -0.2675  0.4887
  122CHL1  H12A15246   3.435   5.667  13.501 -1.9783  1.5474 -1.0179
  122CHL1  H12B15247   3.471   5.496  13.469 -0.7299 -1.3054 -0.4119
  122CHL1   C1115248   3.388   5.606  13.300  0.0193  0.6079 -0.0964
  122CHL1  H11A15249   3.346   5.709  13.298 -0.9354  0.2261 -1.5551
  122CHL1  H11B15250   3.490   5.624  13.262  1.0075 -0.8054  1.7172
  122CHL1    C915251   3.312   5.499  13.225 -0.5141 -0.1243 -0.0243
  122CHL1    H915252   3.385   5.416  13.215 -1.1681 -0.6296 -0.5844
  122CHL1   C1015253   3.295   5.538  13.080  0.0262 -0.5473 -0.1336
  122CHL1   C1915254   3.205   5.675  13.074 -0.0587  0.1022 -0.0161
  122CHL1  H19A15255   3.121   5.681  13.146 -0.6743  1.7316 -0.8377
  122CHL1  H19B15256   3.280   5.756  13.084  0.1234  0.1067 -1.2758
  122CHL1  H19C15257   3.167   5.699  12.972 -0.5215 -1.1904 -0.1679
  122CHL1    C115258   3.432   5.563  13.011 -0.2395 -0.4325 -0.2106
  122CHL1   H1A15259   3.483   5.655  13.047  0.1795 -0.4648 -0.7165
  122CHL1   H1B15260   3.505   5.482  13.029 -0.4571 -0.4347  0.7151
  122CHL1    C215261   3.413   5.582  12.858  0.1716 -0.1211  0.0296
  122CHL1   H2A15262   3.510   5.597  12.807 -0.9971  1.2167 -1.9363
  122CHL1   H2B15263   3.360   5.679  12.849  2.3878  1.1711  0.2240
  122CHL1   C2015264   3.253   5.558  13.781 -0.1703 -0.6758 -0.1587
  122CHL1   H2015265   3.155   5.610  13.778 -0.9520 -1.9484  1.5812
  122CHL1   C2115266   3.365   5.663  13.769  0.0278  0.1584  0.0737
  122CHL1  H21A15267   3.466   5.619  13.750  0.2715  1.2129 -1.2553
  122CHL1  H21B15268   3.370   5.723  13.862 -1.5969  0.8686 -0.2717
  122CHL1  H21C15269   3.335   5.744  13.699  0.3434  1.6262  1.5577
  122CHL1   C2215270   3.253   5.480  13.914 -0.4920 -0.3624  0.2680
  122CHL1  H22A15271   3.170   5.408  13.898 -0.9299  0.2968 -0.5413
  122CHL1  H22B15272   3.344   5.416  13.912  0.6483  1.2084 -0.5750
  122CHL1   C2315273   3.224   5.562  14.041 -0.3742 -0.6397  0.2525
  122CHL1  H23A15274   3.291   5.647  14.065 -2.4658  0.7591  1.4219
  122CHL1  H23B15275   3.129   5.615  14.020  0.5348  0.3274 -1.7035
  122CHL1   C2415276   3.203   5.486  14.171 -0.2451  0.2089  0.1694
  122CHL1  H24A15277   3.140   5.400  14.138  1.2036 -0.5429 -0.7057
  122CHL1  H24B15278   3.299   5.456  14.216 -0.1706  1.4291  0.8724
  122CHL1   C2515279   3.112   5.561  14.279  0.4086 -0.2399 -0.1980
  122CHL1   H2515280   3.034   5.607  14.214  0.1339 -0.1386  0.1975
  122CHL1   C2615281   3.040   5.459  14.366  0.4798  0.4847  0.1410
  122CHL1  H26A15282   3.117   5.400  14.420 -0.3748  0.2612  1.1407
  122CHL1  H26B15283   2.986   5.507  14.449 -0.7002  1.1578 -0.9892
  122CHL1  H26C15284   2.987   5.382  14.306  1.0229  2.5418 -3.2816
  122CHL1   C2715285   3.203   5.659  14.355 -0.0822 -0.6013  0.0742
  122CHL1  H27A15286   3.150   5.683  14.449  0.3910 -3.2072  1.0781
  122CHL1  H27B15287   3.305   5.620  14.378  0.6180  1.3109  0.4366
  122CHL1  H27C15288   3.225   5.739  14.281  0.8735  0.1849  1.1700
  123CHL1    C315289   5.349   5.800  12.746 -0.3491  0.4890  0.3553
  123CHL1    H315290   5.279   5.716  12.765  0.6347 -0.5812 -0.6667
  123CHL1    O315291   5.342   5.839  12.609 -0.3436 -0.2805 -0.4135
  123CHL1   H3'15292   5.404   5.909  12.590 -1.3727  0.2611 -1.9893
  123CHL1    C415293   5.314   5.932  12.825  0.3599  0.4974  0.7108
  123CHL1   H4A15294   5.381   6.017  12.804  0.4486  0.2354 -0.0793
  123CHL1   H4B15295   5.211   5.966  12.801  0.8544  0.4066 -1.7348
  123CHL1    C515296   5.325   5.901  12.974  0.4157  0.1825  0.1377
  123CHL1    C615297   5.217   5.908  13.051 -0.4690 -0.0763 -0.2098
  123CHL1    H615298   5.129   5.952  13.002 -0.2478  0.5040 -0.0970
  123CHL1    C715299   5.221   5.889  13.209  0.4300  0.5532  0.4346
  123CHL1   H7A15300   5.180   5.980  13.256 -0.5190  0.4482 -0.1676
  123CHL1   H7B15301   5.160   5.801  13.239  1.3548 -0.1009  0.4700
  123CHL1    C815302   5.360   5.865  13.269 -0.7798 -0.5856  0.2576
  123CHL1    H815303   5.413   5.962  13.272 -0.9270 -0.5151  0.6524
  123CHL1   C1415304   5.353   5.803  13.413 -0.4790  0.4186  0.4378
  123CHL1   H1415305   5.313   5.701  13.395  1.0538 -0.3273  1.0883
  123CHL1   C1515306   5.275   5.878  13.522  0.8111  0.2059 -1.0744
  123CHL1  H15A15307   5.317   5.981  13.526  1.0330  0.1063 -0.8134
  123CHL1  H15B15308   5.167   5.888  13.499 -0.0648  0.2705  2.4219
  123CHL1   C1615309   5.314   5.800  13.645 -0.1536 -0.6875 -0.0400
  123CHL1  H16A15310   5.338   5.873  13.726  2.3190  0.4177 -1.6329
  123CHL1  H16B15311   5.229   5.731  13.665  1.2931 -2.6243 -0.3257
  123CHL1   C1715312   5.440   5.714  13.619  0.3377  0.4468  0.6699
  123CHL1   H1715313   5.417   5.605  13.621  0.9204  0.3271  0.7693
  123CHL1   C1315314   5.490   5.759  13.473 -0.2261  0.4509  0.8282
  123CHL1   C1815315   5.581   5.890  13.487  0.2116  0.6239  0.0975
  123CHL1  H18A15316   5.670   5.841  13.532  0.1728  1.7035  1.4072
  123CHL1  H18B15317   5.592   5.941  13.389 -0.0169  1.4712  0.5048
  123CHL1  H18C15318   5.528   5.956  13.559  0.5480 -0.7029  1.6070
  123CHL1   C1215319   5.560   5.662  13.379 -0.2205 -0.2445 -0.0771
  123CHL1  H12A15320   5.655   5.619  13.418 -0.9255 -3.2940 -1.3513
  123CHL1  H12B15321   5.487   5.578  13.375 -0.6944  0.1960 -0.9239
  123CHL1   C1115322   5.580   5.724  13.239  0.2371 -0.6217  0.1821
  123CHL1  H11A15323   5.654   5.806  13.255 -0.7078 -0.2020  3.0772
  123CHL1  H11B15324   5.615   5.639  13.177 -1.7063 -2.3310  1.2941
  123CHL1    C915325   5.443   5.776  13.174 -0.0983 -0.3126 -0.6173
  123CHL1    H915326   5.381   5.686  13.153  1.9266 -1.4677 -2.0679
  123CHL1   C1015327   5.456   5.841  13.030  0.3486 -0.3240  0.1869
  123CHL1   C1915328   5.573   5.951  13.021 -0.2965 -0.1216 -0.3712
  123CHL1  H19A15329   5.672   5.909  13.048 -0.3331  1.1909  2.0898
  123CHL1  H19B15330   5.578   5.992  12.918 -0.6853  0.6200 -0.1021
  123CHL1  H19C15331   5.557   6.043  13.081  1.4992  0.2633 -0.4264
  123CHL1    C115332   5.492   5.724  12.941  0.4565 -0.1215 -0.5385
  123CHL1   H1A15333   5.592   5.689  12.972  0.4546 -1.6400 -2.1269
  123CHL1   H1B15334   5.420   5.639  12.949  1.3484 -0.9670 -1.2575
  123CHL1    C215335   5.491   5.755  12.790  0.1781  0.2653 -0.0399
  123CHL1   H2A15336   5.524   5.660  12.741 -0.9804 -0.1714 -0.0114
  123CHL1   H2B15337   5.550   5.846  12.769 -0.9981  1.2696  0.8821
  123CHL1   C2015338   5.540   5.730  13.739  0.5979  0.3397  0.0726
  123CHL1   H2015339   5.567   5.838  13.741  2.1427 -0.0336  0.9124
  123CHL1   C2115340   5.662   5.641  13.716  0.0319 -0.0341 -0.3123
  123CHL1  H21A15341   5.643   5.532  13.725  1.7361 -0.2342  1.8476
  123CHL1  H21B15342   5.735   5.660  13.798  2.5840 -0.4394 -2.3423
  123CHL1  H21C15343   5.721   5.664  13.625  2.9117 -0.6661  1.2409
  123CHL1   C2215344   5.470   5.691  13.868 -0.0441 -0.3922 -0.6154
  123CHL1  H22A15345   5.372   5.743  13.876 -0.0160 -0.4979  0.5804
  123CHL1  H22B15346   5.458   5.581  13.875  0.3574 -0.5067 -1.5678
  123CHL1   C2315347   5.551   5.741  13.989 -0.1691 -0.1494 -0.1396
  123CHL1  H23A15348   5.655   5.705  13.983 -0.1691  0.0255 -1.3479
  123CHL1  H23B15349   5.558   5.851  13.981 -0.1251 -0.1184  0.2829
  123CHL1   C2415350   5.488   5.712  14.134  0.5025  0.4611 -0.0160
  123CHL1  H24A15351   5.385   5.751  14.121 -0.4005 -1.9098 -0.5261
  123CHL1  H24B15352   5.480   5.601  14.133 -0.2784  0.5166 -0.3359
  123CHL1   C2515353   5.573   5.760  14.254 -0.3573  0.4183  0.0342
  123CHL1   H2515354   5.577   5.871  14.261  0.6738  0.2653  4.7506
  123CHL1   C2615355   5.496   5.718  14.388 -0.5055 -0.1892 -0.0241
  123CHL1  H26A15356   5.409   5.786  14.391  0.2539  0.7725  1.4242
  123CHL1  H26B15357   5.464   5.611  14.385  1.7101 -1.0484  2.7478
  123CHL1  H26C15358   5.572   5.745  14.464  0.2728 -0.1879 -0.7864
  123CHL1   C2715359   5.719   5.706  14.249  0.7040 -0.6954 -0.4731
  123CHL1  H27A15360   5.792   5.753  14.179 -1.3885 -0.9637 -2.9878
  123CHL1  H27B15361   5.754   5.690  14.353  0.8836 -1.8230 -0.6970
  123CHL1  H27C15362   5.697   5.604  14.212 -3.0981 -0.0835 -0.3052
  124CHL1    C315363   3.818   6.634  13.155 -1.0642 -0.3417 -0.7922
  124CHL1    H315364   3.913   6.576  13.150 -1.0329 -0.5995  1.7172
  124CHL1    O315365   3.779   6.673  13.023 -0.3097  0.4891 -0.3388
  124CHL1   H3'15366   3.818   6.757  13.001 -0.2149  0.7966  0.9240
  124CHL1    C415367   3.705   6.552  13.217 -0.1532  0.1353 -0.3551
  124CHL1   H4A15368   3.609   6.607  13.204 -1.0520 -1.7822 -2.4737
  124CHL1   H4B15369   3.695   6.455  13.163  0.6386 -0.5549  0.6735
  124CHL1    C515370   3.732   6.530  13.361 -0.1410  0.6612 -0.1791
  124CHL1    C615371   3.748   6.409  13.413  0.3761  0.6200 -0.0093
  124CHL1    H615372   3.720   6.327  13.346  0.3690 -0.1777  0.9482
  124CHL1    C715373   3.759   6.386  13.561  0.0688 -0.2688  0.1757
  124CHL1   H7A15374   3.700   6.296  13.588  0.7608 -0.0995  2.4286
  124CHL1   H7B15375   3.859   6.341  13.576 -0.3456 -1.0098  0.7763
  124CHL1    C815376   3.731   6.504  13.652 -0.6166 -0.0314  0.6608
  124CHL1    H815377   3.621   6.520  13.652 -0.8874 -1.7550 -0.0992
  124CHL1   C1415378   3.776   6.470  13.794  0.0382  0.9459  0.0479
  124CHL1   H1415379   3.884   6.448  13.784  0.0839  0.1793  1.8747
  124CHL1   C1515380   3.723   6.349  13.872  0.3716 -0.1545  0.0580
  124CHL1  H15A15381   3.621   6.331  13.832  0.9274 -2.5299 -0.4401
  124CHL1  H15B15382   3.788   6.262  13.848  0.4723 -0.4443  1.3016
  124CHL1   C1615383   3.731   6.391  14.017 -0.4550 -0.2977 -0.0818
  124CHL1  H16A15384   3.632   6.414  14.062 -1.1751  1.6404 -2.4202
  124CHL1  H16B15385   3.782   6.307  14.069  0.9812  0.0022 -0.9432
  124CHL1   C1715386   3.820   6.517  14.018  1.2252 -0.0636  0.0477
  124CHL1   H1715387   3.924   6.477  14.017  0.2828 -3.1510  2.9629
  124CHL1   C1315388   3.775   6.592  13.890  0.3608  0.6139 -0.6167
  124CHL1   C1815389   3.623   6.642  13.903  0.1266 -0.0509  0.5073
  124CHL1  H18A15390   3.616   6.738  13.958 -1.6873  2.8868 -4.2738
  124CHL1  H18B15391   3.577   6.665  13.805 -0.5198  0.3340  0.8895
  124CHL1  H18C15392   3.562   6.572  13.965 -1.0026  0.5071  0.0499
  124CHL1   C1215393   3.869   6.699  13.830 -0.1824 -0.4047 -0.0150
  124CHL1  H12A15394   3.872   6.791  13.892  1.4337 -0.0847 -0.5237
  124CHL1  H12B15395   3.969   6.650  13.833  0.5020  0.8927 -0.8220
  124CHL1   C1115396   3.826   6.736  13.686 -0.3249  0.9204  0.4679
  124CHL1  H11A15397   3.741   6.808  13.689 -1.1907 -0.1165  1.6322
  124CHL1  H11B15398   3.909   6.802  13.653 -0.6370  2.0811  1.8989
  124CHL1    C915399   3.811   6.617  13.582 -0.3926 -0.0584 -1.1647
  124CHL1    H915400   3.912   6.573  13.567 -0.6432 -1.0030 -0.2296
  124CHL1   C1015401   3.763   6.651  13.448 -0.4832 -0.2912  0.0624
  124CHL1   C1915402   3.634   6.730  13.461 -0.0487  0.2086  0.8037
  124CHL1  H19A15403   3.585   6.757  13.365 -1.4773 -1.4810  1.0112
  124CHL1  H19B15404   3.562   6.679  13.529 -0.1559  1.3299  1.5567
  124CHL1  H19C15405   3.660   6.824  13.515  1.4103 -0.0182  0.5515
  124CHL1    C115406   3.875   6.737  13.382 -0.3572 -0.0196  0.0853
  124CHL1   H1A15407   3.893   6.836  13.429  1.5017  0.6106 -1.7963
  124CHL1   H1B15408   3.965   6.672  13.380  0.0209  0.3636  2.1252
  124CHL1    C215409   3.846   6.762  13.238 -0.2112  0.5840 -0.1538
  124CHL1   H2A15410   3.940   6.813  13.209  0.7518 -0.8756  0.2821
  124CHL1   H2B15411   3.763   6.835  13.225 -1.1243 -0.6595 -1.6371
  124CHL1   C2015412   3.810   6.600  14.152  0.1477 -0.5340  0.3456
  124CHL1   H2015413   3.708   6.643  14.162  0.0623 -0.7115  0.2319
  124CHL1   C2115414   3.907   6.716  14.162 -0.4130  0.8194  0.1026
  124CHL1  H21A15415   3.872   6.805  14.106 -0.4338  1.4696  1.1248
  124CHL1  H21B15416   4.011   6.694  14.129 -0.3454  1.6511 -0.2632
  124CHL1  H21C15417   3.918   6.755  14.266  0.3947  0.0268  0.3352
  124CHL1   C2215418   3.817   6.511  14.280 -0.0507 -1.0282 -0.2079
  124CHL1  H22A15419   3.769   6.411  14.270  0.3057 -1.2487  0.2817
  124CHL1  H22B15420   3.922   6.488  14.306  0.2289  1.5555  1.3063
  124CHL1   C2315421   3.752   6.573  14.405 -0.0949 -0.2064  0.3547
  124CHL1  H23A15422   3.813   6.661  14.433 -2.2800  1.4243  0.3410
  124CHL1  H23B15423   3.649   6.608  14.380 -0.6766 -1.2388  1.2232
  124CHL1   C2415424   3.746   6.476  14.517 -0.4120 -0.2019 -0.6082
  124CHL1  H24A15425   3.677   6.392  14.495 -1.2941 -0.3087  2.1811
  124CHL1  H24B15426   3.851   6.444  14.533  0.0669  1.3154 -0.5244
  124CHL1   C2515427   3.704   6.540  14.652  1.1252 -0.1814 -0.0018
  124CHL1   H2515428   3.747   6.642  14.662 -1.9498  1.2029  0.3921
  124CHL1   C2615429   3.554   6.555  14.653  0.5479  0.0167  0.5127
  124CHL1  H26A15430   3.520   6.591  14.753  2.0807  3.1080  0.0538
  124CHL1  H26B15431   3.529   6.633  14.578 -0.1086 -0.4153  0.2772
  124CHL1  H26C15432   3.501   6.465  14.614 -0.2609  1.6062 -2.3228
  124CHL1   C2715433   3.744   6.454  14.775 -0.2540 -0.3836 -0.4369
  124CHL1  H27A15434   3.740   6.515  14.867  1.8958  2.5082 -2.1187
  124CHL1  H27B15435   3.689   6.357  14.781 -0.0022 -0.4576  1.0023
  124CHL1  H27C15436   3.852   6.437  14.757 -0.1102  0.8182 -0.8115
  125CHL1    C315437   3.735   0.635  12.900  0.1262  0.2662  1.1310
  125CHL1    H315438   3.843   0.611  12.912 -0.1348 -2.2659 -0.8687
  125CHL1    O315439   3.710   0.635  12.763  0.4142  0.1151  0.4142
  125CHL1   H3'15440   3.635   0.694  12.754 -1.5838 -2.1251  1.3603
  125CHL1    C415441   3.680   0.507  12.971 -0.0872 -0.2510  0.4527
  125CHL1   H4A15442   3.570   0.512  12.958  0.0921 -0.6013 -1.4666
  125CHL1   H4B15443   3.715   0.414  12.921 -0.9867 -0.2858 -0.1187
  125CHL1    C515444   3.713   0.510  13.123  0.4305 -0.0290  0.2786
  125CHL1    C615445   3.775   0.406  13.184 -0.0015  0.8464 -0.0748
  125CHL1    H615446   3.787   0.314  13.125 -0.7634  0.3202  0.5755
  125CHL1    C715447   3.790   0.376  13.326 -0.1827 -0.0690  0.4970
  125CHL1   H7A15448   3.758   0.273  13.351  0.0205 -0.2389  0.0712
  125CHL1   H7B15449   3.899   0.379  13.349 -0.3735 -1.9563  1.8622
  125CHL1    C815450   3.709   0.475  13.408 -0.0336 -0.2445 -1.3464
  125CHL1    H815451   3.602   0.443  13.408 -0.9055  2.4109 -0.2217
  125CHL1   C1415452   3.771   0.477  13.547  0.2771 -1.2043  0.1117
  125CHL1   H1415453   3.881   0.487  13.540  0.5078  0.7250  3.9194
  125CHL1   C1515454   3.779   0.344  13.615  0.7047  0.2949 -0.9074
  125CHL1  H15A15455   3.683   0.292  13.597 -0.2588  1.7883 -0.2598
  125CHL1  H15B15456   3.868   0.289  13.578  0.2988 -0.5771 -0.5919
  125CHL1   C1615457   3.789   0.384  13.767 -0.5187 -0.9951  0.0846
  125CHL1  H16A15458   3.727   0.315  13.828 -2.4296  0.0808 -0.5585
  125CHL1  H16B15459   3.887   0.365  13.815  0.4022 -0.9844 -1.6980
  125CHL1   C1715460   3.761   0.540  13.777 -0.1974  0.4839  0.3630
  125CHL1   H1715461   3.858   0.594  13.783 -1.1949  2.1981  1.5048
  125CHL1   C1315462   3.702   0.569  13.640 -0.3211 -1.0016  0.3168
  125CHL1   C1815463   3.553   0.539  13.653 -0.0462 -0.5441 -0.2333
  125CHL1  H18A15464   3.501   0.621  13.707 -0.3608  1.3908 -3.2184
  125CHL1  H18B15465   3.501   0.535  13.554 -1.8600  0.2242  0.6303
  125CHL1  H18C15466   3.538   0.440  13.701  0.6356  0.1155  1.4134
  125CHL1   C1215467   3.715   0.715  13.589  0.1760 -0.0403 -0.3007
  125CHL1  H12A15468   3.685   0.796  13.660 -2.0186 -1.0046 -0.0567
  125CHL1  H12B15469   3.825   0.729  13.585  0.3014 -1.3076 -1.9098
  125CHL1   C1115470   3.666   0.733  13.442 -0.1083 -0.6808 -0.3421
  125CHL1  H11A15471   3.555   0.722  13.443 -0.2614  0.5645 -0.7215
  125CHL1  H11B15472   3.688   0.839  13.414  0.3812 -0.2184  1.6207
  125CHL1    C915473   3.717   0.625  13.348 -0.3106 -0.2128 -0.2092
  125CHL1    H915474   3.827   0.632  13.333 -0.5845 -0.6424 -3.1416
  125CHL1   C1015475   3.667   0.636  13.201 -0.5087 -0.1059 -0.4462
  125CHL1   C1915476   3.509   0.639  13.197 -0.6007  0.7809 -0.3196
  125CHL1  H19A15477   3.473   0.731  13.248  0.3498  0.8782  0.1995
  125CHL1  H19B15478   3.480   0.645  13.090  0.4882  1.8076 -0.5677
  125CHL1  H19C15479   3.473   0.553  13.258  2.0306 -1.0523 -1.1732
  125CHL1    C115480   3.724   0.761  13.125 -0.2224  0.1394 -0.0139
  125CHL1   H1A15481   3.693   0.854  13.177 -0.3813  1.2529 -2.0001
  125CHL1   H1B15482   3.835   0.760  13.135 -0.3305  0.5909  1.3878
  125CHL1    C215483   3.693   0.759  12.972  0.4222 -0.2750  0.1621
  125CHL1   H2A15484   3.740   0.849  12.927 -0.2978  0.2921  0.5072
  125CHL1   H2B15485   3.583   0.769  12.959  0.3471 -0.6949  0.4483
  125CHL1   C2015486   3.694   0.581  13.907 -0.0393  0.2010  0.8059
  125CHL1   H2015487   3.588   0.548  13.913  0.4167 -1.4692  0.2096
  125CHL1   C2115488   3.686   0.727  13.923 -0.2675  0.1195 -0.1248
  125CHL1  H21A15489   3.785   0.773  13.901  0.6629 -1.6692  0.1561
  125CHL1  H21B15490   3.649   0.752  14.025 -0.3925  0.6828 -0.3011
  125CHL1  H21C15491   3.602   0.761  13.858  0.6524  0.0152 -1.3964
  125CHL1   C2215492   3.769   0.531  14.032 -0.1953 -0.2162 -0.0435
  125CHL1  H22A15493   3.725   0.560  14.130  0.1102  2.0439 -0.5249
  125CHL1  H22B15494   3.762   0.420  14.029 -0.5511 -0.1929 -0.0801
  125CHL1   C2315495   3.910   0.580  14.041  0.4219 -0.1162 -0.5699
  125CHL1  H23A15496   3.962   0.567  13.944  1.1598  1.5343 -0.4181
  125CHL1  H23B15497   3.911   0.687  14.070  0.9662  0.0949 -1.3445
  125CHL1   C2415498   3.999   0.503  14.134 -0.6648  0.0679  0.3249
  125CHL1  H24A15499   3.990   0.393  14.123 -1.7453 -0.0059  1.6993
  125CHL1  H24B15500   4.104   0.536  14.118 -0.4276 -0.7259  0.2183
  125CHL1   C2515501   3.972   0.516  14.293 -0.3567 -0.5640  0.4765
  125CHL1   H2515502   3.863   0.497  14.301 -0.6538  0.6120 -0.3814
  125CHL1   C2615503   4.054   0.418  14.379 -0.8915  0.2668  0.0964
  125CHL1  H26A15504   4.018   0.422  14.484  0.3778  0.8960  0.5362
  125CHL1  H26B15505   4.033   0.313  14.350  0.8618 -0.1359  0.1535
  125CHL1  H26C15506   4.163   0.438  14.369 -1.4741  3.1088 -1.8791
  125CHL1   C2715507   3.987   0.658  14.343  0.3819  0.7483  0.2959
  125CHL1  H27A15508   3.898   0.717  14.310  0.3774  0.4270 -0.2852
  125CHL1  H27B15509   3.975   0.689  14.449 -1.1334  1.5002 -0.0532
  125CHL1  H27C15510   4.077   0.690  14.287  1.0334 -1.1990  0.1610
  126CHL1    C315511   1.942   6.145  13.538  1.4062  0.0956 -0.1362
  126CHL1    H315512   1.866   6.131  13.617  0.1634 -3.2102 -1.6926
  126CHL1    O315513   1.866   6.192  13.425  0.4008 -0.5218 -0.8303
  126CHL1   H3'15514   1.801   6.123  13.412  0.5407 -0.8654  0.1951
  126CHL1    C415515   2.052   6.251  13.574 -0.6963 -0.3548  0.1814
  126CHL1   H4A15516   2.108   6.271  13.481  0.7083  0.6240  1.1958
  126CHL1   H4B15517   2.003   6.345  13.606 -0.8046  0.0582 -1.1536
  126CHL1    C515518   2.145   6.198  13.682  0.6512 -0.8868 -0.3283
  126CHL1    C615519   2.164   6.264  13.797 -0.0348 -0.7796 -0.1114
  126CHL1    H615520   2.129   6.367  13.813  2.8046  0.3064 -0.3039
  126CHL1    C715521   2.256   6.215  13.906  0.0642  0.7782  0.6538
  126CHL1   H7A15522   2.317   6.299  13.945  1.0865 -0.1766  1.1664
  126CHL1   H7B15523   2.189   6.174  13.986 -2.7922  2.3864 -0.7520
  126CHL1    C815524   2.352   6.098  13.863 -0.3805 -0.1287  0.1928
  126CHL1    H815525   2.435   6.134  13.800  1.1668 -1.9243  1.1050
  126CHL1   C1415526   2.412   6.022  13.984 -0.3088 -0.4519  0.2003
  126CHL1   H1415527   2.324   5.970  14.028  0.9473 -1.7795  1.2457
  126CHL1   C1515528   2.467   6.108  14.095  0.4714 -0.2434  0.0973
  126CHL1  H15A15529   2.526   6.191  14.049 -1.4742 -0.2726 -2.6772
  126CHL1  H15B15530   2.387   6.153  14.158  0.6054 -0.6355  0.5566
  126CHL1   C1615531   2.552   6.006  14.175  0.6785  0.3596 -0.2264
  126CHL1  H16A15532   2.655   6.046  14.186  0.9286  0.0728 -1.4198
  126CHL1  H16B15533   2.525   5.985  14.281  0.4538 -0.0439 -0.3594
  126CHL1   C1715534   2.539   5.867  14.102  0.1953  0.3589 -0.5076
  126CHL1   H1715535   2.449   5.828  14.153  0.5824  0.5953  0.3812
  126CHL1   C1315536   2.507   5.904  13.961 -0.4643  0.3351 -0.7094
  126CHL1   C1815537   2.640   5.963  13.897  0.0798 -0.2652  0.8175
  126CHL1  H18A15538   2.689   6.033  13.968 -0.1796  1.0125 -0.2397
  126CHL1  H18B15539   2.715   5.883  13.882  1.8184  1.7201 -1.8723
  126CHL1  H18C15540   2.615   5.997  13.794  0.7274 -1.4827  0.2418
  126CHL1   C1215541   2.431   5.802  13.870 -0.5640  0.1904  0.1142
  126CHL1  H12A15542   2.505   5.725  13.840 -2.0913 -1.4746  0.5191
  126CHL1  H12B15543   2.361   5.750  13.939  0.0447  0.9190  1.3137
  126CHL1   C1115544   2.377   5.869  13.750  0.9470 -0.6487 -0.3197
  126CHL1  H11A15545   2.461   5.902  13.686 -0.2358  0.5844 -1.2927
  126CHL1  H11B15546   2.317   5.797  13.690  0.4515 -0.9272  0.4880
  126CHL1    C915547   2.277   5.994  13.782 -0.0936  0.5360  0.1633
  126CHL1    H915548   2.195   5.958  13.848 -0.3396  2.0117  0.6924
  126CHL1   C1015549   2.205   6.059  13.658  0.2841  0.7459  0.5638
  126CHL1   C1915550   2.309   6.071  13.546 -0.3913 -0.0271  0.4804
  126CHL1  H19A15551   2.262   6.122  13.459 -0.2459  0.3553  0.6214
  126CHL1  H19B15552   2.400   6.122  13.583  1.2614 -1.6324 -1.1985
  126CHL1  H19C15553   2.348   5.970  13.524 -0.5033 -0.0873  0.5560
  126CHL1    C115554   2.103   5.960  13.614 -0.3426  0.0288 -0.0701
  126CHL1   H1A15555   2.156   5.867  13.581 -0.3607  0.5379 -1.6121
  126CHL1   H1B15556   2.043   5.911  13.694 -0.7161 -0.8142 -0.8445
  126CHL1    C215557   2.003   6.010  13.501  0.0028  0.1668 -0.4694
  126CHL1   H2A15558   1.930   5.928  13.483 -1.3360  0.7651  1.8631
  126CHL1   H2B15559   2.055   6.019  13.403  0.3494 -1.0133 -0.3963
  126CHL1   C2015560   2.666   5.778  14.135 -0.5299 -0.0329 -0.1263
  126CHL1   H2015561   2.761   5.821  14.096 -0.3185 -1.4460 -1.2704
  126CHL1   C2115562   2.645   5.646  14.066  0.0734 -0.2736  0.0155
  126CHL1  H21A15563   2.704   5.563  14.109 -1.0912 -1.1408 -0.0157
  126CHL1  H21B15564   2.666   5.654  13.957  0.3861 -1.2324 -0.0009
  126CHL1  H21C15565   2.538   5.625  14.086 -0.3337  1.1767 -0.4801
  126CHL1   C2215566   2.682   5.744  14.281 -0.4866  0.4895 -0.7467
  126CHL1  H22A15567   2.762   5.668  14.285 -2.3451 -1.6706 -2.3976
  126CHL1  H22B15568   2.716   5.833  14.339 -1.8786 -0.5218  1.7430
  126CHL1   C2315569   2.563   5.705  14.370 -0.6881 -0.3266 -0.1993
  126CHL1  H23A15570   2.478   5.775  14.353 -0.9886  0.0827  2.4672
  126CHL1  H23B15571   2.533   5.600  14.352 -1.5737 -0.3409  1.1608
  126CHL1   C2415572   2.619   5.718  14.514  0.1373  0.0867  0.5259
  126CHL1  H24A15573   2.721   5.674  14.511  0.0443 -0.3543  2.6292
  126CHL1  H24B15574   2.624   5.825  14.545  0.8438  0.6260 -1.2768
  126CHL1   C2515575   2.541   5.625  14.610 -1.0099  0.4259  0.3331
  126CHL1   H2515576   2.434   5.645  14.587 -0.4774  0.1532 -2.8243
  126CHL1   C2615577   2.555   5.471  14.593  0.6805  0.2568  0.3033
  126CHL1  H26A15578   2.554   5.456  14.483 -3.8536 -1.8792  0.4043
  126CHL1  H26B15579   2.652   5.439  14.635  1.1457  1.9278  0.5529
  126CHL1  H26C15580   2.470   5.423  14.646  0.8735  0.8028  1.1144
  126CHL1   C2715581   2.544   5.666  14.750 -0.1009  0.3821 -0.8460
  126CHL1  H27A15582   2.458   5.626  14.809  0.1996 -0.4114 -0.9405
  126CHL1  H27B15583   2.637   5.636  14.802  0.4663  0.5123 -1.7655
  126CHL1  H27C15584   2.531   5.776  14.760  2.7697  0.6856  0.6451
  127CHL1    C315585   2.658   0.945  12.912  0.5108 -0.7856  0.1076
  127CHL1    H315586   2.554   0.914  12.932  0.1546  0.0718 -0.3591
  127CHL1    O315587   2.694   0.927  12.772 -0.2242 -0.4594  0.2673
  127CHL1   H3'15588   2.652   0.841  12.757 -0.0654 -0.0027 -3.9928
  127CHL1    C415589   2.679   1.091  12.963 -0.5594 -0.4651  0.4589
  127CHL1   H4A15590   2.785   1.106  12.933 -1.0259 -2.0691 -2.3548
  127CHL1   H4B15591   2.624   1.162  12.898 -0.1132 -0.7122 -0.1970
  127CHL1    C515592   2.657   1.107  13.113  0.3477  0.1604  0.3906
  127CHL1    C615593   2.577   1.204  13.162  0.4860  0.6746 -0.4746
  127CHL1    H615594   2.515   1.267  13.096  0.8222  0.2143 -1.2398
  127CHL1    C715595   2.562   1.242  13.306  0.1007  0.6367  0.2826
  127CHL1   H7A15596   2.587   1.349  13.321 -1.4268  1.0014  0.4855
  127CHL1   H7B15597   2.456   1.235  13.341  0.4172 -2.2969  0.9107
  127CHL1    C815598   2.653   1.160  13.400  0.3420 -0.4075 -0.0995
  127CHL1    H815599   2.747   1.218  13.417 -0.2663 -0.1788  3.2457
  127CHL1   C1415600   2.582   1.151  13.542 -0.5395 -0.0916  0.7299
  127CHL1   H1415601   2.493   1.087  13.522 -0.0170 -1.0783  1.5123
  127CHL1   C1515602   2.522   1.271  13.602 -0.4702 -0.4857 -0.4688
  127CHL1  H15A15603   2.592   1.357  13.598  0.4709 -1.0811  1.5510
  127CHL1  H15B15604   2.426   1.292  13.550 -0.9629 -0.4228  0.4408
  127CHL1   C1615605   2.498   1.235  13.752 -0.2545 -0.0045 -1.0350
  127CHL1  H16A15606   2.539   1.324  13.804 -0.0414 -0.5609 -0.2310
  127CHL1  H16B15607   2.389   1.225  13.769 -0.1774 -0.4843 -0.8076
  127CHL1   C1715608   2.567   1.094  13.776  0.4015  0.0493 -0.2754
  127CHL1   H1715609   2.488   1.016  13.769  0.5268 -0.2051  0.9791
  127CHL1   C1315610   2.662   1.086  13.655 -0.0185 -0.1418  0.1650
  127CHL1   C1815611   2.793   1.161  13.694 -0.1083 -0.3094 -0.5059
  127CHL1  H18A15612   2.876   1.134  13.625 -0.0073 -3.1315  0.5604
  127CHL1  H18B15613   2.779   1.270  13.712 -1.2676 -0.7020  1.2946
  127CHL1  H18C15614   2.835   1.115  13.786  0.9833 -1.4627 -1.5455
  127CHL1   C1215615   2.694   0.942  13.605  0.1559  0.5731  0.1417
  127CHL1  H12A15616   2.743   0.880  13.683 -1.0794 -1.2406 -0.4915
  127CHL1  H12B15617   2.591   0.906  13.585  0.0231 -0.6272  2.6862
  127CHL1   C1115618   2.756   0.925  13.456 -0.0099 -0.3458  0.3645
  127CHL1  H11A15619   2.855   0.974  13.457 -0.3607  0.3734  1.3095
  127CHL1  H11B15620   2.763   0.819  13.425 -0.9823 -0.7380  1.4120
  127CHL1    C915621   2.671   1.015  13.358 -0.3705  0.6160  0.2362
  127CHL1    H915622   2.570   0.971  13.345  0.6509 -1.8884  0.2531
  127CHL1   C1015623   2.731   1.008  13.206  0.0897  0.1749 -0.0899
  127CHL1   C1915624   2.884   1.037  13.200 -0.1682  0.3469  0.3178
  127CHL1  H19A15625   2.930   0.943  13.236 -1.4155 -0.7519 -0.8532
  127CHL1  H19B15626   2.920   1.048  13.095  2.3586 -2.3993  0.7803
  127CHL1  H19C15627   2.904   1.120  13.270 -1.5550  0.4624  0.6078
  127CHL1    C115628   2.702   0.866  13.150  0.5996 -0.7296 -0.8369
  127CHL1   H1A15629   2.741   0.773  13.198  2.1875 -0.8679 -2.2924
  127CHL1   H1B15630   2.593   0.854  13.163  0.3503  1.3667 -0.6606
  127CHL1    C215631   2.741   0.842  12.997  0.0042 -0.1149  0.1341
  127CHL1   H2A15632   2.725   0.735  12.972  0.3308 -1.3642  4.4262
  127CHL1   H2B15633   2.850   0.863  12.993 -0.1127  0.3061 -1.5336
  127CHL1   C2015634   2.615   1.084  13.923 -0.4123  0.0874 -0.6683
  127CHL1   H2015635   2.692   1.163  13.933 -1.3602  0.9449  0.0409
  127CHL1   C2115636   2.670   0.942  13.951  0.5539  0.2718  1.1119
  127CHL1  H21A15637   2.677   0.922  14.060  0.2449 -0.3825  1.0152
  127CHL1  H21B15638   2.766   0.933  13.896 -0.6131  4.0233 -2.0222
  127CHL1  H21C15639   2.597   0.867  13.914  0.3627  0.7140  0.5794
  127CHL1   C2215640   2.510   1.115  14.034 -0.4886 -0.0323 -0.2696
  127CHL1  H22A15641   2.450   1.206  14.014 -2.3389 -0.6559  1.9521
  127CHL1  H22B15642   2.444   1.025  14.031  0.5693 -0.7995 -1.4054
  127CHL1   C2315643   2.574   1.148  14.174  0.0324  0.3053  0.0854
  127CHL1  H23A15644   2.651   1.070  14.190 -0.7850 -0.6851 -0.6861
  127CHL1  H23B15645   2.616   1.251  14.171 -0.6764  0.5957 -0.4669
  127CHL1   C2415646   2.469   1.140  14.283 -0.0144  0.4659  0.7127
  127CHL1  H24A15647   2.404   1.228  14.267  0.1781  0.3852 -0.5735
  127CHL1  H24B15648   2.396   1.060  14.261  1.9186 -1.0830 -0.3582
  127CHL1   C2515649   2.521   1.139  14.425 -0.0807 -0.1968  0.4905
  127CHL1   H2515650   2.604   1.209  14.449  0.1252  0.3312 -1.5891
  127CHL1   C2615651   2.407   1.179  14.513  0.4610  0.3223 -0.5461
  127CHL1  H26A15652   2.364   1.278  14.486  0.1323  0.1706 -0.5919
  127CHL1  H26B15653   2.331   1.099  14.499  2.3743 -1.2784 -2.3711
  127CHL1  H26C15654   2.450   1.184  14.616  1.4578 -3.2585 -0.6489
  127CHL1   C2715655   2.563   0.993  14.456  0.7070 -0.7401  1.1552
  127CHL1  H27A15656   2.595   0.993  14.562  0.0871  0.8036  1.3731
  127CHL1  H27B15657   2.484   0.915  14.449 -3.8433  3.4621 -0.9921
  127CHL1  H27C15658   2.650   0.969  14.391  1.9076  2.2829  1.4772
  128CHL1    C315659   4.066   2.749  12.744  0.3269  1.2749 -0.3573
  128CHL1    H315660   4.124   2.664  12.786  1.2061  1.4033 -1.2602
  128CHL1    O315661   4.076   2.739  12.602 -0.2413  0.2376  0.5801
  128CHL1   H3'15662   4.015   2.801  12.561  0.6557  0.2108 -0.8466
  128CHL1    C415663   3.923   2.738  12.778  0.0018  0.1480  0.3192
  128CHL1   H4A15664   3.878   2.821  12.721  0.9554 -1.0485 -2.3431
  128CHL1   H4B15665   3.873   2.646  12.740 -1.5784  1.6834 -1.5630
  128CHL1    C515666   3.905   2.743  12.931 -0.5834 -0.3797 -0.3172
  128CHL1    C615667   3.835   2.644  12.992 -0.7546 -0.6428  0.5114
  128CHL1    H615668   3.807   2.566  12.920 -0.9164  1.3396 -1.6971
  128CHL1    C715669   3.805   2.645  13.134  0.7024 -0.3736 -0.2937
  128CHL1   H7A15670   3.696   2.633  13.153  1.1244 -1.3450  1.8761
  128CHL1   H7B15671   3.860   2.560  13.179  0.8593 -1.4571 -2.4153
  128CHL1    C815672   3.844   2.785  13.213  0.0000  0.2651  0.2845
  128CHL1    H815673   3.758   2.852  13.193  0.6181  1.1399  0.5056
  128CHL1   C1415674   3.857   2.764  13.362 -0.1630  0.4275  0.4111
  128CHL1   H1415675   3.939   2.691  13.382 -0.3047  0.5356  1.4360
  128CHL1   C1515676   3.733   2.699  13.429  0.1416 -0.7176  0.1870
  128CHL1  H15A15677   3.648   2.753  13.382  0.4416 -2.7673 -3.0290
  128CHL1  H15B15678   3.725   2.591  13.404  0.0110 -0.3429 -1.5456
  128CHL1   C1615679   3.761   2.740  13.583 -0.3394  0.4997  1.0966
  128CHL1  H16A15680   3.667   2.786  13.620  0.5175  1.3019  2.3413
  128CHL1  H16B15681   3.800   2.652  13.639  0.7624  1.2131  1.4905
  128CHL1   C1715682   3.891   2.831  13.588 -0.1749  0.5289 -0.1873
  128CHL1   H1715683   3.985   2.773  13.591 -1.5850 -1.8659 -0.3892
  128CHL1   C1315684   3.893   2.889  13.450 -0.4774  0.4908 -0.1849
  128CHL1   C1815685   3.782   2.994  13.442 -0.0258 -0.5007 -0.0757
  128CHL1  H18A15686   3.826   3.075  13.504  2.0339 -3.0609  2.0710
  128CHL1  H18B15687   3.765   3.039  13.342  1.4234  1.2970  0.4126
  128CHL1  H18C15688   3.683   2.960  13.479 -0.2689 -0.8545 -1.0301
  128CHL1   C1215689   4.024   2.944  13.395  0.7637 -0.0524 -0.3757
  128CHL1  H12A15690   4.050   3.044  13.434  2.1593 -0.3641 -0.4821
  128CHL1  H12B15691   4.106   2.872  13.416  0.5600 -0.3440 -0.5658
  128CHL1   C1115692   4.022   2.964  13.242  0.1333  0.3941 -0.0942
  128CHL1  H11A15693   3.946   3.042  13.221 -1.5938 -1.0853  0.4940
  128CHL1  H11B15694   4.120   3.004  13.207 -0.5799  3.4202  1.0650
  128CHL1    C915695   3.979   2.840  13.157 -0.0420 -0.6781 -0.2549
  128CHL1    H915696   4.051   2.760  13.185  0.5856  1.2488  4.6522
  128CHL1   C1015697   3.978   2.867  13.008 -0.0301  0.0532 -0.0472
  128CHL1   C1915698   3.896   2.999  12.980 -0.0021  1.0164 -0.5893
  128CHL1  H19A15699   3.802   3.003  13.038 -0.5283  0.1521 -1.3457
  128CHL1  H19B15700   3.957   3.091  12.985 -1.4340  2.0254 -1.1378
  128CHL1  H19C15701   3.861   3.002  12.874 -1.7725  1.3857 -0.0292
  128CHL1    C115702   4.118   2.890  12.949  0.0113  0.2587  0.2730
  128CHL1   H1A15703   4.155   2.993  12.971 -0.3717  0.2181  1.1620
  128CHL1   H1B15704   4.193   2.825  12.999  3.0947  2.9083 -0.5758
  128CHL1    C215705   4.119   2.880  12.796  0.6064  0.5014 -0.3340
  128CHL1   H2A15706   4.222   2.902  12.760  0.6121  0.2322 -0.4880
  128CHL1   H2B15707   4.060   2.964  12.752  1.7263 -0.0032 -2.9750
  128CHL1   C2015708   3.888   2.926  13.707  0.3936 -0.5275  1.0533
  128CHL1   H2015709   3.818   3.010  13.690 -0.6324 -1.7195 -0.8712
  128CHL1   C2115710   4.031   2.981  13.722  0.0416  0.2423 -0.0663
  128CHL1  H21A15711   4.044   3.053  13.639  0.1498 -1.6264 -1.7390
  128CHL1  H21B15712   4.107   2.900  13.725 -0.8436 -0.6076  1.8848
  128CHL1  H21C15713   4.036   3.030  13.821  0.7725 -1.5642  0.8486
  128CHL1   C2215714   3.842   2.858  13.841 -0.0875  0.3894  0.2244
  128CHL1  H22A15715   3.733   2.837  13.838  0.0577 -0.4356  0.6656
  128CHL1  H22B15716   3.904   2.767  13.853  0.4358  0.6490 -0.4102
  128CHL1   C2315717   3.845   2.935  13.971  1.1345  0.2159  0.2280
  128CHL1  H23A15718   3.946   2.968  14.002  0.2785  2.4344  0.8742
  128CHL1  H23B15719   3.776   3.022  13.960 -0.6829 -1.1455  0.3623
  128CHL1   C2415720   3.804   2.863  14.099 -0.7262 -0.4005  0.0752
  128CHL1  H24A15721   3.710   2.812  14.069 -0.6358  0.7618 -2.4265
  128CHL1  H24B15722   3.881   2.787  14.124  0.0875 -0.7905 -3.0997
  128CHL1   C2515723   3.768   2.960  14.221 -0.3559  0.4541  0.2978
  128CHL1   H2515724   3.690   3.029  14.182 -0.4202 -0.7998 -1.9810
  128CHL1   C2615725   3.703   2.880  14.334 -0.3250 -0.0414  0.0804
  128CHL1  H26A15726   3.610   2.833  14.296 -0.7595  0.0986  0.9305
  128CHL1  H26B15727   3.776   2.807  14.376  0.0367  0.1054 -0.2939
  128CHL1  H26C15728   3.683   2.952  14.416  2.6628 -0.2612  1.1408
  128CHL1   C2715729   3.883   3.046  14.275  0.0614  0.5072  0.2075
  128CHL1  H27A15730   3.856   3.101  14.367 -0.7298  0.0518  0.2569
  128CHL1  H27B15731   3.970   2.980  14.294  0.3501  0.8325  0.0185
  128CHL1  H27C15732   3.922   3.130  14.213  0.0189 -0.4259 -1.1318
  129CHL1    C315733   4.941   0.486  13.040 -0.2306  0.2641 -0.0034
  129CHL1    H315734   5.020   0.560  13.068  0.2878 -0.3716  0.2441
  129CHL1    O315735   4.965   0.448  12.906 -0.2412  0.3510 -0.6330
  129CHL1   H3'15736   4.910   0.370  12.901 -0.6290  0.2483  2.7721
  129CHL1    C415737   4.936   0.362  13.134  0.5020  0.2489  0.1742
  129CHL1   H4A15738   4.855   0.295  13.097  0.7148 -1.0961  2.0207
  129CHL1   H4B15739   5.033   0.310  13.117 -0.2033 -0.8019 -0.8209
  129CHL1    C515740   4.916   0.402  13.279 -0.1076 -0.7352  0.4423
  129CHL1    C615741   5.009   0.374  13.376 -0.4187  0.1430 -0.3226
  129CHL1    H615742   5.099   0.321  13.344  0.6676  1.8711 -0.2416
  129CHL1    C715743   4.984   0.384  13.523 -0.5117 -0.6089  0.7758
  129CHL1   H7A15744   5.011   0.291  13.576 -3.9203 -0.9994  2.0426
  129CHL1   H7B15745   5.040   0.473  13.559 -0.4214 -0.1444 -0.4506
  129CHL1    C815746   4.832   0.420  13.558 -0.8407  0.2857 -0.9629
  129CHL1    H815747   4.774   0.326  13.555 -1.1878  0.3390  1.7754
  129CHL1   C1415748   4.822   0.496  13.697  0.0177  0.7001 -0.3386
  129CHL1   H1415749   4.877   0.592  13.688  1.7295 -0.3871 -2.7389
  129CHL1   C1515750   4.882   0.420  13.813 -0.6448  0.0568 -0.3270
  129CHL1  H15A15751   4.856   0.313  13.798  0.5164 -0.5570  1.6066
  129CHL1  H15B15752   4.992   0.425  13.831 -0.4451 -1.4795 -0.9651
  129CHL1   C1615753   4.807   0.475  13.934  0.2483 -0.1664  0.0422
  129CHL1  H16A15754   4.762   0.384  13.979 -0.4066  0.0740 -0.1214
  129CHL1  H16B15755   4.866   0.538  14.004  0.0692 -0.3042  0.3188
  129CHL1   C1715756   4.698   0.574  13.881  0.6439 -0.7274  0.5601
  129CHL1   H1715757   4.747   0.674  13.882 -1.3008  0.5529 -4.3905
  129CHL1   C1315758   4.673   0.524  13.738  0.2969  0.5544 -0.5422
  129CHL1   C1815759   4.592   0.390  13.741  0.5269  0.9502 -0.2459
  129CHL1  H18A15760   4.496   0.409  13.795  0.5059  2.7678 -0.8361
  129CHL1  H18B15761   4.574   0.347  13.640 -1.9708 -1.4321  1.0798
  129CHL1  H18C15762   4.638   0.313  13.806 -1.9127  0.8856  1.5612
  129CHL1   C1215763   4.611   0.623  13.637 -0.0986  0.3163  0.2224
  129CHL1  H12A15764   4.503   0.645  13.644 -1.4128 -3.7356 -3.1104
  129CHL1  H12B15765   4.666   0.719  13.652  1.5631 -0.7735  1.4867
  129CHL1   C1115766   4.620   0.562  13.491 -0.2037  0.3496  0.0972
  129CHL1  H11A15767   4.553   0.474  13.492  0.4444 -0.1691  1.5768
  129CHL1  H11B15768   4.583   0.636  13.417  1.3197 -0.4947 -1.5801
  129CHL1    C915769   4.768   0.516  13.452  0.0958  0.7595 -0.1768
  129CHL1    H915770   4.834   0.605  13.446 -0.2996  1.0475 -0.3548
  129CHL1   C1015771   4.780   0.474  13.303 -0.1844  0.6604 -0.2467
  129CHL1   C1915772   4.656   0.386  13.278 -0.2456  0.6591  0.3353
  129CHL1  H19A15773   4.656   0.300  13.348 -0.7561  0.2047 -0.2135
  129CHL1  H19B15774   4.560   0.441  13.289 -1.8926 -2.4224  3.2323
  129CHL1  H19C15775   4.669   0.343  13.176 -0.5376  0.2195  0.4818
  129CHL1    C115776   4.782   0.596  13.203 -0.0971  0.8030 -0.4964
  129CHL1   H1A15777   4.678   0.636  13.203 -0.4991 -0.2003  0.5399
  129CHL1   H1B15778   4.852   0.676  13.235  2.0268 -1.3892  0.6380
  129CHL1    C215779   4.813   0.562  13.056 -0.8583  0.1003  0.4155
  129CHL1   H2A15780   4.803   0.647  12.985 -1.0200 -0.6868 -0.5132
  129CHL1   H2B15781   4.726   0.502  13.025 -2.9882  2.7856  0.8280
  129CHL1   C2015782   4.573   0.597  13.977 -0.2946  0.1878  1.2062
  129CHL1   H2015783   4.495   0.518  13.965 -1.6089  1.5401  0.4421
  129CHL1   C2115784   4.488   0.721  13.939 -0.0176 -0.3894 -0.1285
  129CHL1  H21A15785   4.543   0.811  13.973 -0.5453 -0.8655  2.1930
  129CHL1  H21B15786   4.385   0.718  13.981 -0.0336  1.7600  0.1188
  129CHL1  H21C15787   4.473   0.712  13.830 -1.6332 -1.6091  0.1497
  129CHL1   C2215788   4.605   0.594  14.131  0.1820 -0.4302  0.0598
  129CHL1  H22A15789   4.510   0.602  14.189  0.2951 -1.0846  0.3378
  129CHL1  H22B15790   4.642   0.493  14.159 -3.4081 -1.7592  0.5926
  129CHL1   C2315791   4.710   0.700  14.187 -0.7172 -0.6301  0.0986
  129CHL1  H23A15792   4.811   0.671  14.150  0.0229  1.1012  0.6734
  129CHL1  H23B15793   4.659   0.793  14.157 -2.6058 -1.1559  1.4668
  129CHL1   C2415794   4.710   0.694  14.343  0.2290 -0.4429 -0.1771
  129CHL1  H24A15795   4.612   0.736  14.373  0.6650 -0.9678  2.1589
  129CHL1  H24B15796   4.716   0.588  14.377  1.8110 -1.0514 -2.1864
  129CHL1   C2515797   4.821   0.768  14.413  0.3651 -0.3235 -0.2659
  129CHL1   H2515798   4.829   0.864  14.358  1.3337 -0.2240  0.0340
  129CHL1   C2615799   4.779   0.809  14.557  0.5255 -0.2054 -0.1845
  129CHL1  H26A15800   4.687   0.871  14.551 -0.0098 -0.9639  0.0629
  129CHL1  H26B15801   4.768   0.716  14.617  0.8433 -0.4959 -0.5709
  129CHL1  H26C15802   4.863   0.871  14.597  0.4027  0.2036 -0.5548
  129CHL1   C2715803   4.948   0.687  14.408 -0.2698 -0.1032 -0.5842
  129CHL1  H27A15804   4.917   0.600  14.470 -2.1624  0.6609 -0.3941
  129CHL1  H27B15805   4.973   0.649  14.307 -1.3145  0.1482 -0.9488
  129CHL1  H27C15806   5.043   0.729  14.447  0.2135 -1.6987  0.0309
  130CHL1    C315807   2.958   1.536  12.737  0.5331 -0.7026  0.4618
  130CHL1    H315808   2.957   1.647  12.733  0.4129 -0.7021  0.4920
  130CHL1    O315809   2.948   1.485  12.607 -0.4291  0.2973 -0.0605
  130CHL1   H3'15810   3.020   1.528  12.561  0.4059  0.7535  1.6027
  130CHL1    C415811   3.096   1.508  12.796  0.4481 -0.5701  0.1240
  130CHL1   H4A15812   3.133   1.404  12.788 -0.8083 -1.5169  4.2735
  130CHL1   H4B15813   3.158   1.576  12.733  1.8362 -1.8910 -0.0002
  130CHL1    C515814   3.102   1.552  12.941 -0.2521 -0.2181  0.4237
  130CHL1    C615815   3.203   1.635  12.976 -0.6796  1.0609 -0.3768
  130CHL1    H615816   3.266   1.664  12.891 -2.4558 -1.5805 -2.7637
  130CHL1    C715817   3.219   1.670  13.123 -0.1380  1.3557 -0.9470
  130CHL1   H7A15818   3.325   1.664  13.154 -0.4971 -0.3333  0.0483
  130CHL1   H7B15819   3.190   1.773  13.155 -1.8231 -0.0169  2.4691
  130CHL1    C815820   3.152   1.566  13.216  0.3586  0.3019 -0.3176
  130CHL1    H815821   3.205   1.469  13.209  0.1542  0.1342  0.3776
  130CHL1   C1415822   3.159   1.616  13.363  0.1087 -0.0427  0.6931
  130CHL1   H1415823   3.119   1.719  13.363 -0.9970 -0.4332  2.0464
  130CHL1   C1515824   3.295   1.636  13.422 -0.5635  0.4275  0.3204
  130CHL1  H15A15825   3.360   1.550  13.396  0.9041  1.3395  0.8479
  130CHL1  H15B15826   3.352   1.721  13.380 -0.5697  0.4869  0.4294
  130CHL1   C1615827   3.274   1.660  13.578  0.3819 -1.3422 -0.7064
  130CHL1  H16A15828   3.355   1.610  13.636  1.3007  2.7087  1.9050
  130CHL1  H16B15829   3.275   1.770  13.589 -3.8950 -1.2242  0.1014
  130CHL1   C1715830   3.132   1.603  13.603 -0.5564 -0.4433  0.1068
  130CHL1   H1715831   3.062   1.689  13.611  0.6436  0.5515  0.0480
  130CHL1   C1315832   3.082   1.535  13.471 -0.7778  0.7758 -0.6959
  130CHL1   C1815833   3.145   1.394  13.451 -1.0647  0.6219 -0.0223
  130CHL1  H18A15834   3.132   1.359  13.347  0.4723  1.9114 -0.7046
  130CHL1  H18B15835   3.254   1.384  13.471 -1.0627  0.6063 -0.0409
  130CHL1  H18C15836   3.090   1.323  13.516  0.2721 -0.7754 -0.3616
  130CHL1   C1215837   2.932   1.539  13.435 -0.4035  0.0306  0.1819
  130CHL1  H12A15838   2.883   1.471  13.508 -0.3188  2.0836  2.2409
  130CHL1  H12B15839   2.896   1.641  13.459  2.2154  0.9161  0.6047
  130CHL1   C1115840   2.912   1.499  13.284 -0.5464 -0.7427  0.2357
  130CHL1  H11A15841   2.925   1.389  13.284 -0.4844 -0.7595  2.0977
  130CHL1  H11B15842   2.805   1.524  13.264  0.5531  2.1801 -3.0165
  130CHL1    C915843   3.005   1.562  13.175  0.7067  0.0281 -0.6332
  130CHL1    H915844   2.963   1.665  13.169 -1.4939 -0.7654  0.1662
  130CHL1   C1015845   2.988   1.500  13.030  0.4041  0.3473  0.2872
  130CHL1   C1915846   2.992   1.345  13.032  0.6616 -0.4801  0.0425
  130CHL1  H19A15847   2.913   1.296  13.093 -0.2872  0.4391 -0.4127
  130CHL1  H19B15848   2.981   1.315  12.925 -0.7475 -1.4228  0.4253
  130CHL1  H19C15849   3.095   1.320  13.067 -0.2740 -2.5855  1.5279
  130CHL1    C115850   2.854   1.537  12.970  0.1803 -0.0480 -0.3371
  130CHL1   H1A15851   2.770   1.503  13.034  0.3673  3.1047  1.7922
  130CHL1   H1B15852   2.850   1.648  12.965  0.2798 -0.0761 -1.2586
  130CHL1    C215853   2.834   1.494  12.828 -0.8235 -0.2569 -0.6645
  130CHL1   H2A15854   2.739   1.537  12.790 -0.9396  1.2426  1.2080
  130CHL1   H2B15855   2.817   1.384  12.837 -0.2402 -0.2058  1.5271
  130CHL1   C2015856   3.124   1.530  13.738  0.5939 -0.7208 -0.1428
  130CHL1   H2015857   3.192   1.442  13.737 -0.3204 -1.4434 -0.8873
  130CHL1   C2115858   2.984   1.466  13.760 -0.1003  0.4324  0.9462
  130CHL1  H21A15859   2.978   1.407  13.854  0.2032  0.7845  1.1867
  130CHL1  H21B15860   2.956   1.390  13.684 -0.6740  0.5570  1.0283
  130CHL1  H21C15861   2.899   1.536  13.768 -1.9233 -1.3728 -1.2300
  130CHL1   C2215862   3.164   1.616  13.864  0.0564 -0.0542 -0.3924
  130CHL1  H22A15863   3.251   1.681  13.841  1.8583 -1.6843  1.3679
  130CHL1  H22B15864   3.084   1.691  13.881  0.6015  0.1807  1.3137
  130CHL1   C2315865   3.182   1.534  13.998 -0.7577  0.0363  0.5611
  130CHL1  H23A15866   3.083   1.489  14.019 -0.6839 -0.8048 -0.7790
  130CHL1  H23B15867   3.255   1.451  13.984 -2.4417 -1.0635 -2.5371
  130CHL1   C2415868   3.231   1.619  14.116  0.4781  0.4046 -0.0587
  130CHL1  H24A15869   3.337   1.651  14.111  1.3275 -2.2954 -0.8365
  130CHL1  H24B15870   3.176   1.715  14.106  2.1154  1.3141 -0.7766
  130CHL1   C2515871   3.194   1.551  14.247 -0.0615  0.0543  0.4513
  130CHL1   H2515872   3.084   1.534  14.240  0.0250  0.2255 -3.7198
  130CHL1   C2615873   3.271   1.417  14.252  0.3526 -0.8071 -0.3438
  130CHL1  H26A15874   3.274   1.379  14.356 -0.5255  0.9443  0.3646
  130CHL1  H26B15875   3.230   1.349  14.175  0.9502  1.7368 -3.1050
  130CHL1  H26C15876   3.376   1.433  14.219 -0.6936  1.3181 -3.0107
  130CHL1   C2715877   3.224   1.632  14.370  0.4476  0.7673  0.7720
  130CHL1  H27A15878   3.160   1.722  14.365 -1.0248 -0.1886  1.7570
  130CHL1  H27B15879   3.202   1.584  14.468  1.2516  0.4484  0.8056
  130CHL1  H27C15880   3.332   1.659  14.366  0.7427 -0.3358  0.9647
  131CHL1    C315881   1.384   0.201  13.198 -0.3359  0.5873 -0.0203
  131CHL1    H315882   1.276   0.180  13.217  0.0133 -0.2226  1.1881
  131CHL1    O315883   1.394   0.192  13.057 -0.1634 -0.8032  0.2884
  131CHL1   H3'15884   1.481   0.226  13.034 -0.8849 -0.8060 -2.8977
  131CHL1    C415885   1.408   0.341  13.248  0.3046 -0.4078  1.2650
  131CHL1   H4A15886   1.507   0.374  13.208 -1.0625 -1.3251 -3.5742
  131CHL1   H4B15887   1.337   0.408  13.195  0.4672 -0.3538  1.1109
  131CHL1    C515888   1.407   0.356  13.397  0.0181  0.1403 -0.4062
  131CHL1    C615889   1.330   0.446  13.452  0.2152  0.2315 -0.1368
  131CHL1    H615890   1.263   0.509  13.392  0.3905 -0.5793 -1.2155
  131CHL1    C715891   1.328   0.473  13.601  0.9526 -0.0271 -0.4402
  131CHL1   H7A15892   1.326   0.581  13.627 -0.9294 -0.4677  1.5124
  131CHL1   H7B15893   1.230   0.436  13.637  0.8774  0.5993  0.0059
  131CHL1    C815894   1.436   0.399  13.685  0.5120  0.0326  0.2852
  131CHL1    H815895   1.527   0.462  13.672  0.1249  0.5303 -0.0390
  131CHL1   C1415896   1.392   0.378  13.825  0.2902 -0.5016  0.9836
  131CHL1   H1415897   1.297   0.321  13.825  0.8342 -1.4433  1.7479
  131CHL1   C1515898   1.347   0.498  13.908 -0.6129 -0.1511  0.8984
  131CHL1  H15A15899   1.433   0.568  13.900 -1.7095  1.0527 -3.6774
  131CHL1  H15B15900   1.255   0.546  13.868  1.2217  0.9784 -2.4161
  131CHL1   C1615901   1.333   0.445  14.048 -0.3041  0.1035 -0.3805
  131CHL1  H16A15902   1.366   0.525  14.118 -0.2165  1.8784 -2.3554
  131CHL1  H16B15903   1.229   0.415  14.075 -0.3565 -2.1324 -2.6878
  131CHL1   C1715904   1.417   0.315  14.056 -0.0520  0.1940  0.1490
  131CHL1   H1715905   1.337   0.238  14.050  1.3418 -1.3148  0.1901
  131CHL1   C1315906   1.484   0.300  13.916 -0.4724  0.3763 -0.0669
  131CHL1   C1815907   1.622   0.376  13.916  0.1563 -0.4809 -0.3130
  131CHL1  H18A15908   1.593   0.471  13.965  0.4027 -0.2415 -0.6278
  131CHL1  H18B15909   1.699   0.313  13.967  1.3413 -0.0109 -1.4625
  131CHL1  H18C15910   1.668   0.401  13.818  1.3928  0.3615  0.4501
  131CHL1   C1215911   1.498   0.155  13.862  0.1380  0.0431  0.6717
  131CHL1  H12A15912   1.568   0.095  13.925  1.6810  2.4691  1.4120
  131CHL1  H12B15913   1.400   0.105  13.878  0.8831 -1.3767  0.9653
  131CHL1   C1115914   1.551   0.157  13.716 -0.0159 -0.1037  0.8505
  131CHL1  H11A15915   1.652   0.202  13.716  0.6140 -1.4558 -0.4715
  131CHL1  H11B15916   1.562   0.051  13.684  1.2040  0.1177  0.5179
  131CHL1    C915917   1.458   0.252  13.625  0.1516 -0.5994  0.1446
  131CHL1    H915918   1.357   0.208  13.639 -0.1863 -0.4150 -1.4523
  131CHL1   C1015919   1.501   0.254  13.473  0.4097 -0.5274 -0.3742
  131CHL1   C1915920   1.646   0.302  13.456 -0.3062  0.1459  0.0395
  131CHL1  H19A15921   1.715   0.232  13.509  0.9540  1.2608 -0.0887
  131CHL1  H19B15922   1.675   0.300  13.349 -1.5269 -1.6728 -0.3108
  131CHL1  H19C15923   1.658   0.406  13.493  2.3596  0.5851 -1.8067
  131CHL1    C115924   1.470   0.113  13.422 -0.1504  0.0611  0.2871
  131CHL1   H1A15925   1.553   0.052  13.466 -1.3268 -0.5351  1.7468
  131CHL1   H1B15926   1.372   0.078  13.459 -0.4669  0.7382  0.0962
  131CHL1    C215927   1.470   0.101  13.265 -0.9354 -0.0521  0.1332
  131CHL1   H2A15928   1.446  -0.006  13.243 -0.1616 -0.2239  0.1052
  131CHL1   H2B15929   1.577   0.102  13.234 -0.2226 -0.8593  2.3977
  131CHL1   C2015930   1.494   0.300  14.189 -0.1003  0.0929  0.1475
  131CHL1   H2015931   1.562   0.388  14.191 -1.7119  1.3700  1.4351
  131CHL1   C2115932   1.581   0.172  14.205 -0.0525 -0.2052  0.1734
  131CHL1  H21A15933   1.634   0.158  14.109 -0.8122  0.3088 -0.3336
  131CHL1  H21B15934   1.502   0.093  14.200 -2.4344  1.8413  2.3353
  131CHL1  H21C15935   1.642   0.172  14.298 -1.1013  2.2175  0.9455
  131CHL1   C2215936   1.401   0.308  14.311  0.0224 -0.3027 -0.2449
  131CHL1  H22A15937   1.350   0.407  14.305 -1.7522 -1.0998  0.9305
  131CHL1  H22B15938   1.324   0.229  14.300 -1.6199  1.4639 -2.3565
  131CHL1   C2315939   1.461   0.285  14.451 -0.2931  0.0469  0.1420
  131CHL1  H23A15940   1.380   0.269  14.525 -0.6255  0.2091 -0.1882
  131CHL1  H23B15941   1.516   0.188  14.457 -1.8997 -0.8879  0.2906
  131CHL1   C2415942   1.542   0.409  14.510 -0.6495 -0.1477  1.1935
  131CHL1  H24A15943   1.635   0.408  14.450 -0.0570  1.1408  2.0566
  131CHL1  H24B15944   1.498   0.510  14.497  1.6697  0.9958  1.7467
  131CHL1   C2515945   1.591   0.400  14.658  0.0056  0.1421 -0.2860
  131CHL1   H2515946   1.515   0.342  14.715  0.3921 -2.6009 -2.2988
  131CHL1   C2615947   1.724   0.330  14.669 -0.1331 -0.4719  0.3429
  131CHL1  H26A15948   1.718   0.235  14.611 -0.3295  0.0100 -0.4302
  131CHL1  H26B15949   1.797   0.401  14.625 -1.1901 -0.4145 -1.3976
  131CHL1  H26C15950   1.742   0.307  14.777 -0.5906  1.1884  0.8014
  131CHL1   C2715951   1.594   0.540  14.729  0.0719  0.3186  0.0310
  131CHL1  H27A15952   1.490   0.581  14.735 -0.2219 -0.1028 -1.6447
  131CHL1  H27B15953   1.644   0.536  14.828  0.4990  1.9342 -0.0891
  131CHL1  H27C15954   1.662   0.604  14.669  0.8219  0.4762  1.0153
  132CHL1    C315955   5.470   2.330  13.504 -0.0932 -0.4561  0.3314
  132CHL1    H315956   5.413   2.425  13.514  0.9664  0.1251  0.9503
  132CHL1    O315957   5.502   2.311  13.367  0.3407 -0.3414 -0.4994
  132CHL1   H3'15958   5.570   2.243  13.365  2.0211  1.2194 -3.3081
  132CHL1    C415959   5.603   2.352  13.577  0.2388 -0.0025  0.2989
  132CHL1   H4A15960   5.679   2.273  13.562  2.1420  1.8845 -0.6590
  132CHL1   H4B15961   5.651   2.448  13.548 -0.3987 -0.0244 -0.9447
  132CHL1    C515962   5.556   2.369  13.725 -0.0141 -0.6962 -0.3875
  132CHL1    C615963   5.570   2.483  13.792  0.3473 -0.5361  0.3270
  132CHL1    H615964   5.604   2.568  13.730 -0.7201 -0.2724  0.0712
  132CHL1    C715965   5.533   2.510  13.934  0.5175 -0.5668  0.4827
  132CHL1   H7A15966   5.620   2.559  13.983 -0.2145  0.8676  0.3990
  132CHL1   H7B15967   5.444   2.576  13.934  1.4355  0.9226 -3.3945
  132CHL1    C815968   5.527   2.374  14.016 -0.5381  0.0211 -0.3805
  132CHL1    H815969   5.631   2.339  14.035 -0.3253  0.8722  0.0839
  132CHL1   C1415970   5.465   2.399  14.151 -0.7789 -0.2704 -0.3428
  132CHL1   H1415971   5.365   2.444  14.133  0.0868  2.0793  0.2978
  132CHL1   C1515972   5.522   2.504  14.252 -0.3980 -0.7335 -0.5317
  132CHL1  H15A15973   5.627   2.486  14.283 -0.2847 -0.1944 -0.5954
  132CHL1  H15B15974   5.509   2.611  14.226  2.1160  0.1515  1.3996
  132CHL1   C1615975   5.450   2.473  14.385  0.0680 -0.2586  0.1611
  132CHL1  H16A15976   5.525   2.472  14.467  2.4056 -1.7350 -1.8315
  132CHL1  H16B15977   5.366   2.545  14.401 -1.1934 -1.4724 -0.7461
  132CHL1   C1715978   5.384   2.332  14.364  0.3264 -0.3013 -0.0659
  132CHL1   H1715979   5.276   2.344  14.341  0.2434  0.1917  0.5569
  132CHL1   C1315980   5.447   2.269  14.244 -0.3874 -0.7359  0.5039
  132CHL1   C1815981   5.586   2.216  14.265 -0.6539 -0.1905  0.0050
  132CHL1  H18A15982   5.657   2.290  14.309  1.5719 -1.3303 -1.5322
  132CHL1  H18B15983   5.597   2.133  14.338 -1.1639  1.3439  1.9455
  132CHL1  H18C15984   5.637   2.193  14.170 -0.9571  1.7869 -0.6835
  132CHL1   C1215985   5.350   2.184  14.169  0.3124  0.0288 -0.2473
  132CHL1  H12A15986   5.319   2.091  14.220  1.9500 -0.4950 -0.1301
  132CHL1  H12B15987   5.260   2.248  14.154  0.4324 -0.1922 -2.1772
  132CHL1   C1115988   5.405   2.149  14.031 -0.2693  0.7858  0.2472
  132CHL1  H11A15989   5.494   2.083  14.046  0.1634  1.1245 -0.7567
  132CHL1  H11B15990   5.334   2.087  13.972  1.7816 -0.2215 -1.2944
  132CHL1    C915991   5.444   2.269  13.943 -0.3578 -0.6141  0.1968
  132CHL1    H915992   5.351   2.329  13.931  0.1246  0.5779  2.0763
  132CHL1   C1015993   5.492   2.246  13.794  0.3741 -0.0070 -0.2649
  132CHL1   C1915994   5.597   2.134  13.798 -0.2484  0.0029 -0.0253
  132CHL1  H19A15995   5.641   2.114  13.698  0.4468  1.1479  0.0410
  132CHL1  H19B15996   5.686   2.159  13.860 -0.1553  0.0046 -0.1608
  132CHL1  H19C15997   5.559   2.035  13.832  0.2886 -0.2233 -0.0701
  132CHL1    C115998   5.373   2.208  13.706  0.2181 -0.8046  0.2896
  132CHL1   H1A15999   5.329   2.111  13.735 -0.6186 -1.0567 -1.6987
  132CHL1   H1B16000   5.291   2.282  13.720  2.3194  1.5587  0.8561
  132CHL1    C216001   5.391   2.209  13.552 -0.1189 -0.5185  0.0424
  132CHL1   H2A16002   5.291   2.217  13.504  0.6010  1.2719 -1.2950
  132CHL1   H2B16003   5.435   2.112  13.521  1.9258 -0.1942  1.6962
  132CHL1   C2016004   5.369   2.257  14.500  0.3035  0.3919  0.2119
  132CHL1   H2016005   5.472   2.259  14.543  0.7239  0.2876 -0.7667
  132CHL1   C2116006   5.308   2.120  14.482 -0.0639 -0.1768 -0.3463
  132CHL1  H21A16007   5.351   2.047  14.411  0.2318  2.2665 -2.8786
  132CHL1  H21B16008   5.197   2.126  14.472  0.1948  0.6855 -3.6315
  132CHL1  H21C16009   5.320   2.077  14.584  1.4472  0.5964 -0.1672
  132CHL1   C2216010   5.290   2.342  14.600  0.9925  0.0113 -0.1361
  132CHL1  H22A16011   5.346   2.432  14.632 -1.5622  1.8026 -0.4689
  132CHL1  H22B16012   5.192   2.365  14.554 -1.2011 -1.2318  3.4754
  132CHL1   C2316013   5.242   2.264  14.729 -0.5837  0.3457 -0.0873
  132CHL1  H23A16014   5.178   2.180  14.695  1.4117 -0.9599 -0.8099
  132CHL1  H23B16015   5.329   2.216  14.778 -1.2068 -0.8730 -0.1478
  132CHL1   C2416016   5.174   2.363  14.821 -0.4478  0.0599 -0.0575
  132CHL1  H24A16017   5.252   2.441  14.836 -0.0405 -0.1907 -0.7666
  132CHL1  H24B16018   5.092   2.413  14.764  1.4867  0.6169 -2.5392
  132CHL1   C2516019   5.121   2.303  14.956  0.9780  0.2857 -0.0062
  132CHL1   H2516020   5.078   2.384  15.018 -1.3062 -4.2159  5.1538
  132CHL1   C2616021   4.997   2.215  14.930  0.3262 -0.2564 -0.3069
  132CHL1  H26A16022   4.919   2.281  14.887  0.1858  1.6447  2.5738
  132CHL1  H26B16023   5.025   2.131  14.862  2.9079  0.8515 -0.7326
  132CHL1  H26C16024   4.962   2.169  15.025  1.3735  0.4221  0.4267
  132CHL1   C2716025   5.220   2.232  15.055 -0.4129 -0.1077 -0.7925
  132CHL1  H27A16026   5.200   2.274  15.156  1.7481  0.5626 -0.5794
  132CHL1  H27B16027   5.217   2.123  15.036 -1.2556 -0.0995 -0.7310
  132CHL1  H27C16028   5.322   2.274  15.039 -1.0921  2.1636  0.3668
  133CHL1    C316029   1.726   4.401  13.036 -0.1303 -0.3039 -0.0303
  133CHL1    H316030   1.661   4.328  13.088 -2.8823  1.2116 -1.1671
  133CHL1    O316031   1.738   4.382  12.897  0.0532  0.5298  0.4487
  133CHL1   H3'16032   1.732   4.472  12.865  1.0606  0.4841  0.1303
  133CHL1    C416033   1.672   4.545  13.074 -0.0308  0.6320 -0.4931
  133CHL1   H4A16034   1.738   4.612  13.016  0.4362  1.4009  0.8849
  133CHL1   H4B16035   1.570   4.566  13.034 -0.2984 -0.4636 -0.4164
  133CHL1    C516036   1.681   4.580  13.225  0.1622 -0.2663  0.0300
  133CHL1    C616037   1.566   4.620  13.286  0.0934 -0.8770  0.0975
  133CHL1    H616038   1.473   4.617  13.227 -1.2722  0.4499  2.0530
  133CHL1    C716039   1.553   4.671  13.425 -0.8978  0.4292  0.1235
  133CHL1   H7A16040   1.503   4.771  13.427  0.1333  0.9488  1.7820
  133CHL1   H7B16041   1.497   4.601  13.490  0.2919  0.6949  1.4827
  133CHL1    C816042   1.695   4.689  13.487 -0.0890 -0.3441  0.1801
  133CHL1    H816043   1.741   4.783  13.450 -0.1522  0.1040  1.2134
  133CHL1   C1416044   1.686   4.683  13.639  0.3581 -0.0111  0.3363
  133CHL1   H1416045   1.647   4.579  13.652  0.0395 -0.1015 -1.1755
  133CHL1   C1516046   1.577   4.773  13.712  0.0968 -0.6067 -0.3286
  133CHL1  H15A16047   1.577   4.864  13.649  1.6700  1.0080  1.8716
  133CHL1  H15B16048   1.473   4.733  13.721 -0.4628  1.1025  1.4025
  133CHL1   C1616049   1.642   4.798  13.847  0.6952 -0.3716  0.3746
  133CHL1  H16A16050   1.663   4.904  13.871  0.4928  0.0434 -1.1666
  133CHL1  H16B16051   1.579   4.752  13.926  1.3398 -1.0121  0.5252
  133CHL1   C1716052   1.779   4.722  13.858 -0.2775 -0.2883 -0.6176
  133CHL1   H1716053   1.742   4.628  13.905 -0.3661  1.1102  2.3918
  133CHL1   C1316054   1.822   4.704  13.714  0.3028  0.3426  0.0966
  133CHL1   C1816055   1.884   4.834  13.671  0.2401  0.3349 -0.2882
  133CHL1  H18A16056   1.885   4.855  13.562  1.1656  1.2471 -0.1184
  133CHL1  H18B16057   1.835   4.923  13.716 -0.4210 -0.4512  0.6034
  133CHL1  H18C16058   1.984   4.855  13.715 -0.9602  2.3415  1.6697
  133CHL1   C1216059   1.920   4.587  13.674  0.2421  0.0526  0.0234
  133CHL1  H12A16060   2.019   4.590  13.725  0.4659 -1.9521 -0.1805
  133CHL1  H12B16061   1.869   4.491  13.700  1.0017 -0.8642 -1.6754
  133CHL1   C1116062   1.933   4.584  13.522 -0.6025  0.1013 -0.5146
  133CHL1  H11A16063   1.992   4.675  13.497  1.6811 -0.4773  2.2448
  133CHL1  H11B16064   1.995   4.497  13.495  0.1929  0.3268  0.5144
  133CHL1    C916065   1.799   4.582  13.448 -0.8463  0.3692  0.7596
  133CHL1    H916066   1.751   4.484  13.469  1.2956 -0.9010  0.0527
  133CHL1   C1016067   1.819   4.568  13.292  0.2250 -0.1995  0.3900
  133CHL1   C1916068   1.907   4.674  13.232 -0.2611  0.1926 -0.5362
  133CHL1  H19A16069   2.004   4.662  13.284 -0.7024 -0.6665  0.1152
  133CHL1  H19B16070   1.915   4.666  13.121  0.1876  2.7378 -0.7350
  133CHL1  H19C16071   1.872   4.776  13.257  0.7964  0.1288  1.3267
  133CHL1    C116072   1.874   4.424  13.253 -0.5069 -0.1086  0.3404
  133CHL1   H1A16073   1.973   4.407  13.299 -0.0075  0.6800 -0.4064
  133CHL1   H1B16074   1.812   4.349  13.306  1.0649 -2.6404 -1.2157
  133CHL1    C216075   1.867   4.384  13.105 -0.6326  0.0629 -1.0151
  133CHL1   H2A16076   1.905   4.280  13.094  0.0524  0.1426  0.4189
  133CHL1   H2B16077   1.945   4.447  13.056 -1.0274  0.5978 -0.9608
  133CHL1   C2016078   1.882   4.790  13.957  0.2457  0.1665  0.1847
  133CHL1   H2016079   1.919   4.886  13.913 -1.9956  1.4239  0.9038
  133CHL1   C2116080   1.997   4.695  13.989  0.3062 -0.9236 -0.3337
  133CHL1  H21A16081   2.059   4.678  13.898  1.9663 -0.4458  0.6724
  133CHL1  H21B16082   1.954   4.603  14.034 -0.0890 -0.1470  0.9116
  133CHL1  H21C16083   2.067   4.725  14.069  1.7726 -1.4115 -1.3777
  133CHL1   C2216084   1.822   4.832  14.093 -0.4202 -0.3154  0.1274
  133CHL1  H22A16085   1.911   4.868  14.149  0.6724 -2.0238 -0.4230
  133CHL1  H22B16086   1.752   4.916  14.072  0.1501  0.1644  0.1285
  133CHL1   C2316087   1.757   4.729  14.181  0.1165 -0.3697 -0.6351
  133CHL1  H23A16088   1.672   4.680  14.129  0.4479 -0.6515 -0.9171
  133CHL1  H23B16089   1.827   4.645  14.198  1.3466  0.6952 -0.2987
  133CHL1   C2416090   1.704   4.788  14.311 -0.2017  0.1263  0.4956
  133CHL1  H24A16091   1.617   4.857  14.301 -1.3618 -1.2127  1.0594
  133CHL1  H24B16092   1.671   4.711  14.384 -0.0366  0.4200  0.8835
  133CHL1   C2516093   1.805   4.864  14.411  0.1102  0.6682  1.1702
  133CHL1   H2516094   1.846   4.949  14.354  0.0971  0.0887  0.2799
  133CHL1   C2616095   1.730   4.915  14.538  0.0983 -0.0354  0.6226
  133CHL1  H26A16096   1.657   4.996  14.517  0.3196  0.4048  1.5258
  133CHL1  H26B16097   1.679   4.833  14.593  0.1086 -0.2434  0.3296
  133CHL1  H26C16098   1.802   4.963  14.607 -1.1248 -0.2999  2.1254
  133CHL1   C2716099   1.914   4.762  14.464  0.3486  0.5662 -0.0392
  133CHL1  H27A16100   1.862   4.670  14.499  0.5192  0.4700 -0.0383
  133CHL1  H27B16101   1.999   4.742  14.395  0.5498 -0.6105  0.5220
  133CHL1  H27C16102   1.964   4.813  14.549  1.5141 -1.1568  0.3479
  134CHL1    C316103   5.630   4.476  13.014  0.2810 -0.1978  0.2470
  134CHL1    H316104   5.567   4.563  13.042 -0.7444 -0.5722 -0.8098
  134CHL1    O316105   5.625   4.459  12.873 -0.4644  0.3140  0.4666
  134CHL1   H3'16106   5.670   4.376  12.859 -0.6749  0.4634 -1.2763
  134CHL1    C416107   5.778   4.488  13.053  0.6080  0.2006  0.6062
  134CHL1   H4A16108   5.831   4.402  13.008 -1.5889 -0.2595 -1.2569
  134CHL1   H4B16109   5.827   4.576  13.006  0.8380  0.0415  0.5511
  134CHL1    C516110   5.802   4.495  13.201  0.5479  0.3621 -0.0952
  134CHL1    C616111   5.862   4.595  13.258 -0.0884  0.0677  0.2178
  134CHL1    H616112   5.907   4.673  13.194 -0.2889  1.1501  1.3480
  134CHL1    C716113   5.894   4.601  13.401  0.3360  0.2210 -0.4273
  134CHL1   H7A16114   5.998   4.635  13.422  0.3826 -0.2823  0.1976
  134CHL1   H7B16115   5.818   4.666  13.449  1.5050  1.4989 -0.2287
  134CHL1    C816116   5.872   4.466  13.478  0.2395  0.4387  0.3009
  134CHL1    H816117   5.960   4.403  13.453 -1.1459 -0.8059 -1.7302
  134CHL1   C1416118   5.864   4.484  13.624  0.1539 -0.1929 -0.4305
  134CHL1   H1416119   5.770   4.540  13.643 -0.6143 -0.8490 -2.0144
  134CHL1   C1516120   5.977   4.555  13.695 -0.2560  0.3103 -0.6479
  134CHL1  H15A16121   6.067   4.492  13.681 -1.5115 -1.7841  0.3476
  134CHL1  H15B16122   6.008   4.659  13.668 -0.4244  0.7612  0.8152
  134CHL1   C1616123   5.934   4.538  13.845  0.4422 -0.7348 -0.5978
  134CHL1  H16A16124   6.015   4.536  13.920  0.1174 -2.7076 -0.2589
  134CHL1  H16B16125   5.865   4.622  13.869  0.2275 -1.2836  0.7777
  134CHL1   C1716126   5.843   4.410  13.859 -0.6589  0.3562  0.0494
  134CHL1   H1716127   5.738   4.442  13.870 -0.6311 -0.0365  1.8182
  134CHL1   C1316128   5.851   4.352  13.710  0.3417 -0.2035 -0.8719
  134CHL1   C1816129   5.969   4.253  13.709  0.7508 -0.1572  0.4203
  134CHL1  H18A16130   5.997   4.213  13.609 -0.5860 -1.7485  0.6353
  134CHL1  H18B16131   6.065   4.286  13.755 -0.5308  1.0418  2.3889
  134CHL1  H18C16132   5.934   4.166  13.769  0.4264 -0.9409 -0.8571
  134CHL1   C1216133   5.729   4.276  13.660 -0.4436  0.4869 -0.6856
  134CHL1  H12A16134   5.731   4.172  13.699  0.7290  0.5231 -0.6208
  134CHL1  H12B16135   5.635   4.326  13.692 -1.0622 -0.6815 -0.6338
  134CHL1   C1116136   5.731   4.258  13.510 -0.1046  0.5483 -0.2710
  134CHL1  H11A16137   5.823   4.199  13.491  0.3625  0.7646  1.1385
  134CHL1  H11B16138   5.641   4.198  13.484  0.4333 -0.0557 -0.7736
  134CHL1    C916139   5.747   4.392  13.429 -0.3865 -0.3362 -0.1316
  134CHL1    H916140   5.662   4.461  13.451  0.5430  1.6382 -2.3318
  134CHL1   C1016141   5.744   4.369  13.276  0.0848 -0.3418  0.0933
  134CHL1   C1916142   5.815   4.236  13.235 -1.3243 -0.8386 -0.4583
  134CHL1  H19A16143   5.923   4.227  13.258 -1.3532  0.8421  0.4220
  134CHL1  H19B16144   5.770   4.150  13.289  0.4821 -1.6058 -0.1020
  134CHL1  H19C16145   5.802   4.210  13.127  0.1330  1.0372 -1.1443
  134CHL1    C116146   5.597   4.355  13.232 -0.5029 -0.2892  0.1974
  134CHL1   H1A16147   5.546   4.268  13.277 -1.3172  0.9814  1.8624
  134CHL1   H1B16148   5.541   4.435  13.285 -1.4413 -0.7045 -0.1543
  134CHL1    C216149   5.571   4.352  13.081  1.0013 -0.3963  0.6249
  134CHL1   H2A16150   5.463   4.353  13.054  1.1011  3.3242 -0.1149
  134CHL1   H2B16151   5.616   4.263  13.032 -0.1766  0.2480 -1.7888
  134CHL1   C2016152   5.878   4.314  13.979  0.1693  0.0772 -0.7789
  134CHL1   H2016153   5.979   4.268  13.976 -0.1144 -0.8091  1.3050
  134CHL1   C2116154   5.768   4.203  13.979 -0.6855 -0.3856  0.0081
  134CHL1  H21A16155   5.784   4.137  14.067 -1.6895 -0.7585 -0.0801
  134CHL1  H21B16156   5.770   4.145  13.885  0.5982  0.9982 -0.8676
  134CHL1  H21C16157   5.667   4.249  13.986 -1.0140 -1.2518  1.3590
  134CHL1   C2216158   5.875   4.393  14.112 -0.2311  0.1620  0.4193
  134CHL1  H22A16159   5.955   4.469  14.109  2.8981 -2.9242 -1.7575
  134CHL1  H22B16160   5.780   4.450  14.122  0.6139  2.1675 -1.9926
  134CHL1   C2316161   5.898   4.313  14.244 -0.2089 -0.7500  0.4671
  134CHL1  H23A16162   5.827   4.230  14.265 -0.0242 -0.6209  1.6489
  134CHL1  H23B16163   6.000   4.269  14.246  0.1321 -0.0261 -0.3602
  134CHL1   C2416164   5.890   4.410  14.369  0.0236 -0.2350  0.7231
  134CHL1  H24A16165   5.966   4.490  14.358 -1.9515  1.4586 -1.9903
  134CHL1  H24B16166   5.800   4.474  14.357  1.5117  1.7135 -0.8142
  134CHL1   C2516167   5.891   4.339  14.510  0.5771  0.5283  0.4330
  134CHL1   H2516168   5.981   4.274  14.511 -1.6249 -2.8745 -1.1157
  134CHL1   C2616169   5.895   4.439  14.619 -0.2246 -0.5671  0.4130
  134CHL1  H26A16170   5.818   4.514  14.592 -0.7900 -1.2898 -0.0217
  134CHL1  H26B16171   5.877   4.411  14.725 -1.1807  0.4043  0.5234
  134CHL1  H26C16172   5.994   4.489  14.623 -1.0891  1.3163 -0.4405
  134CHL1   C2716173   5.772   4.246  14.532  0.1461 -0.0533  0.3717
  134CHL1  H27A16174   5.752   4.166  14.457 -2.7909 -1.1122  2.1320
  134CHL1  H27B16175   5.791   4.188  14.625 -0.7264 -0.6263  0.1988
  134CHL1  H27C16176   5.676   4.301  14.539 -0.4534 -0.9664 -0.3442
  135CHL1    C316177   6.312   3.543  13.603 -0.6687  1.0811 -0.4168
  135CHL1    H316178   6.365   3.641  13.602  0.2815  0.5796 -0.2160
  135CHL1    O316179   6.252   3.509  13.482  0.0446 -0.2053  0.6850
  135CHL1   H3'16180   6.318   3.501  13.413  0.0270  3.0998  0.1350
  135CHL1    C416181   6.412   3.438  13.634 -0.2560  0.5999 -0.1894
  135CHL1   H4A16182   6.358   3.341  13.632  0.2115  0.3051  0.8518
  135CHL1   H4B16183   6.490   3.444  13.555  0.8814  0.2031  0.8495
  135CHL1    C516184   6.474   3.462  13.769 -0.0328  0.1395 -0.0920
  135CHL1    C616185   6.608   3.463  13.784  0.3317  0.1023 -0.6282
  135CHL1    H616186   6.680   3.459  13.701  2.6721 -0.9535  1.3386
  135CHL1    C716187   6.681   3.484  13.916 -0.2140 -0.4559  0.2004
  135CHL1   H7A16188   6.765   3.411  13.916 -1.3481 -1.8237 -0.4750
  135CHL1   H7B16189   6.716   3.589  13.907 -2.4572  0.3137 -0.0101
  135CHL1    C816190   6.588   3.471  14.035  0.0545  0.0505  0.0315
  135CHL1    H816191   6.572   3.363  14.057 -0.5902  0.6034  2.6975
  135CHL1   C1416192   6.648   3.541  14.155  0.4695  0.1504 -0.5670
  135CHL1   H1416193   6.646   3.651  14.140 -1.3219  0.2448  0.1152
  135CHL1   C1516194   6.789   3.511  14.194 -0.0399  0.5698  1.2018
  135CHL1  H15A16195   6.825   3.417  14.147  1.4328  1.6228  0.1202
  135CHL1  H15B16196   6.847   3.593  14.147 -0.0495 -1.2501 -2.3515
  135CHL1   C1616197   6.793   3.534  14.347  0.6580  0.6796  0.1278
  135CHL1  H16A16198   6.801   3.435  14.397 -0.5347 -0.6655 -2.1894
  135CHL1  H16B16199   6.878   3.598  14.377  1.3135  0.3612 -0.9980
  135CHL1   C1716200   6.657   3.587  14.390 -0.1859 -0.1995 -0.1204
  135CHL1   H1716201   6.650   3.692  14.355 -1.5946 -0.4445 -0.6470
  135CHL1   C1316202   6.562   3.529  14.287  0.6072  0.1179 -0.7868
  135CHL1   C1816203   6.540   3.378  14.319 -0.3512 -0.2716 -0.0178
  135CHL1  H18A16204   6.483   3.368  14.414 -1.6961 -1.8621 -0.9355
  135CHL1  H18B16205   6.496   3.323  14.233 -0.7420  0.6284 -0.4036
  135CHL1  H18C16206   6.641   3.332  14.333 -1.0172 -1.6584  0.4399
  135CHL1   C1216207   6.421   3.594  14.266 -0.7936 -0.0440 -0.5630
  135CHL1  H12A16208   6.369   3.592  14.365  0.1250  2.6229  0.0521
  135CHL1  H12B16209   6.446   3.700  14.243  1.1961 -0.8800 -2.5915
  135CHL1   C1116210   6.360   3.532  14.145 -0.2778  0.4827 -0.1831
  135CHL1  H11A16211   6.336   3.425  14.164 -1.5221  1.0898  2.1013
  135CHL1  H11B16212   6.266   3.586  14.122 -0.5933 -0.2229 -0.5748
  135CHL1    C916213   6.450   3.532  14.016 -0.1102 -0.4209  0.0359
  135CHL1    H916214   6.473   3.639  14.000 -0.0987 -0.0238  2.2969
  135CHL1   C1016215   6.377   3.482  13.893  0.2246  0.3456 -0.4042
  135CHL1   C1916216   6.302   3.352  13.927  0.1732 -0.1144 -0.1416
  135CHL1  H19A16217   6.208   3.370  13.983 -0.1536 -0.9990 -0.3849
  135CHL1  H19B16218   6.266   3.301  13.835  1.4857 -0.5940 -0.4089
  135CHL1  H19C16219   6.368   3.275  13.972  1.0887 -0.2017 -1.5430
  135CHL1    C116220   6.263   3.580  13.854 -0.3923  0.0846 -0.4029
  135CHL1   H1A16221   6.192   3.565  13.938  0.8846 -0.8951  0.5601
  135CHL1   H1B16222   6.298   3.685  13.866  0.6843 -0.2138 -0.7883
  135CHL1    C216223   6.208   3.555  13.716 -0.6964 -0.6985  1.0280
  135CHL1   H2A16224   6.154   3.648  13.687  0.5358 -0.4952 -0.7034
  135CHL1   H2B16225   6.141   3.466  13.714 -0.2181 -1.0457  0.0203
  135CHL1   C2016226   6.621   3.596  14.537  0.0171  0.2649 -0.5870
  135CHL1   H2016227   6.511   3.598  14.547  0.0438  1.1482 -0.4150
  135CHL1   C2116228   6.684   3.732  14.584  0.8434  0.8456  0.5041
  135CHL1  H21A16229   6.793   3.724  14.601  0.8945 -1.2593 -0.5176
  135CHL1  H21B16230   6.634   3.782  14.670 -1.2316  0.0703 -0.1820
  135CHL1  H21C16231   6.667   3.821  14.519 -1.8723  1.0399  1.3300
  135CHL1   C2216232   6.669   3.483  14.634  0.3441 -0.2405  0.1579
  135CHL1  H22A16233   6.633   3.387  14.592 -2.0202  0.0846  1.3040
  135CHL1  H22B16234   6.780   3.477  14.629  0.3711 -0.8222  1.1569
  135CHL1   C2316235   6.620   3.498  14.778  0.2643 -1.1871 -0.6350
  135CHL1  H23A16236   6.638   3.590  14.838 -1.7939 -2.0901  1.5278
  135CHL1  H23B16237   6.509   3.500  14.770  0.1646  3.1594 -0.8041
  135CHL1   C2416238   6.672   3.380  14.857 -0.3028  0.0029 -0.0249
  135CHL1  H24A16239   6.646   3.290  14.798 -0.0241  1.4103 -2.4568
  135CHL1  H24B16240   6.781   3.402  14.860 -0.3738  0.5542 -1.0325
  135CHL1   C2516241   6.609   3.355  15.002  0.2923 -1.0074  0.0989
  135CHL1   H2516242   6.689   3.292  15.048  0.1684 -0.8459  0.5291
  135CHL1   C2616243   6.599   3.484  15.091  0.7130  0.7341 -0.2931
  135CHL1  H26A16244   6.696   3.536  15.106  0.4489  1.5618 -1.3893
  135CHL1  H26B16245   6.525   3.554  15.047  0.6011 -0.1006 -1.4890
  135CHL1  H26C16246   6.555   3.450  15.187  3.4651  1.9111  1.5282
  135CHL1   C2716247   6.479   3.283  15.005 -0.7565  0.5211 -0.6309
  135CHL1  H27A16248   6.484   3.184  14.954 -2.5891  0.1569 -0.1679
  135CHL1  H27B16249   6.452   3.262  15.111  1.1827  1.4156  0.1006
  135CHL1  H27C16250   6.400   3.343  14.956 -0.9752  0.3011 -0.5485
  136CHL1    C316251   5.050   2.663  13.314  0.3020  0.2247 -0.0664
  136CHL1    H316252   4.945   2.629  13.316  0.4845 -0.3212  0.9215
  136CHL1    O316253   5.101   2.664  13.180 -0.1347 -0.5097 -0.4068
  136CHL1   H3'16254   5.188   2.703  13.196 -0.8724  0.1601  2.4839
  136CHL1    C416255   5.080   2.799  13.371 -0.1422  0.1613 -0.0130
  136CHL1   H4A16256   5.186   2.833  13.363 -0.4065  0.7368 -1.2199
  136CHL1   H4B16257   5.030   2.877  13.311 -0.9483  0.2318  0.7278
  136CHL1    C516258   5.038   2.794  13.514  0.4834  0.3871 -0.1367
  136CHL1    C616259   4.944   2.880  13.559 -0.2836  0.1598  0.5909
  136CHL1    H616260   4.899   2.959  13.497  1.5509  0.7388 -0.0674
  136CHL1    C716261   4.900   2.881  13.702 -0.1396  0.3711  0.0481
  136CHL1   H7A16262   4.889   2.979  13.752  0.4577  1.1124 -1.2305
  136CHL1   H7B16263   4.803   2.827  13.714 -0.5582  0.8456 -1.0512
  136CHL1    C816264   4.997   2.796  13.798  0.0639  0.2213  0.0961
  136CHL1    H816265   5.088   2.858  13.804 -0.6942  1.3238  0.5028
  136CHL1   C1416266   4.946   2.779  13.939  0.6495 -0.5639  0.6804
  136CHL1   H1416267   4.849   2.726  13.927  1.4483 -1.8721 -0.2627
  136CHL1   C1516268   4.914   2.907  14.020  0.2980  0.3921 -0.1494
  136CHL1  H15A16269   5.006   2.966  14.001  1.0088 -0.6205  0.0413
  136CHL1  H15B16270   4.828   2.972  13.996  1.1964  1.2045 -1.3232
  136CHL1   C1616271   4.924   2.860  14.166 -0.2441  0.0802  0.1898
  136CHL1  H16A16272   5.013   2.909  14.213  1.1909 -0.6329 -1.6282
  136CHL1  H16B16273   4.834   2.890  14.223  0.4538  1.0749  0.7992
  136CHL1   C1716274   4.953   2.703  14.160  0.1199 -0.3524  0.1186
  136CHL1   H1716275   4.851   2.661  14.151 -0.1565  0.1727  0.7219
  136CHL1   C1316276   5.033   2.691  14.028  0.1874 -0.1080  0.5255
  136CHL1   C1816277   5.180   2.747  14.039 -0.0739 -0.3816 -0.1904
  136CHL1  H18A16278   5.196   2.803  14.134  1.0741 -0.1962 -0.4752
  136CHL1  H18B16279   5.241   2.655  14.048 -2.1924 -2.0315 -1.7436
  136CHL1  H18C16280   5.218   2.797  13.948 -1.5400 -0.9735 -1.1635
  136CHL1   C1216281   5.023   2.553  13.971 -0.2231  0.9272  0.9312
  136CHL1  H12A16282   5.080   2.477  14.027 -0.6683 -0.1681 -0.0654
  136CHL1  H12B16283   4.920   2.514  13.956 -0.3776  1.3594  0.8385
  136CHL1   C1116284   5.092   2.557  13.831 -0.4766 -0.1161 -0.0852
  136CHL1  H11A16285   5.201   2.570  13.846 -0.5582  1.2438 -0.4746
  136CHL1  H11B16286   5.091   2.456  13.784  1.2996 -1.0024  1.6795
  136CHL1    C916287   5.029   2.659  13.737 -0.5793 -0.4463  0.1284
  136CHL1    H916288   4.928   2.614  13.725 -0.6109 -0.6697  1.1736
  136CHL1   C1016289   5.096   2.680  13.597  0.4746  0.2266  0.4344
  136CHL1   C1916290   5.246   2.708  13.619 -0.6174 -0.5106 -0.1572
  136CHL1  H19A16291   5.293   2.634  13.687 -1.9942 -0.5404  0.8078
  136CHL1  H19B16292   5.310   2.715  13.528  0.4724 -0.6778  0.5722
  136CHL1  H19C16293   5.261   2.807  13.668  0.8653 -1.4122  1.3582
  136CHL1    C116294   5.071   2.545  13.524 -0.0030 -0.5186 -0.1139
  136CHL1   H1A16295   5.129   2.460  13.566  0.9752 -0.7230 -1.7894
  136CHL1   H1B16296   4.965   2.513  13.522 -0.4433  0.8686  0.3295
  136CHL1    C216297   5.124   2.555  13.381 -0.4213  0.5555 -0.1325
  136CHL1   H2A16298   5.099   2.462  13.327 -1.7659  0.1048  1.1937
  136CHL1   H2B16299   5.235   2.565  13.378 -0.5341  2.6374  0.8098
  136CHL1   C2016300   5.013   2.651  14.288  0.0415  0.4981 -0.3311
  136CHL1   H2016301   5.120   2.682  14.288  0.0834  0.3783  0.6977
  136CHL1   C2116302   5.013   2.495  14.295  0.1898 -0.0807  1.3381
  136CHL1  H21A16303   5.084   2.449  14.222 -0.5165  0.7283  0.1001
  136CHL1  H21B16304   4.913   2.449  14.275  0.1523  0.4625  0.1718
  136CHL1  H21C16305   5.040   2.462  14.397  0.6903  2.3783  2.0383
  136CHL1   C2216306   4.944   2.716  14.414  0.1106  0.1914 -0.4509
  136CHL1  H22A16307   4.965   2.824  14.427 -0.2352  0.0610  1.5823
  136CHL1  H22B16308   4.835   2.702  14.395 -0.1501  0.8717  0.5057
  136CHL1   C2316309   4.973   2.665  14.551  0.1017 -0.8589  0.1332
  136CHL1  H23A16310   4.922   2.571  14.584 -0.4003 -0.2277  1.2251
  136CHL1  H23B16311   5.082   2.648  14.556  0.4314  0.8109 -0.6556
  136CHL1   C2416312   4.947   2.762  14.673  0.5705 -0.4116  0.4904
  136CHL1  H24A16313   4.983   2.719  14.769  0.3359 -0.3289  0.6160
  136CHL1  H24B16314   5.026   2.841  14.667  2.1918 -2.0592 -1.2283
  136CHL1   C2516315   4.808   2.824  14.684  0.2699  0.2924 -0.0025
  136CHL1   H2516316   4.790   2.891  14.597  2.6749 -1.7164 -2.2625
  136CHL1   C2616317   4.698   2.719  14.682  0.0351 -0.1078  0.1889
  136CHL1  H26A16318   4.729   2.645  14.759  4.1490  0.5831 -0.5993
  136CHL1  H26B16319   4.595   2.759  14.696  0.2686  0.3840  0.4948
  136CHL1  H26C16320   4.702   2.670  14.582 -0.9777  2.7149 -1.3380
  136CHL1   C2716321   4.802   2.901  14.811 -0.2907 -0.3976  0.0142
  136CHL1  H27A16322   4.700   2.941  14.829 -0.1343  0.2896 -0.5480
  136CHL1  H27B16323   4.831   2.845  14.902  0.2310 -1.4612 -0.7878
  136CHL1  H27C16324   4.869   2.990  14.807 -0.1586 -0.5018 -0.0857
  137CHL1    C316325   1.842   3.098  13.451 -0.0730 -0.2039 -0.5839
  137CHL1    H316326   1.929   3.159  13.484  1.1711 -2.5123  0.6798
  137CHL1    O316327   1.832   3.109  13.311  0.3502  0.0778 -0.0278
  137CHL1   H3'16328   1.743   3.076  13.296  0.4509 -0.9849  1.5061
  137CHL1    C416329   1.882   2.954  13.481 -0.3758 -0.1647 -0.6043
  137CHL1   H4A16330   1.812   2.875  13.447  0.0524 -1.7340  1.8980
  137CHL1   H4B16331   1.974   2.928  13.425 -0.2579  1.2203 -1.1042
  137CHL1    C516332   1.898   2.939  13.631 -0.2267  0.4619  0.0591
  137CHL1    C616333   2.005   2.875  13.686 -0.5348 -0.4545 -0.0199
  137CHL1    H616334   2.083   2.841  13.617 -0.3098 -0.0928  0.0562
  137CHL1    C716335   2.021   2.864  13.837 -0.3866 -1.1605  1.2346
  137CHL1   H7A16336   2.069   2.766  13.859  1.0864 -0.4683  1.1600
  137CHL1   H7B16337   2.095   2.935  13.878 -1.6143  1.6672 -1.1409
  137CHL1    C816338   1.885   2.878  13.909 -0.1432  0.8383 -0.6319
  137CHL1    H816339   1.830   2.786  13.881  1.8667 -1.1286  1.3537
  137CHL1   C1416340   1.907   2.887  14.065  0.1260  1.0326  0.1384
  137CHL1   H1416341   1.961   2.983  14.081 -0.6407  1.4460  0.2680
  137CHL1   C1516342   2.000   2.785  14.128 -0.5534  0.3497 -0.3216
  137CHL1  H15A16343   1.991   2.681  14.091  0.0333  0.3299 -0.4172
  137CHL1  H15B16344   2.107   2.814  14.118  0.1217 -2.0160 -0.6281
  137CHL1   C1616345   1.957   2.778  14.278 -0.4633 -0.1531  0.1157
  137CHL1  H16A16346   1.942   2.671  14.304  1.9536 -1.1056 -1.9466
  137CHL1  H16B16347   2.037   2.821  14.341  0.1248 -0.0299 -0.6885
  137CHL1   C1716348   1.832   2.870  14.293  0.6361 -0.4022  0.0971
  137CHL1   H1716349   1.881   2.967  14.313 -0.3383 -0.3342  2.3726
  137CHL1   C1316350   1.776   2.892  14.144  0.5396  0.3132 -0.9408
  137CHL1   C1816351   1.693   2.761  14.121  0.1424 -0.1783 -0.1805
  137CHL1  H18A16352   1.611   2.769  14.196  0.7427 -0.6983  0.5415
  137CHL1  H18B16353   1.654   2.783  14.019  0.1928  0.5485 -0.0479
  137CHL1  H18C16354   1.750   2.666  14.131  0.4899  0.0398 -0.0675
  137CHL1   C1216355   1.710   3.017  14.107  1.0276  0.1312 -0.1070
  137CHL1  H12A16356   1.611   3.012  14.158  0.7380 -0.9969 -0.7298
  137CHL1  H12B16357   1.761   3.109  14.142  1.0550 -0.1154  0.5060
  137CHL1   C1116358   1.686   3.035  13.957 -0.2700 -0.3958 -0.0740
  137CHL1  H11A16359   1.599   2.968  13.946 -0.5559 -0.3278  1.4869
  137CHL1  H11B16360   1.648   3.139  13.943 -0.4669 -0.4609 -0.0251
  137CHL1    C916361   1.812   3.003  13.870 -0.2945  0.7510 -0.5891
  137CHL1    H916362   1.874   3.092  13.891  0.5909 -0.3935  1.9886
  137CHL1   C1016363   1.777   2.994  13.720  0.4936  0.1295 -0.7376
  137CHL1   C1916364   1.659   2.891  13.702 -0.5374 -0.1422 -0.0642
  137CHL1  H19A16365   1.639   2.868  13.595  1.6299  0.4993 -0.6575
  137CHL1  H19B16366   1.681   2.789  13.739 -0.1581  0.2048  0.6775
  137CHL1  H19C16367   1.570   2.932  13.755 -0.0539 -1.8281  2.1876
  137CHL1    C116368   1.729   3.136  13.673 -0.4791 -0.3156  0.6464
  137CHL1   H1A16369   1.627   3.163  13.707  0.0496  2.3155  0.3746
  137CHL1   H1B16370   1.801   3.215  13.701  1.2816 -1.1707 -1.1957
  137CHL1    C216371   1.719   3.148  13.519  0.1036  0.5951  0.3703
  137CHL1   H2A16372   1.695   3.252  13.489 -0.2907  0.1077 -1.0841
  137CHL1   H2B16373   1.630   3.089  13.488  0.4778 -0.8630  1.9746
  137CHL1   C2016374   1.739   2.823  14.408  0.3773  0.2833  0.1427
  137CHL1   H2016375   1.689   2.728  14.382 -1.6095  1.5485 -0.9006
  137CHL1   C2116376   1.615   2.921  14.432  0.3646 -0.3207  0.6904
  137CHL1  H21A16377   1.667   3.018  14.437  2.0212 -1.2209  1.4565
  137CHL1  H21B16378   1.560   2.901  14.526 -1.3624  0.8850  0.0044
  137CHL1  H21C16379   1.541   2.929  14.349  1.2676  0.7323 -0.0451
  137CHL1   C2216380   1.813   2.786  14.538 -0.0248  0.0839  0.3702
  137CHL1  H22A16381   1.739   2.741  14.608 -0.0675 -0.3042  0.0845
  137CHL1  H22B16382   1.886   2.705  14.512  1.7344  2.6098 -3.5711
  137CHL1   C2316383   1.881   2.902  14.604  0.4589 -0.5700  0.6747
  137CHL1  H23A16384   1.962   2.943  14.539 -0.1521 -2.0189 -1.0766
  137CHL1  H23B16385   1.807   2.985  14.612  0.2724 -0.8789  2.4811
  137CHL1   C2416386   1.945   2.875  14.740 -0.0588 -0.1829 -0.3416
  137CHL1  H24A16387   1.869   2.824  14.804  1.1536  0.1209  1.4133
  137CHL1  H24B16388   2.028   2.801  14.739  0.0856 -0.0841  1.1220
  137CHL1   C2516389   1.991   3.008  14.816  0.7401  0.3910  0.4258
  137CHL1   H2516390   1.910   3.083  14.806 -0.0184 -0.0718  2.5693
  137CHL1   C2616391   2.000   2.983  14.966  0.3410  0.2108  0.4701
  137CHL1  H26A16392   2.099   2.936  14.985 -0.3798 -0.7738  2.0174
  137CHL1  H26B16393   1.991   3.082  15.017  2.2519 -0.5199  2.4018
  137CHL1  H26C16394   1.927   2.907  15.001  1.4123 -0.3838  1.5042
  137CHL1   C2716395   2.122   3.058  14.758 -0.4474  0.6910  0.2511
  137CHL1  H27A16396   2.136   3.163  14.790 -1.6051  0.7031  0.7708
  137CHL1  H27B16397   2.208   3.001  14.798 -0.7102 -0.5313 -0.8319
  137CHL1  H27C16398   2.121   3.065  14.647 -2.4707  1.3587  0.2685
  138CHL1    C316399   0.174   1.796  12.998  0.0236  0.0250 -0.0735
  138CHL1    H316400   0.145   1.899  13.028 -1.0337  0.7584 -3.1747
  138CHL1    O316401   0.185   1.799  12.853 -0.5231 -0.1236  0.3884
  138CHL1   H3'16402   0.267   1.754  12.830 -0.0463  0.3033  1.2348
  138CHL1    C416403   0.304   1.744  13.063 -0.5160  0.4172  0.2868
  138CHL1   H4A16404   0.326   1.642  13.025 -1.4536  0.1947  0.3152
  138CHL1   H4B16405   0.387   1.805  13.022 -1.3273  0.8760 -0.7054
  138CHL1    C516406   0.294   1.747  13.215  0.3241  1.0030  0.2305
  138CHL1    C616407   0.375   1.821  13.286  0.7877 -1.4071 -0.1579
  138CHL1    H616408   0.455   1.881  13.240 -0.5622  0.5605 -0.0797
  138CHL1    C716409   0.364   1.835  13.434 -0.2462  0.0675 -0.2636
  138CHL1   H7A16410   0.462   1.810  13.480 -0.4655  0.8783  0.6671
  138CHL1   H7B16411   0.335   1.937  13.466 -0.9529 -0.5031  0.9981
  138CHL1    C816412   0.263   1.739  13.499  0.3101 -0.2839  0.6340
  138CHL1    H816413   0.303   1.636  13.496 -1.7040 -1.1284  0.9098
  138CHL1   C1416414   0.234   1.777  13.640  0.2225  0.0663 -0.1632
  138CHL1   H1416415   0.186   1.877  13.637 -2.8084 -1.2676  0.9596
  138CHL1   C1516416   0.355   1.788  13.731  0.3416  0.3682 -0.5627
  138CHL1  H15A16417   0.423   1.701  13.722 -1.0195 -0.8418  0.2747
  138CHL1  H15B16418   0.408   1.881  13.703  0.3673  0.0082 -1.7588
  138CHL1   C1616419   0.284   1.797  13.872 -0.0257  0.1483  0.3255
  138CHL1  H16A16420   0.341   1.722  13.932 -1.3071  0.1903  1.6395
  138CHL1  H16B16421   0.290   1.892  13.928 -1.7114  0.4915 -0.0300
  138CHL1   C1716422   0.139   1.754  13.852 -0.4277 -0.1259  0.3820
  138CHL1   H1716423   0.068   1.839  13.841 -2.3520 -1.4618  1.7062
  138CHL1   C1316424   0.131   1.683  13.714  0.0016 -0.4303 -0.1593
  138CHL1   C1816425   0.204   1.543  13.720 -0.2135  0.0593  0.3965
  138CHL1  H18A16426   0.209   1.500  13.618 -0.5965  0.3526  0.2474
  138CHL1  H18B16427   0.308   1.530  13.757  1.2266 -1.1825 -3.5936
  138CHL1  H18C16428   0.131   1.476  13.771 -0.9255 -0.4059 -1.1860
  138CHL1   C1216429  -0.003   1.677  13.643 -0.3530 -0.1445  0.8367
  138CHL1  H12A16430  -0.075   1.605  13.688 -0.0218 -0.3993  0.9609
  138CHL1  H12B16431  -0.052   1.776  13.643 -2.4774 -1.1140 -0.8964
  138CHL1   C1116432   0.014   1.649  13.487  0.1588  0.3373 -0.1536
  138CHL1  H11A16433   0.032   1.539  13.478 -0.3393  0.1088  1.4146
  138CHL1  H11B16434  -0.084   1.675  13.442  0.3813  3.3847  0.9208
  138CHL1    C916435   0.137   1.723  13.417  0.4695  0.3385 -0.0684
  138CHL1    H916436   0.094   1.825  13.415 -3.1671 -1.0158 -1.4343
  138CHL1   C1016437   0.167   1.671  13.276 -0.1137 -0.1571 -0.5211
  138CHL1   C1916438   0.197   1.523  13.277 -0.8399  0.0879  0.4940
  138CHL1  H19A16439   0.229   1.495  13.175 -1.3732  2.5080 -0.3967
  138CHL1  H19B16440   0.282   1.491  13.342  1.4422  1.9738 -1.3906
  138CHL1  H19C16441   0.102   1.469  13.299 -0.8582  0.6231  1.7918
  138CHL1    C116442   0.046   1.703  13.186 -0.4608  0.7251 -0.1871
  138CHL1   H1A16443  -0.041   1.638  13.211 -0.0383  0.0130 -0.5393
  138CHL1   H1B16444   0.017   1.807  13.211  1.2757  0.3295  4.5892
  138CHL1    C216445   0.064   1.695  13.031  0.5233  0.3840 -0.1002
  138CHL1   H2A16446  -0.029   1.719  12.975  1.4356 -0.6250 -2.1529
  138CHL1   H2B16447   0.097   1.595  12.997  1.7581  0.5885  0.4261
  138CHL1   C2016448   0.091   1.674  13.977 -0.0547  0.5057  0.0445
  138CHL1   H2016449   0.125   1.569  13.963  1.8411  0.9056  1.3494
  138CHL1   C2116450  -0.067   1.674  13.985 -0.1460 -1.0863  0.4138
  138CHL1  H21A16451  -0.102   1.777  14.005 -1.0180 -1.4969  1.1042
  138CHL1  H21B16452  -0.084   1.606  14.072 -2.0283 -2.3897 -0.8836
  138CHL1  H21C16453  -0.114   1.640  13.890  1.8301  0.2071 -1.0992
  138CHL1   C2216454   0.148   1.726  14.109  0.2127 -0.6484 -0.4251
  138CHL1  H22A16455   0.257   1.748  14.110 -0.2829  2.7056 -2.3250
  138CHL1  H22B16456   0.088   1.819  14.123 -1.2938 -1.8181  1.4149
  138CHL1   C2316457   0.134   1.632  14.229 -0.3760 -0.2879 -0.1243
  138CHL1  H23A16458   0.035   1.582  14.231  0.5855 -2.3049 -0.5727
  138CHL1  H23B16459   0.216   1.559  14.210 -2.0784 -1.7277 -2.3510
  138CHL1   C2416460   0.141   1.717  14.359 -0.0441  0.0750  0.4283
  138CHL1  H24A16461   0.219   1.795  14.347  0.1491 -0.0234  1.0094
  138CHL1  H24B16462   0.042   1.765  14.376 -0.6876 -0.2359 -2.0728
  138CHL1   C2516463   0.184   1.647  14.491  0.3384  0.5548 -0.2326
  138CHL1   H2516464   0.276   1.588  14.474  1.4099  1.2497  2.6064
  138CHL1   C2616465   0.196   1.754  14.597 -0.4609  0.3187  0.1268
  138CHL1  H26A16466   0.246   1.846  14.558  0.2730  0.1590  0.6710
  138CHL1  H26B16467   0.099   1.801  14.622 -0.3788 -0.2171  1.4923
  138CHL1  H26C16468   0.246   1.733  14.693 -0.9650  0.3310  0.3947
  138CHL1   C2716469   0.080   1.547  14.531 -0.2729  0.1760  0.1826
  138CHL1  H27A16470  -0.016   1.604  14.530 -0.0500  0.5498  0.1743
  138CHL1  H27B16471   0.073   1.460  14.462 -0.0051  0.8289 -0.6678
  138CHL1  H27C16472   0.109   1.509  14.632  1.8807  2.0912  0.3613
  139CHL1    C316473   1.544   1.318  13.113  0.0215 -0.8560  0.7872
  139CHL1    H316474   1.459   1.388  13.104  1.0487  0.3061 -0.1840
  139CHL1    O316475   1.585   1.286  12.984  0.1437 -0.3701 -0.7899
  139CHL1   H3'16476   1.601   1.192  12.982 -0.7871 -0.5851 -3.9118
  139CHL1    C416477   1.665   1.382  13.186  0.1742 -0.0239 -0.4622
  139CHL1   H4A16478   1.741   1.302  13.192 -0.4731 -0.6641 -0.7299
  139CHL1   H4B16479   1.698   1.475  13.134 -0.0983  0.0381 -0.5267
  139CHL1    C516480   1.633   1.406  13.336 -0.3906 -0.4023  0.7717
  139CHL1    C616481   1.652   1.528  13.384 -0.3440 -0.1530  0.7543
  139CHL1    H616482   1.690   1.608  13.319  1.2827  0.4379  2.3485
  139CHL1    C716483   1.629   1.568  13.526 -0.0506 -0.4118  0.2872
  139CHL1   H7A16484   1.722   1.624  13.548 -0.6753  1.9735 -2.6058
  139CHL1   H7B16485   1.544   1.637  13.543  0.3387  0.0712  0.2834
  139CHL1    C816486   1.607   1.444  13.621  0.2778 -0.4490 -0.3483
  139CHL1    H816487   1.701   1.387  13.635 -1.2219 -2.8602  0.5528
  139CHL1   C1416488   1.564   1.485  13.764  0.4497 -0.3634  0.3021
  139CHL1   H1416489   1.467   1.540  13.765  0.1199 -0.8097 -1.6473
  139CHL1   C1516490   1.671   1.575  13.837 -0.1266 -0.4096  0.1713
  139CHL1  H15A16491   1.775   1.538  13.820 -0.2814 -1.7017  1.7694
  139CHL1  H15B16492   1.676   1.685  13.830  1.4881 -0.5435 -2.2109
  139CHL1   C1616493   1.635   1.534  13.983 -0.2903 -0.2418  0.2476
  139CHL1  H16A16494   1.729   1.495  14.028  2.5090  1.0888 -3.9171
  139CHL1  H16B16495   1.601   1.624  14.040  2.2658  0.5520  0.6539
  139CHL1   C1716496   1.529   1.428  13.992  0.4632 -0.8216 -0.0306
  139CHL1   H1716497   1.431   1.480  13.991  1.7657  1.7541 -1.0921
  139CHL1   C1316498   1.546   1.362  13.853  0.7089  0.5708  0.4593
  139CHL1   C1816499   1.670   1.265  13.853 -0.5808 -0.4086 -0.8598
  139CHL1  H18A16500   1.761   1.330  13.857  0.4635 -1.8808  0.4642
  139CHL1  H18B16501   1.684   1.209  13.948  2.3881  0.8961 -0.4020
  139CHL1  H18C16502   1.678   1.197  13.766 -0.0821 -1.6696  0.1448
  139CHL1   C1216503   1.427   1.283  13.792  0.0794  0.5223  0.5439
  139CHL1  H12A16504   1.419   1.191  13.855 -0.2205 -0.0965 -0.3803
  139CHL1  H12B16505   1.340   1.350  13.809  0.5651  1.5074 -0.7052
  139CHL1   C1116506   1.443   1.233  13.644  0.3931 -0.3565 -0.4179
  139CHL1  H11A16507   1.511   1.146  13.654 -0.2461 -0.7520  0.5818
  139CHL1  H11B16508   1.347   1.195  13.602  0.0969 -0.9684  0.7770
  139CHL1    C916509   1.509   1.341  13.550  0.1340  0.2517 -0.2404
  139CHL1    H916510   1.421   1.398  13.515 -0.8844 -0.8995  0.3555
  139CHL1   C1016511   1.574   1.290  13.416  0.6045 -0.7981 -0.1754
  139CHL1   C1916512   1.689   1.188  13.445 -0.1579 -0.1180 -0.1069
  139CHL1  H19A16513   1.655   1.092  13.489  2.5915 -0.5531  1.2570
  139CHL1  H19B16514   1.742   1.162  13.351  0.6583  0.4781  0.1793
  139CHL1  H19C16515   1.756   1.229  13.524  3.2582 -3.9938 -0.6961
  139CHL1    C116516   1.466   1.213  13.329 -0.6164 -0.2103 -0.4910
  139CHL1   H1A16517   1.431   1.121  13.381  0.3040 -0.9170 -1.0886
  139CHL1   H1B16518   1.376   1.275  13.314 -0.4726  0.1015 -0.0980
  139CHL1    C216519   1.507   1.183  13.186 -0.0660  0.0357  0.1743
  139CHL1   H2A16520   1.423   1.136  13.130 -1.1160 -0.3543  2.0052
  139CHL1   H2B16521   1.595   1.115  13.194  0.3428  0.6990  1.5130
  139CHL1   C2016522   1.543   1.354  14.123 -0.1666  0.2002 -0.3076
  139CHL1   H2016523   1.641   1.304  14.134 -0.2456  0.6058  3.4907
  139CHL1   C2116524   1.435   1.252  14.136  0.4703  0.5243  0.2281
  139CHL1  H21A16525   1.454   1.196  14.230  1.2123  1.5228  0.6885
  139CHL1  H21B16526   1.444   1.178  14.053 -0.0404  1.5749 -0.7815
  139CHL1  H21C16527   1.332   1.292  14.124  0.8161  0.5458 -5.1116
  139CHL1   C2216528   1.541   1.451  14.253 -0.4239  0.5378 -0.3783
  139CHL1  H22A16529   1.642   1.497  14.263 -0.3917  0.3843  0.0378
  139CHL1  H22B16530   1.463   1.527  14.232 -0.2342  0.9651  0.4304
  139CHL1   C2316531   1.507   1.395  14.393  0.2249  0.1083  0.3212
  139CHL1  H23A16532   1.409   1.345  14.379  1.1690 -1.5812 -0.5826
  139CHL1  H23B16533   1.585   1.320  14.417  1.1583  0.5943 -1.1150
  139CHL1   C2416534   1.500   1.500  14.498 -0.0663 -0.3216 -0.5759
  139CHL1  H24A16535   1.592   1.564  14.505 -1.9910  2.5768  0.1119
  139CHL1  H24B16536   1.413   1.563  14.470 -0.6409  0.3971  2.5117
  139CHL1   C2516537   1.461   1.448  14.639  0.3267 -0.4362 -0.4430
  139CHL1   H2516538   1.535   1.371  14.669 -0.5048 -0.3015  2.1854
  139CHL1   C2616539   1.459   1.576  14.732 -0.6365 -0.3780 -1.2576
  139CHL1  H26A16540   1.447   1.533  14.834  1.2817  1.8968  0.0702
  139CHL1  H26B16541   1.556   1.631  14.736 -0.7852 -0.0889  3.0251
  139CHL1  H26C16542   1.380   1.647  14.699 -0.9396 -0.5754 -0.9676
  139CHL1   C2716543   1.327   1.373  14.642 -0.4522 -0.7252  0.2964
  139CHL1  H27A16544   1.241   1.441  14.625 -1.8574 -2.9343 -1.9799
  139CHL1  H27B16545   1.320   1.312  14.550  1.0196 -0.7263  0.1635
  139CHL1  H27C16546   1.304   1.318  14.736  1.1831 -2.9751 -0.5306
  140CHL1    C316547   0.904   1.694  13.473 -0.6733  0.2615 -0.3690
  140CHL1    H316548   0.850   1.607  13.517 -1.1939  0.6225 -0.2809
  140CHL1    O316549   0.890   1.680  13.336 -0.2303 -0.2634 -0.8203
  140CHL1   H3'16550   0.947   1.748  13.299  0.9270  0.0280  1.3127
  140CHL1    C416551   0.849   1.830  13.521  0.1401  0.1960  0.3409
  140CHL1   H4A16552   0.905   1.919  13.486  1.1046 -0.0549  1.2136
  140CHL1   H4B16553   0.747   1.844  13.477  0.2517 -1.0952 -0.3764
  140CHL1    C516554   0.845   1.843  13.676  0.6274  0.1048  0.5709
  140CHL1    C616555   0.724   1.864  13.740 -0.3100 -0.0122  0.1729
  140CHL1    H616556   0.636   1.873  13.675  1.3088  0.2082 -2.1110
  140CHL1    C716557   0.722   1.880  13.891 -0.6458  0.0053  0.5407
  140CHL1   H7A16558   0.666   1.974  13.913 -0.6348  0.5993 -1.6402
  140CHL1   H7B16559   0.665   1.795  13.934 -2.3214  0.7727 -0.0418
  140CHL1    C816560   0.865   1.889  13.956  0.0363  0.3256  0.3451
  140CHL1    H816561   0.889   1.997  13.948 -1.6740  0.8664  1.8891
  140CHL1   C1416562   0.860   1.853  14.103  0.2315 -0.2713 -0.5813
  140CHL1   H1416563   0.839   1.744  14.104 -2.6189  0.2052 -0.5233
  140CHL1   C1516564   0.751   1.921  14.193 -0.2510  0.2205 -0.6333
  140CHL1  H15A16565   0.760   2.031  14.178  1.4703  0.3783  1.2164
  140CHL1  H15B16566   0.645   1.890  14.180 -0.9870  2.4352 -0.3109
  140CHL1   C1616567   0.799   1.885  14.336 -0.3003  0.7055 -0.0745
  140CHL1  H16A16568   0.801   1.974  14.404 -1.0712 -0.6351  1.8010
  140CHL1  H16B16569   0.729   1.809  14.375  1.3313 -0.2376  1.1425
  140CHL1   C1716570   0.936   1.822  14.326 -0.2144 -0.2978  0.1952
  140CHL1   H1716571   0.928   1.711  14.320 -1.9706 -0.2103  0.3917
  140CHL1   C1316572   0.988   1.865  14.185  0.1766 -0.2742 -0.1946
  140CHL1   C1816573   1.029   2.016  14.197 -0.1771 -0.3497 -0.0559
  140CHL1  H18A16574   0.973   2.070  14.276 -0.8170  1.0006 -1.3985
  140CHL1  H18B16575   1.138   2.024  14.217 -0.4035  0.7074  0.8540
  140CHL1  H18C16576   1.020   2.075  14.104  1.1072  3.1329  1.8641
  140CHL1   C1216577   1.099   1.780  14.114  0.8256 -0.3869  0.0169
  140CHL1  H12A16578   1.197   1.801  14.162  0.1889  1.3367  0.6299
  140CHL1  H12B16579   1.083   1.670  14.123 -0.1224 -0.2592 -0.0263
  140CHL1   C1116580   1.108   1.816  13.962  0.3261  0.8773  0.2045
  140CHL1  H11A16581   1.123   1.927  13.966 -0.6268  1.0453 -0.5500
  140CHL1  H11B16582   1.192   1.762  13.915 -0.4912  0.3451 -0.6735
  140CHL1    C916583   0.975   1.792  13.886  0.6403  0.0508  0.6170
  140CHL1    H916584   0.936   1.689  13.900  0.9950 -0.8618 -3.6788
  140CHL1   C1016585   0.984   1.816  13.735  0.0130  0.6416  0.0693
  140CHL1   C1916586   1.075   1.933  13.696 -0.0833  0.2962 -0.6485
  140CHL1  H19A16587   1.088   1.962  13.590 -0.0856  1.8385 -0.2486
  140CHL1  H19B16588   1.030   2.020  13.749  0.4984 -1.7473  3.6097
  140CHL1  H19C16589   1.178   1.928  13.736 -0.0624 -0.2429 -0.7681
  140CHL1    C116590   1.049   1.692  13.666 -0.2805  0.0961 -0.6829
  140CHL1   H1A16591   1.153   1.679  13.702 -0.0854  3.6965  0.4364
  140CHL1   H1B16592   0.998   1.601  13.705  1.5749 -0.9989 -0.7388
  140CHL1    C216593   1.050   1.692  13.512 -0.6252  0.0629 -0.0667
  140CHL1   H2A16594   1.091   1.597  13.471  3.6943  1.2582  0.9956
  140CHL1   H2B16595   1.116   1.774  13.477  2.0778 -2.1850 -0.6278
  140CHL1   C2016596   1.028   1.847  14.441 -0.5566  0.7241  0.7778
  140CHL1   H2016597   1.063   1.952  14.436  3.4187 -0.3840  1.2955
  140CHL1   C2116598   1.161   1.766  14.436 -0.3379  0.4516 -0.0368
  140CHL1  H21A16599   1.131   1.659  14.438 -0.6159  0.5302  0.2485
  140CHL1  H21B16600   1.225   1.785  14.525  0.1242 -0.0611 -0.2525
  140CHL1  H21C16601   1.219   1.771  14.342 -2.8873 -0.2184 -1.7682
  140CHL1   C2216602   0.947   1.831  14.574 -0.0617  0.3072 -0.9734
  140CHL1  H22A16603   0.889   1.926  14.577 -3.0048 -1.3839 -0.6507
  140CHL1  H22B16604   0.873   1.748  14.572 -2.0286  1.9752 -0.9453
  140CHL1   C2316605   1.028   1.828  14.704  0.4484  1.0896 -0.2124
  140CHL1  H23A16606   1.072   1.727  14.718 -1.8073  0.1184  0.3899
  140CHL1  H23B16607   1.115   1.895  14.688  0.5801  1.3642  1.4652
  140CHL1   C2416608   0.951   1.877  14.830 -0.0369  0.0382  0.9279
  140CHL1  H24A16609   0.914   1.982  14.822  3.6195  1.5534  1.8449
  140CHL1  H24B16610   0.864   1.808  14.842 -2.0469  2.0424 -1.0864
  140CHL1   C2516611   1.042   1.847  14.953 -1.0172 -0.0559  0.1967
  140CHL1   H2516612   1.084   1.747  14.932 -0.1797 -0.1001  1.8665
  140CHL1   C2616613   0.966   1.823  15.085  0.3698  0.4711 -0.8654
  140CHL1  H26A16614   1.035   1.798  15.168  0.4216  1.0707 -0.7251
  140CHL1  H26B16615   0.915   1.919  15.106 -1.3437 -0.6861  0.5597
  140CHL1  H26C16616   0.888   1.743  15.084 -0.1538  0.9702 -2.1447
  140CHL1   C2716617   1.156   1.943  14.980  0.5730  0.1419 -0.3299
  140CHL1  H27A16618   1.211   1.904  15.068 -0.8860  1.0472  1.0258
  140CHL1  H27B16619   1.226   1.937  14.893  0.7680  0.1173 -0.1722
  140CHL1  H27C16620   1.128   2.050  14.987  2.0660  0.4882  0.9606
  141DOPC     N16621   4.304   3.427  17.732  0.2088  0.5957  0.2362
  141DOPC   C1216622   4.193   3.383  17.640 -0.6308  0.8446 -0.8562
  141DOPC  H12A16623   4.156   3.473  17.594 -2.1073  2.7741  3.4945
  141DOPC  H12B16624   4.112   3.338  17.696 -2.6021  1.6801 -2.8955
  141DOPC   C1316625   4.262   3.533  17.826  0.7511  0.0521 -0.3899
  141DOPC  H13A16626   4.198   3.603  17.773  0.8845  0.9600  0.6039
  141DOPC  H13B16627   4.197   3.494  17.903  0.6468  1.9398  0.5372
  141DOPC  H13C16628   4.343   3.589  17.870  0.6601  1.7443 -2.1783
  141DOPC   C1416629   4.413   3.479  17.657  0.3978 -0.1049 -0.0627
  141DOPC  H14A16630   4.387   3.564  17.594  1.1291  0.9468  1.0010
  141DOPC  H14B16631   4.488   3.522  17.722  1.2632  0.1190 -1.1757
  141DOPC  H14C16632   4.454   3.403  17.592 -1.8224  0.5174 -2.3401
  141DOPC   C1516633   4.356   3.308  17.807  1.2033 -0.0531  0.1541
  141DOPC  H15A16634   4.453   3.331  17.849  0.8195 -1.4982  1.9043
  141DOPC  H15B16635   4.379   3.228  17.738  1.1348 -0.3488  0.4759
  141DOPC  H15C16636   4.292   3.264  17.881 -1.0577  2.5649 -0.0861
  141DOPC   C1116637   4.224   3.270  17.538  0.1466  0.5331 -0.5997
  141DOPC  H11A16638   4.146   3.269  17.459 -1.4491  2.0925  0.8514
  141DOPC  H11B16639   4.322   3.293  17.491  0.3887 -0.2735 -0.5163
  141DOPC     P16640   4.098   3.071  17.652 -0.8160 -0.0331  0.1427
  141DOPC   O1316641   4.014   3.163  17.733  0.3974  0.0613 -0.1511
  141DOPC   O1416642   4.135   2.944  17.717  0.5514 -0.0208  0.2569
  141DOPC   O1216643   4.237   3.139  17.601  0.0069 -0.1843  0.2504
  141DOPC   O1116644   4.021   3.031  17.515  0.0538  0.2429 -0.0387
  141DOPC    C116645   4.101   2.990  17.402  0.0328  0.1841  0.1778
  141DOPC    HA16646   4.124   2.883  17.418  2.3370  0.0242 -3.0655
  141DOPC    HB16647   4.198   3.044  17.394 -0.5668  1.1066 -1.1635
  141DOPC    C216648   4.018   2.995  17.269 -0.6453 -0.3819 -0.5901
  141DOPC    HS16649   4.082   2.962  17.184 -1.4659  0.4888 -1.5712
  141DOPC   O2116650   3.961   3.124  17.248 -0.0042 -0.2379 -0.3843
  141DOPC   C2116651   4.032   3.208  17.182  0.1962 -0.2700  0.3642
  141DOPC   O2216652   4.143   3.196  17.144  0.2399  0.2004 -0.3949
  141DOPC   C2216653   3.949   3.328  17.150  0.2249  0.4582  0.1042
  141DOPC   H2R16654   3.944   3.400  17.235 -1.4319 -0.5255  0.8929
  141DOPC   H2S16655   3.843   3.296  17.137  0.4216  0.3740 -1.4655
  141DOPC    C316656   3.908   2.890  17.257  0.1220 -0.4140 -0.5114
  141DOPC    HX16657   3.849   2.906  17.349 -0.0382  4.2489 -1.1587
  141DOPC    HY16658   3.946   2.786  17.255 -1.9422 -1.2098 -0.8623
  141DOPC   O3116659   3.825   2.913  17.139 -0.2987 -0.1454  0.2388
  141DOPC   C3116660   3.710   2.967  17.158 -0.1833  0.3895  0.5554
  141DOPC   O3216661   3.663   2.998  17.264 -0.0062 -0.2126 -0.3712
  141DOPC   C3216662   3.639   2.987  17.023  0.1532 -0.2578 -0.7504
  141DOPC   H2X16663   3.530   2.976  17.035  0.3140  0.3902  1.9184
  141DOPC   H2Y16664   3.666   3.092  16.999 -2.4269  0.8870  0.9519
  141DOPC   C2316665   3.993   3.401  17.019  0.0140  0.3468  0.5672
  141DOPC   H3R16666   3.978   3.335  16.931 -2.2182  3.5356 -1.6309
  141DOPC   H3S16667   4.100   3.430  17.027 -0.3314  1.8158  0.1674
  141DOPC   C2416668   3.904   3.519  16.996  0.1773  0.6173  0.5339
  141DOPC   H4R16669   3.913   3.584  17.086 -0.7714 -0.0625  1.1501
  141DOPC   H4S16670   3.796   3.498  16.982  0.4237 -0.2071 -0.1881
  141DOPC   C2516671   3.942   3.602  16.872 -0.3328 -0.1077 -0.0666
  141DOPC   H5R16672   4.051   3.614  16.855 -0.6313  3.9474 -0.0784
  141DOPC   H5S16673   3.899   3.705  16.876  1.6670  0.7763  4.1228
  141DOPC   C2616674   3.888   3.542  16.738 -0.3845 -0.2269 -0.7227
  141DOPC   H6R16675   3.777   3.549  16.739 -0.5847 -2.6615  0.6051
  141DOPC   H6S16676   3.900   3.432  16.738 -1.1697 -0.3289  0.4258
  141DOPC   C2716677   3.953   3.613  16.625 -0.4705  0.2014 -0.2627
  141DOPC   H7R16678   4.063   3.593  16.634 -0.5827 -0.1680  0.4123
  141DOPC   H7S16679   3.930   3.720  16.641 -0.1478  0.3328 -0.6574
  141DOPC   C2816680   3.903   3.568  16.489 -0.2715  0.0616  0.5098
  141DOPC   H8R16681   3.945   3.630  16.406 -1.5954  0.7312  0.3149
  141DOPC   H8S16682   3.794   3.588  16.486 -0.5126 -1.2714 -0.9896
  141DOPC   C2916683   3.948   3.424  16.466  0.2298 -0.6005 -0.5467
  141DOPC   H9R16684   3.933   3.356  16.552 -1.6786  0.7623  0.2893
  141DOPC  C21016685   4.010   3.373  16.355 -1.0451  0.2692  0.3146
  141DOPC  H10R16686   4.037   3.267  16.358 -1.7138  0.1031  0.5959
  141DOPC  C21116687   4.050   3.441  16.225 -0.3629 -0.2635 -0.1129
  141DOPC  H11R16688   4.158   3.425  16.202 -0.1783  1.1102 -0.2505
  141DOPC  H11S16689   4.036   3.550  16.235 -0.5116 -0.2412 -0.5701
  141DOPC  C21216690   3.977   3.380  16.108  0.8964 -0.3834  0.1505
  141DOPC  H12R16691   3.872   3.415  16.119  1.5301  1.2696  1.3733
  141DOPC  H12S16692   3.964   3.270  16.103  0.1577 -0.2643 -3.7073
  141DOPC  C21316693   4.025   3.423  15.975  0.7136  0.4377 -0.3591
  141DOPC  H13R16694   4.035   3.532  15.997 -0.9852  0.0074  3.0963
  141DOPC  H13S16695   3.950   3.399  15.897 -0.1372 -0.5220  0.7352
  141DOPC  C21416696   4.153   3.358  15.934 -0.3570 -0.3157  0.3336
  141DOPC  H14R16697   4.140   3.250  15.911  1.0959 -0.8344  1.7583
  141DOPC  H14S16698   4.208   3.349  16.030 -3.0865 -0.1466  2.0085
  141DOPC  C21516699   4.241   3.439  15.840  0.0479 -0.1296 -0.4830
  141DOPC  H15R16700   4.329   3.373  15.830 -0.6345 -1.1457  0.0920
  141DOPC  H15S16701   4.272   3.534  15.889  0.7335 -0.5133 -0.1696
  141DOPC  C21616702   4.176   3.474  15.704  0.4271  0.0200  0.4225
  141DOPC  H16R16703   4.073   3.513  15.722  0.1503 -1.1445  1.5102
  141DOPC  H16S16704   4.172   3.386  15.636  1.4519  0.3767 -0.1154
  141DOPC  C21716705   4.253   3.586  15.632  0.4155  0.4013 -0.4040
  141DOPC  H17R16706   4.297   3.656  15.706 -1.6825 -1.1912  2.5598
  141DOPC  H17S16707   4.190   3.637  15.555  1.2710 -1.7963 -2.7014
  141DOPC  C21816708   4.365   3.534  15.539  0.0713 -0.0915  0.6371
  141DOPC  H18R16709   4.430   3.619  15.512 -0.0064 -0.2693 -0.1365
  141DOPC  H18S16710   4.322   3.482  15.451 -0.6618  0.0611  0.8987
  141DOPC  H18T16711   4.426   3.463  15.600 -1.8170 -1.6972  0.8007
  141DOPC   C3316712   3.687   2.888  16.911  0.2872 -0.9438  0.1021
  141DOPC   H3X16713   3.652   2.794  16.958  0.1685 -0.2304  1.4900
  141DOPC   H3Y16714   3.796   2.884  16.890  0.5355 -0.6016  1.2949
  141DOPC   C3416715   3.614   2.909  16.775 -0.1347 -0.7515  0.5927
  141DOPC   H4X16716   3.503   2.909  16.787 -0.1190  1.8604  1.3858
  141DOPC   H4Y16717   3.650   2.818  16.722  0.0290 -1.6195  2.1268
  141DOPC   C3516718   3.649   3.043  16.694 -0.1585  1.1154  0.4991
  141DOPC   H5X16719   3.760   3.054  16.696  0.0986 -0.9918  0.0855
  141DOPC   H5Y16720   3.610   3.126  16.757  1.1396  1.0607  1.4150
  141DOPC   C3616721   3.591   3.056  16.557 -0.0420 -0.0645  0.1356
  141DOPC   H6X16722   3.488   3.017  16.544 -0.9983  1.9524  1.1298
  141DOPC   H6Y16723   3.591   3.159  16.515 -1.0256  0.8550  2.2330
  141DOPC   C3716724   3.683   2.971  16.462  0.1159  0.3501 -0.4833
  141DOPC   H7X16725   3.749   2.905  16.523  1.1272  1.9428  0.1990
  141DOPC   H7Y16726   3.617   2.902  16.404 -1.0966  1.3529 -0.3365
  141DOPC   C3816727   3.781   3.054  16.368  0.1178  0.3334 -0.4648
  141DOPC   H8X16728   3.846   2.971  16.331 -1.8246 -1.3249 -0.3142
  141DOPC   H8Y16729   3.840   3.125  16.430  0.9360 -1.4865  0.9158
  141DOPC   C3916730   3.725   3.122  16.247 -0.4166 -0.8464 -0.5846
  141DOPC   H9X16731   3.670   3.211  16.278  0.7962  0.0187 -0.8451
  141DOPC  C31016732   3.722   3.089  16.116 -0.1878 -0.6734 -0.5452
  141DOPC  H10X16733   3.696   3.164  16.041 -1.1066 -1.7980 -1.3790
  141DOPC  C31116734   3.787   2.969  16.056 -0.1591  0.7547 -0.4844
  141DOPC  H11X16735   3.718   2.901  16.001  0.2875  1.0482 -1.4444
  141DOPC  H11Y16736   3.841   2.905  16.129 -0.3491  0.7532 -0.3464
  141DOPC  C31216737   3.892   3.008  15.947  0.3416  0.0438 -0.4036
  141DOPC  H12X16738   3.951   2.917  15.921  0.4770  0.0116  0.0215
  141DOPC  H12Y16739   3.967   3.070  16.001  0.8234 -0.8231 -0.0644
  141DOPC  C31316740   3.831   3.080  15.828  0.1729 -0.5262  0.2041
  141DOPC  H13X16741   3.740   3.034  15.784 -3.5315  2.7815  3.5016
  141DOPC  H13Y16742   3.801   3.179  15.868 -0.7332 -1.1993  1.2441
  141DOPC  C31416743   3.934   3.096  15.713 -0.6566 -0.6078  0.3153
  141DOPC  H14X16744   4.016   3.161  15.748  0.5066 -1.4653 -0.7396
  141DOPC  H14Y16745   3.961   2.990  15.695 -0.7758 -0.3373 -1.7833
  141DOPC  C31516746   3.870   3.144  15.586 -0.2185 -0.1455 -0.2125
  141DOPC  H15X16747   3.820   3.241  15.608 -0.1578 -0.3700  1.0032
  141DOPC  H15Y16748   3.792   3.068  15.566 -0.0581 -0.6535  1.0112
  141DOPC  C31616749   3.969   3.150  15.460 -0.1280 -0.0771  0.3256
  141DOPC  H16X16750   4.038   3.237  15.459  0.9796 -0.8356  2.9771
  141DOPC  H16Y16751   4.039   3.067  15.479  0.7264  0.3557 -0.8132
  141DOPC  C31716752   3.901   3.115  15.326  0.1710 -0.1498 -0.3063
  141DOPC  H17X16753   3.976   3.130  15.245  0.0351 -1.6549 -0.7486
  141DOPC  H17Y16754   3.887   3.005  15.326 -1.8268  0.0258  2.1291
  141DOPC  C31816755   3.769   3.187  15.290  0.2798  0.4596 -0.3859
  141DOPC  H18X16756   3.773   3.297  15.301  2.8955  0.2907  1.2651
  141DOPC  H18Y16757   3.734   3.155  15.190  2.0532 -1.6054 -0.4322
  141DOPC  H18Z16758   3.686   3.157  15.357  0.7774 -0.4754 -0.1649
  142DOPC     N16759   5.741   2.891  17.165 -0.0397  0.1405  0.3206
  142DOPC   C1216760   5.616   2.863  17.243  0.8089  1.0240 -0.1187
  142DOPC  H12A16761   5.645   2.824  17.340  0.3621  0.0258 -0.3775
  142DOPC  H12B16762   5.566   2.776  17.203  0.7722  1.3725 -0.8432
  142DOPC   C1316763   5.843   2.930  17.263 -1.2250 -0.0770 -0.3135
  142DOPC  H13A16764   5.898   2.845  17.302 -1.9317  0.3759  1.8567
  142DOPC  H13B16765   5.923   2.980  17.211  0.4020 -0.8412  1.3555
  142DOPC  H13C16766   5.802   2.977  17.351 -1.3125  0.3207 -0.5645
  142DOPC   C1416767   5.717   3.008  17.064  0.0999 -0.0455 -0.6290
  142DOPC  H14A16768   5.626   2.981  17.012  1.5834 -2.1246 -2.3375
  142DOPC  H14B16769   5.698   3.102  17.112 -0.6952 -0.1275 -0.7686
  142DOPC  H14C16770   5.800   3.022  16.996  0.8703  2.9971  0.7650
  142DOPC   C1516771   5.779   2.762  17.089 -0.2419 -0.0278  0.0941
  142DOPC  H15A16772   5.799   2.684  17.161  0.5279  0.7691  0.7470
  142DOPC  H15B16773   5.871   2.777  17.035 -0.5753  0.9485 -0.2185
  142DOPC  H15C16774   5.699   2.728  17.024 -0.5935  0.0207  0.4973
  142DOPC   C1116775   5.513   2.978  17.265 -0.3798  0.0471  0.1481
  142DOPC  H11A16776   5.564   3.066  17.310  2.5943 -0.5424 -1.7723
  142DOPC  H11B16777   5.466   3.023  17.175  0.3621  0.5045 -0.0159
  142DOPC     P16778   5.287   2.859  17.311 -0.2982  0.6771 -0.2614
  142DOPC   O1316779   5.199   2.860  17.429  0.0578  0.0561 -0.1334
  142DOPC   O1416780   5.330   2.724  17.263 -0.3831 -0.4367  0.2405
  142DOPC   O1216781   5.419   2.929  17.361  0.0267 -0.3356  0.0799
  142DOPC   O1116782   5.225   2.944  17.197 -0.4681  0.1627  0.3160
  142DOPC    C116783   5.182   3.078  17.201 -0.2253 -0.0670 -0.2784
  142DOPC    HA16784   5.271   3.142  17.219 -0.7464 -0.1029  2.9224
  142DOPC    HB16785   5.099   3.084  17.274 -1.6633  0.3330 -1.8855
  142DOPC    C216786   5.120   3.131  17.068  0.4336 -0.4351 -0.4289
  142DOPC    HS16787   5.200   3.131  16.991 -1.4800 -0.5952 -2.5103
  142DOPC   O2116788   5.060   3.263  17.087  0.3968 -0.3815 -0.4219
  142DOPC   C2116789   5.142   3.370  17.067 -0.6486  0.3190 -0.4604
  142DOPC   O2216790   5.262   3.364  17.047  0.0239 -0.3431 -0.4625
  142DOPC   C2216791   5.063   3.505  17.063  0.4133  0.4449 -0.5549
  142DOPC   H2R16792   5.150   3.574  17.065  0.6462  0.1483  0.0950
  142DOPC   H2S16793   4.991   3.515  17.147  1.4560  3.1247  0.1163
  142DOPC    C316794   5.015   3.046  16.999 -0.3064 -0.0715 -0.2153
  142DOPC    HX16795   4.917   3.058  17.049 -0.5012 -0.8525 -0.3973
  142DOPC    HY16796   5.067   2.948  17.002  1.3661  0.7761  2.4111
  142DOPC   O3116797   5.000   3.092  16.861  0.1566  0.2115  0.1350
  142DOPC   C3116798   5.106   3.068  16.783  0.4043  0.0531  0.2891
  142DOPC   O3216799   5.187   2.982  16.804  0.4796 -0.4173 -0.3102
  142DOPC   C3216800   5.109   3.162  16.661  0.2676  0.1182  0.5197
  142DOPC   H2X16801   5.012   3.174  16.608  1.1619 -0.3466 -1.3315
  142DOPC   H2Y16802   5.142   3.264  16.691  0.6095 -0.5238  2.4232
  142DOPC   C2316803   4.977   3.527  16.936 -0.4482  0.1026 -0.4170
  142DOPC   H3R16804   4.911   3.616  16.934 -0.1286  0.4043  1.1429
  142DOPC   H3S16805   4.911   3.438  16.926  1.2120 -1.4570  1.4746
  142DOPC   C2416806   5.058   3.542  16.804  0.1867 -0.6363 -0.3494
  142DOPC   H4R16807   5.133   3.461  16.801  0.6848 -0.4002  2.7103
  142DOPC   H4S16808   5.100   3.645  16.796 -1.1786  0.2020  2.0657
  142DOPC   C2516809   4.961   3.527  16.677 -0.5202 -0.0822 -0.7218
  142DOPC   H5R16810   4.892   3.441  16.691 -0.1163  0.0701  3.6150
  142DOPC   H5S16811   5.023   3.500  16.588 -1.4250 -0.4578 -1.2553
  142DOPC   C2616812   4.882   3.653  16.649 -0.0473  0.1788  1.2609
  142DOPC   H6R16813   4.823   3.695  16.733 -0.9225 -0.7220  1.1104
  142DOPC   H6S16814   4.799   3.620  16.583  0.6217 -1.7171  1.3121
  142DOPC   C2716815   4.949   3.761  16.554 -0.0410 -0.1394 -0.8074
  142DOPC   H7R16816   5.016   3.819  16.620 -0.6667  0.4489 -0.6758
  142DOPC   H7S16817   4.864   3.819  16.511 -0.3232 -0.3420 -0.5308
  142DOPC   C2816818   5.000   3.716  16.416 -0.1431 -0.4364  0.7360
  142DOPC   H8R16819   4.931   3.634  16.385 -1.2751  0.7676 -0.0587
  142DOPC   H8S16820   5.096   3.662  16.431 -0.7172 -1.2381  1.6335
  142DOPC   C2916821   5.028   3.810  16.303  0.1373  0.2057 -0.2682
  142DOPC   H9R16822   5.060   3.911  16.333  2.3623 -0.5528  0.1145
  142DOPC  C21016823   5.030   3.778  16.171  0.1187  0.0505  0.1669
  142DOPC  H10R16824   5.050   3.844  16.086  3.6387 -1.6854 -0.5361
  142DOPC  C21116825   5.004   3.639  16.115 -0.4797 -0.6268 -0.1576
  142DOPC  H11R16826   4.982   3.570  16.200 -1.9633  0.3827  0.3348
  142DOPC  H11S16827   5.089   3.600  16.056 -2.9080 -3.7959 -1.8662
  142DOPC  C21216828   4.873   3.655  16.041 -0.3923  0.3615  1.1540
  142DOPC  H12R16829   4.791   3.697  16.103 -0.1029  0.7742  1.2576
  142DOPC  H12S16830   4.853   3.551  16.006  0.9555 -0.4338  2.5758
  142DOPC  C21316831   4.870   3.751  15.913  0.0146  0.3919 -0.1269
  142DOPC  H13R16832   4.914   3.849  15.941 -0.7563  1.5637 -2.6947
  142DOPC  H13S16833   4.765   3.762  15.877 -0.9787 -1.1210  2.0436
  142DOPC  C21416834   4.967   3.708  15.801 -0.2511  0.3617 -0.0477
  142DOPC  H14R16835   5.061   3.663  15.841  0.4971 -0.1588 -2.2802
  142DOPC  H14S16836   4.993   3.804  15.752 -0.8889  0.2270 -0.6509
  142DOPC  C21516837   4.907   3.617  15.688 -0.4807 -0.5159  0.0375
  142DOPC  H15R16838   4.964   3.634  15.594  1.6407  0.2268  1.3845
  142DOPC  H15S16839   4.800   3.641  15.670 -0.3307  0.5104  0.4540
  142DOPC  C21616840   4.928   3.474  15.727 -0.6739  0.1487 -0.1976
  142DOPC  H16R16841   4.872   3.441  15.817 -1.0347  2.2592  0.4044
  142DOPC  H16S16842   5.038   3.463  15.736 -0.4751  1.3396 -0.9169
  142DOPC  C21716843   4.891   3.379  15.611 -0.3981  0.0975 -0.3233
  142DOPC  H17R16844   4.959   3.419  15.533 -0.0333 -0.1259 -0.1213
  142DOPC  H17S16845   4.784   3.395  15.584  0.4443  1.6552 -3.0680
  142DOPC  C21816846   4.924   3.227  15.634 -0.2063  0.5163  0.5630
  142DOPC  H18R16847   5.033   3.208  15.647 -0.6402 -2.4525  0.4132
  142DOPC  H18S16848   4.866   3.170  15.559 -2.4899  0.3262  2.3655
  142DOPC  H18T16849   4.865   3.193  15.722 -0.7475 -2.1401 -0.7183
  142DOPC   C3316850   5.218   3.114  16.566 -0.6308  0.0254 -0.5260
  142DOPC   H3X16851   5.211   3.005  16.547 -2.2455  0.1023 -0.5550
  142DOPC   H3Y16852   5.321   3.137  16.598 -1.4098  1.5166  1.0898
  142DOPC   C3416853   5.199   3.175  16.429 -0.3556 -0.0146  0.3808
  142DOPC   H4X16854   5.288   3.141  16.372 -0.3203  0.3271  0.2274
  142DOPC   H4Y16855   5.218   3.284  16.430  0.9315 -0.1884 -1.2209
  142DOPC   C3516856   5.067   3.161  16.352  0.3327 -0.7720 -0.0162
  142DOPC   H5X16857   4.975   3.179  16.412  0.3533 -2.8126  0.7311
  142DOPC   H5Y16858   5.037   3.056  16.328 -1.1362 -1.1144  2.7825
  142DOPC   C3616859   5.064   3.241  16.219  0.2569 -0.1875  0.0592
  142DOPC   H6X16860   5.045   3.343  16.260  0.7365 -0.1196  0.1140
  142DOPC   H6Y16861   5.160   3.242  16.163 -0.7576  1.5455 -1.7803
  142DOPC   C3716862   4.956   3.208  16.116 -0.1395 -0.2607  0.0649
  142DOPC   H7X16863   4.972   3.251  16.015 -0.3193 -0.7568 -0.1793
  142DOPC   H7Y16864   4.964   3.098  16.120  0.3175 -0.2026  0.8152
  142DOPC   C3816865   4.810   3.236  16.162 -0.3975  0.2460  0.6079
  142DOPC   H8X16866   4.807   3.345  16.186 -1.5204  0.3749 -0.0058
  142DOPC   H8Y16867   4.792   3.182  16.257 -2.1883  1.3847  0.9685
  142DOPC   C3916868   4.713   3.205  16.050  0.4962 -0.1292  0.2644
  142DOPC   H9X16869   4.744   3.250  15.954 -0.2500 -2.9115 -1.3992
  142DOPC  C31016870   4.607   3.115  16.055 -0.2123  0.3233  0.1554
  142DOPC  H10X16871   4.539   3.100  15.970 -0.8417 -0.0531  0.7145
  142DOPC  C31116872   4.567   3.043  16.182  0.2822 -0.1041  0.5938
  142DOPC  H11X16873   4.609   3.083  16.276  0.1439  1.3132  0.0707
  142DOPC  H11Y16874   4.592   2.935  16.170 -2.7984 -0.8742  0.2223
  142DOPC  C31216875   4.408   3.044  16.197  0.6485 -0.3085  0.3083
  142DOPC  H12X16876   4.361   2.990  16.112 -1.3305  1.6584  0.0590
  142DOPC  H12Y16877   4.369   3.148  16.198 -0.8800 -0.8443  0.9605
  142DOPC  C31316878   4.361   2.992  16.330 -0.1289  0.0090  0.1313
  142DOPC  H13X16879   4.371   2.881  16.327 -2.9819 -0.3369  0.6758
  142DOPC  H13Y16880   4.413   3.032  16.420 -1.2957  0.4534  0.6327
  142DOPC  C31416881   4.210   3.028  16.350 -0.1275  0.5267  0.1185
  142DOPC  H14X16882   4.226   3.138  16.351  2.3254  0.2500  1.7772
  142DOPC  H14Y16883   4.142   2.997  16.268  0.0830 -3.5740  1.2821
  142DOPC  C31516884   4.149   2.975  16.482 -0.1749  0.2693  0.0682
  142DOPC  H15X16885   4.124   2.867  16.481 -1.3729  0.5302 -1.1371
  142DOPC  H15Y16886   4.055   3.031  16.502 -0.7232 -0.4857 -0.3436
  142DOPC  C31616887   4.235   3.001  16.613 -0.1038  0.1286  0.6923
  142DOPC  H16X16888   4.339   2.969  16.589 -0.4631 -1.5868  1.2889
  142DOPC  H16Y16889   4.240   3.111  16.623 -2.4543  0.1428  2.6100
  142DOPC  C31716890   4.185   2.945  16.744 -0.3474  0.2490 -0.7069
  142DOPC  H17X16891   4.175   2.835  16.733  0.4405 -0.1702  2.0304
  142DOPC  H17Y16892   4.259   2.963  16.825 -0.8952 -2.8055  0.6280
  142DOPC  C31816893   4.046   3.010  16.787 -0.0905 -0.3558  0.2050
  142DOPC  H18X16894   3.970   2.988  16.709  0.3758  0.3908 -0.4695
  142DOPC  H18Y16895   4.017   2.978  16.889 -0.1793 -2.3840 -0.3983
  142DOPC  H18Z16896   4.068   3.119  16.787  3.3021 -0.8682  2.7838
  143DOPC     N16897   2.725   4.803  17.052  0.0049  0.5145  0.1119
  143DOPC   C1216898   2.812   4.790  16.937 -0.1334  1.2051 -0.0555
  143DOPC  H12A16899   2.762   4.845  16.858 -2.9627  2.3379  2.3205
  143DOPC  H12B16900   2.828   4.686  16.914  0.6406  0.9847  1.4007
  143DOPC   C1316901   2.781   4.750  17.184  0.1582  0.6576 -0.1542
  143DOPC  H13A16902   2.713   4.777  17.263  1.0252  0.0118  0.8327
  143DOPC  H13B16903   2.809   4.646  17.184  0.7588  0.7955  1.3609
  143DOPC  H13C16904   2.866   4.814  17.202 -0.7591  2.1621 -0.9398
  143DOPC   C1416905   2.600   4.733  17.021  0.0205  0.0623 -0.4399
  143DOPC  H14A16906   2.523   4.754  17.095 -2.9237 -1.2179 -2.9038
  143DOPC  H14B16907   2.563   4.773  16.928  1.3955  2.1255 -0.1701
  143DOPC  H14C16908   2.600   4.625  17.018 -1.9347  0.0413 -1.7279
  143DOPC   C1516909   2.693   4.948  17.069  0.4686  0.7485  0.8090
  143DOPC  H15A16910   2.645   4.972  16.976  0.6889  0.3810  0.5964
  143DOPC  H15B16911   2.786   5.001  17.085  2.6611 -1.9544 -1.7589
  143DOPC  H15C16912   2.623   4.955  17.151  0.7263 -1.2833  1.2625
  143DOPC   C1116913   2.959   4.838  16.952  0.2162 -0.0297 -0.2823
  143DOPC  H11A16914   3.000   4.843  16.849 -3.2319  2.5488 -1.7409
  143DOPC  H11B16915   2.965   4.939  16.996  1.4368  0.4170 -1.3944
  143DOPC     P16916   3.049   4.594  17.015  0.1934  0.4325 -0.0035
  143DOPC   O1316917   2.997   4.527  17.139 -0.6502 -0.5346  0.2751
  143DOPC   O1416918   3.191   4.571  16.988  0.1330  0.2757 -0.3077
  143DOPC   O1216919   3.037   4.751  17.037  0.7109 -0.1720 -0.4697
  143DOPC   O1116920   2.967   4.566  16.884  0.1212  0.2635 -0.1626
  143DOPC    C116921   2.875   4.457  16.867 -0.1089  0.0441  0.6658
  143DOPC    HA16922   2.777   4.478  16.913 -0.2604 -0.0205  0.3746
  143DOPC    HB16923   2.912   4.358  16.903 -0.7145  0.4571  2.4908
  143DOPC    C216924   2.857   4.441  16.711  0.7115 -0.0621 -0.0484
  143DOPC    HS16925   2.781   4.360  16.701  0.3897  0.3940 -1.4943
  143DOPC   O2116926   2.977   4.390  16.648  0.5079  0.2030 -0.2081
  143DOPC   C2116927   3.009   4.269  16.658 -0.1504 -0.5577  0.5746
  143DOPC   O2216928   2.945   4.181  16.715 -0.5442 -0.2635 -0.0953
  143DOPC   C2216929   3.144   4.241  16.591 -0.4076  0.0888  0.6859
  143DOPC   H2R16930   3.186   4.163  16.657  2.0907  0.2851 -0.5498
  143DOPC   H2S16931   3.201   4.336  16.584 -1.4939  0.7655  0.6675
  143DOPC    C316932   2.815   4.569  16.634 -0.0979 -0.9459 -0.1247
  143DOPC    HX16933   2.901   4.639  16.633 -1.8565  1.3578  0.3457
  143DOPC    HY16934   2.741   4.630  16.692 -0.5199 -1.0935 -0.4998
  143DOPC   O3116935   2.756   4.536  16.510  0.6437  0.3331  0.1832
  143DOPC   C3116936   2.805   4.582  16.398 -0.7392 -0.4255 -0.2150
  143DOPC   O3216937   2.914   4.631  16.386 -0.3778 -0.2573 -0.1865
  143DOPC   C3216938   2.704   4.578  16.285 -0.1913 -0.4348  0.0623
  143DOPC   H2X16939   2.644   4.485  16.290 -1.3809  0.2003 -1.5506
  143DOPC   H2Y16940   2.641   4.664  16.318  1.8308  0.5153  1.7181
  143DOPC   C2316941   3.118   4.183  16.454  0.2084  0.1830  0.1667
  143DOPC   H3R16942   3.049   4.096  16.453  2.5945 -1.8280 -0.5293
  143DOPC   H3S16943   3.211   4.132  16.420  0.5981  1.4909 -0.8324
  143DOPC   C2416944   3.062   4.278  16.345  0.1099 -0.1719 -0.2015
  143DOPC   H4R16945   3.096   4.383  16.354 -2.1222  0.7853 -1.9787
  143DOPC   H4S16946   2.954   4.292  16.365  0.7165  1.2632  2.5768
  143DOPC   C2516947   3.085   4.219  16.197 -0.5288 -0.3163 -0.5423
  143DOPC   H5R16948   3.034   4.122  16.180 -0.6152 -0.3271 -0.2240
  143DOPC   H5S16949   3.191   4.195  16.172 -0.3945 -2.6892  1.9061
  143DOPC   C2616950   3.030   4.316  16.096  0.3963  0.4951 -0.4069
  143DOPC   H6R16951   3.074   4.416  16.115  0.3470  0.3740  0.3510
  143DOPC   H6S16952   2.923   4.321  16.126 -0.1057 -0.9454 -1.8195
  143DOPC   C2716953   3.038   4.275  15.951  0.6237 -0.5709  0.0408
  143DOPC   H7R16954   2.979   4.352  15.898  0.5864  1.1756  2.4402
  143DOPC   H7S16955   2.986   4.176  15.950  0.5788 -0.5455 -0.1865
  143DOPC   C2816956   3.179   4.267  15.894  0.0948  0.4736 -0.0039
  143DOPC   H8R16957   3.176   4.207  15.801  1.4825  0.7662 -0.2615
  143DOPC   H8S16958   3.241   4.193  15.949  0.4983 -0.0312 -1.1068
  143DOPC   C2916959   3.249   4.395  15.881 -0.0912  0.2546 -0.0794
  143DOPC   H9R16960   3.327   4.412  15.957  1.3559 -2.2542 -0.8802
  143DOPC  C21016961   3.248   4.470  15.772 -0.3058 -0.2820  0.7292
  143DOPC  H10R16962   3.306   4.563  15.764 -0.8170 -0.0135 -0.0522
  143DOPC  C21116963   3.174   4.445  15.642 -0.6291  0.5665 -0.0117
  143DOPC  H11R16964   3.105   4.532  15.636 -2.0933 -0.4113  1.6597
  143DOPC  H11S16965   3.113   4.352  15.642  0.9502 -0.5280 -1.4699
  143DOPC  C21216966   3.263   4.445  15.513 -0.3094  0.3197 -0.8450
  143DOPC  H12R16967   3.338   4.365  15.532  1.5300  2.3010  0.6655
  143DOPC  H12S16968   3.325   4.537  15.514  1.9839 -1.0148  3.0687
  143DOPC  C21316969   3.187   4.425  15.381  0.4373 -0.0495  0.3543
  143DOPC  H13R16970   3.125   4.514  15.357  0.5892 -0.1442 -0.4075
  143DOPC  H13S16971   3.116   4.342  15.403 -0.1943  0.5828  0.7417
  143DOPC  C21416972   3.286   4.384  15.269  0.2844 -0.3425 -0.6129
  143DOPC  H14R16973   3.349   4.301  15.305 -1.3216 -2.3607 -2.2178
  143DOPC  H14S16974   3.349   4.473  15.245  0.8548 -0.5597  0.0651
  143DOPC  C21516975   3.235   4.326  15.131 -0.4485 -0.7268 -0.1574
  143DOPC  H15R16976   3.318   4.278  15.075 -0.2805 -0.4681 -0.1328
  143DOPC  H15S16977   3.209   4.407  15.059 -0.5851 -0.1167  0.5609
  143DOPC  C21616978   3.102   4.258  15.149  0.5301  0.6785  0.6381
  143DOPC  H16R16979   3.030   4.310  15.216 -0.2610  1.5250 -0.8337
  143DOPC  H16S16980   3.120   4.165  15.209  0.5639  0.2899  0.0351
  143DOPC  C21716981   3.024   4.219  15.018 -0.2059 -0.2723 -0.0734
  143DOPC  H17R16982   3.083   4.149  14.955  1.5686  0.3577  0.8181
  143DOPC  H17S16983   3.023   4.316  14.964  0.0809 -0.2589 -0.0604
  143DOPC  C21816984   2.888   4.156  15.038 -0.0232 -1.0617  0.0477
  143DOPC  H18R16985   2.826   4.146  14.946 -2.7558  1.1937  1.5199
  143DOPC  H18S16986   2.827   4.198  15.119  1.5833 -1.3874  1.4892
  143DOPC  H18T16987   2.908   4.053  15.075  2.6947  0.2666  2.6891
  143DOPC   C3316988   2.769   4.590  16.147  0.2518 -0.1238  0.6541
  143DOPC   H3X16989   2.835   4.500  16.138 -0.1140 -0.5441  1.9379
  143DOPC   H3Y16990   2.833   4.679  16.132  1.5686 -1.1014  0.1752
  143DOPC   C3416991   2.659   4.581  16.035  0.4969  0.2536  0.3896
  143DOPC   H4X16992   2.585   4.662  16.051  0.8819  0.2409  2.4284
  143DOPC   H4Y16993   2.619   4.480  16.059  1.9498 -0.1744  1.1019
  143DOPC   C3516994   2.730   4.576  15.897 -0.1111  0.0556  0.1555
  143DOPC   H5X16995   2.836   4.609  15.904 -0.1932  0.2625  0.4364
  143DOPC   H5Y16996   2.681   4.648  15.828 -2.5004 -0.1276  1.5533
  143DOPC   C3616997   2.716   4.435  15.829  0.1930  0.4709 -0.1268
  143DOPC   H6X16998   2.766   4.364  15.899 -2.6553 -0.9331  0.6259
  143DOPC   H6Y16999   2.610   4.404  15.841  0.8478 -2.6139 -1.4970
  143DOPC   C3717000   2.755   4.426  15.681  0.0982  0.2938 -0.1854
  143DOPC   H7X17001   2.691   4.503  15.634  0.8407 -0.0466 -1.8238
  143DOPC   H7Y17002   2.860   4.457  15.666  0.0067  0.3074 -0.8202
  143DOPC   C3817003   2.718   4.286  15.635  0.2187  1.1253 -0.0764
  143DOPC   H8X17004   2.609   4.265  15.641  0.2713 -0.0546 -2.1996
  143DOPC   H8Y17005   2.783   4.221  15.698 -1.2812  1.2791  1.6895
  143DOPC   C3917006   2.759   4.273  15.492  0.4895 -1.1062  0.4636
  143DOPC   H9X17007   2.692   4.336  15.431 -0.4455  0.4166  2.9077
  143DOPC  C31017008   2.839   4.186  15.438 -0.3421 -1.0458 -0.2181
  143DOPC  H10X17009   2.846   4.193  15.328  0.3164 -0.3946 -0.1389
  143DOPC  C31117010   2.906   4.071  15.505 -0.1406  0.1869 -0.3116
  143DOPC  H11X17011   2.885   4.055  15.613  0.1258 -1.0599 -0.4269
  143DOPC  H11Y17012   3.016   4.086  15.505  0.1838 -1.7672  1.3582
  143DOPC  C31217013   2.866   3.936  15.430 -0.2536 -0.2601  0.2683
  143DOPC  H12X17014   2.769   3.955  15.379  0.4507  0.3625 -0.8866
  143DOPC  H12Y17015   2.855   3.859  15.510  1.2025 -0.2986  0.4549
  143DOPC  C31317016   2.971   3.887  15.336  0.0335  0.1022  0.4616
  143DOPC  H13X17017   3.021   3.965  15.274  1.2348  0.8523  2.2398
  143DOPC  H13Y17018   3.048   3.849  15.407 -1.2293 -1.7574  0.8846
  143DOPC  C31417019   2.924   3.776  15.246 -0.0114  0.2365  0.3200
  143DOPC  H14X17020   2.874   3.708  15.317 -1.1879  0.7902  0.0393
  143DOPC  H14Y17021   2.854   3.819  15.171 -1.3151  0.0322  1.3846
  143DOPC  C31517022   3.039   3.706  15.171 -0.0564  0.1241 -0.0089
  143DOPC  H15X17023   2.985   3.616  15.135 -0.4524  0.2610  0.2348
  143DOPC  H15Y17024   3.111   3.679  15.250  0.1150  4.1917  1.4263
  143DOPC  C31617025   3.103   3.796  15.062 -0.2351 -0.5677  0.4369
  143DOPC  H16X17026   3.024   3.826  14.990  2.5600  1.0283 -2.2062
  143DOPC  H16Y17027   3.151   3.890  15.097 -2.3681  0.9786 -0.6153
  143DOPC  C31717028   3.217   3.726  14.980  0.6276  0.0288 -0.1411
  143DOPC  H17X17029   3.308   3.723  15.045  0.4222 -0.5521  0.1299
  143DOPC  H17Y17030   3.191   3.620  14.958  1.3017 -0.1059 -0.3145
  143DOPC  C31817031   3.264   3.799  14.859  0.0439  0.0118  0.1502
  143DOPC  H18X17032   3.365   3.776  14.819  0.5191  1.3981  0.5215
  143DOPC  H18Y17033   3.194   3.792  14.773  4.2439  0.7650 -3.6505
  143DOPC  H18Z17034   3.266   3.906  14.886 -2.2485 -0.2573  1.7304
  144DOPC     N17035   2.358   4.135  17.473 -0.1522 -0.4505  0.3143
  144DOPC   C1217036   2.341   4.039  17.354  0.1221  0.0565  0.0432
  144DOPC  H12A17037   2.245   4.061  17.309 -1.2255  0.4446  2.9036
  144DOPC  H12B17038   2.313   3.941  17.390 -0.2847 -0.2107 -0.9503
  144DOPC   C1317039   2.220   4.149  17.535 -0.5844  0.3072  0.0374
  144DOPC  H13A17040   2.217   4.226  17.611 -1.9911 -0.5317  0.8759
  144DOPC  H13B17041   2.148   4.173  17.459 -3.6040  0.3484  2.7270
  144DOPC  H13C17042   2.189   4.054  17.575  1.1475 -0.2437  0.1732
  144DOPC   C1417043   2.426   4.262  17.440 -0.2717 -0.1112  0.4690
  144DOPC  H14A17044   2.511   4.248  17.375  0.3249  0.7236  1.0441
  144DOPC  H14B17045   2.368   4.330  17.381  1.3747  1.3547  0.4379
  144DOPC  H14C17046   2.458   4.321  17.525  0.9416 -1.1216  0.7559
  144DOPC   C1517047   2.453   4.067  17.569 -0.3073  0.2610 -0.1177
  144DOPC  H15A17048   2.512   4.131  17.632  0.3459 -1.6185  1.2850
  144DOPC  H15B17049   2.519   4.001  17.514 -1.9211 -0.6721 -0.9935
  144DOPC  H15C17050   2.394   3.999  17.628  0.5251 -1.4447 -1.1656
  144DOPC   C1117051   2.448   4.031  17.244  0.1718 -0.3608  0.3326
  144DOPC  H11A17052   2.420   3.950  17.173  0.1281 -0.2579  0.2313
  144DOPC  H11B17053   2.436   4.124  17.184 -1.2251 -0.9009 -0.2837
  144DOPC     P17054   2.648   3.878  17.337 -0.5306 -0.3917  0.3614
  144DOPC   O1317055   2.556   3.762  17.345 -0.1702  0.4350  0.1432
  144DOPC   O1417056   2.730   3.911  17.457 -0.0471  0.1856 -0.1438
  144DOPC   O1217057   2.577   4.007  17.296  0.0695  0.3128 -0.1678
  144DOPC   O1117058   2.748   3.852  17.205  0.3419 -0.7214 -0.3431
  144DOPC    C117059   2.813   3.977  17.155  0.2272 -0.2688  0.3202
  144DOPC    HA17060   2.921   3.966  17.177  1.1307  3.2232 -1.6126
  144DOPC    HB17061   2.772   4.068  17.204  0.3370 -0.2801  0.4339
  144DOPC    C217062   2.808   3.984  17.002  0.2868 -0.7344 -0.3607
  144DOPC    HS17063   2.875   4.067  16.971  0.2054 -1.1430 -1.7015
  144DOPC   O2117064   2.675   4.000  16.961  0.6720 -0.2436 -0.1695
  144DOPC   C2117065   2.637   4.128  16.961 -0.3708 -0.1763  0.0760
  144DOPC   O2217066   2.694   4.226  17.012 -0.1067  0.3784  0.9740
  144DOPC   C2217067   2.497   4.148  16.897 -0.0938 -0.2035 -0.2210
  144DOPC   H2R17068   2.430   4.201  16.968  0.4971 -0.0639  0.2459
  144DOPC   H2S17069   2.460   4.043  16.889  0.2087 -0.6275  2.7595
  144DOPC    C317070   2.864   3.856  16.928 -0.4389 -0.1593 -0.5247
  144DOPC    HX17071   2.803   3.775  16.972  1.3149 -1.3819 -0.2190
  144DOPC    HY17072   2.966   3.830  16.965 -0.3449  1.5693  0.4984
  144DOPC   O3117073   2.846   3.869  16.784  0.0647  0.0027 -0.1670
  144DOPC   C3117074   2.953   3.885  16.712 -0.1657 -0.0418  0.4317
  144DOPC   O3217075   3.065   3.907  16.750 -0.5582 -0.1229  0.6689
  144DOPC   C3217076   2.909   3.880  16.567  0.4487 -0.4871  0.8794
  144DOPC   H2X17077   2.809   3.833  16.569  0.8083 -1.2649  2.7294
  144DOPC   H2Y17078   2.882   3.986  16.548 -0.6962 -0.9081  0.0484
  144DOPC   C2317079   2.505   4.218  16.762  0.1185  0.3593 -0.3590
  144DOPC   H3R17080   2.532   4.326  16.770 -1.3827  0.8506 -1.5488
  144DOPC   H3S17081   2.410   4.230  16.707 -0.5441  1.4426  0.9593
  144DOPC   C2417082   2.604   4.159  16.665 -0.2651  0.1726 -0.3890
  144DOPC   H4R17083   2.560   4.057  16.656  0.5106 -0.0567 -2.0248
  144DOPC   H4S17084   2.704   4.173  16.712 -0.9261  0.9906  0.8143
  144DOPC   C2517085   2.590   4.210  16.521  0.4073 -0.3115  0.4574
  144DOPC   H5R17086   2.627   4.314  16.511 -0.2488 -0.0870  0.3441
  144DOPC   H5S17087   2.481   4.212  16.502  0.1329  0.9419  1.9671
  144DOPC   C2617088   2.647   4.117  16.415  0.0387 -0.0827 -0.3066
  144DOPC   H6R17089   2.590   4.022  16.414  2.4645 -1.6170 -1.4588
  144DOPC   H6S17090   2.749   4.076  16.433 -0.4137 -1.4894 -0.8046
  144DOPC   C2717091   2.640   4.177  16.270  0.7311  0.5450  0.4140
  144DOPC   H7R17092   2.680   4.280  16.264  0.0300  0.7361 -2.7403
  144DOPC   H7S17093   2.536   4.181  16.231  0.9885  0.5932 -0.2761
  144DOPC   C2817094   2.724   4.093  16.169  0.3912 -0.1246  0.4449
  144DOPC   H8R17095   2.827   4.087  16.209  1.1070  0.8623 -1.1503
  144DOPC   H8S17096   2.734   4.140  16.068  2.9694  0.2561  0.8053
  144DOPC   C2917097   2.672   3.952  16.153  0.2173  0.0265  0.1459
  144DOPC   H9R17098   2.675   3.895  16.248  0.4372  2.6729  1.8386
  144DOPC  C21017099   2.616   3.907  16.042  0.7851 -0.1696  0.1093
  144DOPC  H10R17100   2.586   3.801  16.040 -1.3321  0.3829 -0.1187
  144DOPC  C21117101   2.584   3.988  15.917 -0.0705  0.2129 -0.1031
  144DOPC  H11R17102   2.675   4.045  15.888  0.4829 -0.8719 -0.5635
  144DOPC  H11S17103   2.488   4.042  15.936 -0.3918 -0.8612  1.5287
  144DOPC  C21217104   2.569   3.893  15.798  0.5569  0.6014  0.9580
  144DOPC  H12R17105   2.480   3.829  15.816  1.6660 -1.0674  0.7505
  144DOPC  H12S17106   2.664   3.839  15.777  1.1802  1.7310  0.8002
  144DOPC  C21317107   2.543   3.965  15.661  0.1286 -0.6071 -0.1782
  144DOPC  H13R17108   2.631   4.029  15.638 -1.1435  1.4240  0.2923
  144DOPC  H13S17109   2.459   4.037  15.672 -0.1001 -0.3717 -2.7586
  144DOPC  C21417110   2.541   3.863  15.543  0.5450 -0.3766 -1.0476
  144DOPC  H14R17111   2.464   3.786  15.564 -1.2019  0.7407 -2.9443
  144DOPC  H14S17112   2.640   3.812  15.540  0.6362 -0.1726 -1.6245
  144DOPC  C21517113   2.488   3.939  15.425  0.2359 -0.3684 -0.0978
  144DOPC  H15R17114   2.555   4.025  15.409 -0.2938  0.2316  0.8516
  144DOPC  H15S17115   2.385   3.976  15.443  0.2347  0.8114 -2.1464
  144DOPC  C21617116   2.474   3.850  15.298 -0.0337 -0.4553  0.5409
  144DOPC  H16R17117   2.398   3.769  15.311 -0.1592 -0.5478 -0.6679
  144DOPC  H16S17118   2.571   3.800  15.277 -0.0592 -1.0607  1.7913
  144DOPC  C21717119   2.434   3.941  15.179  0.3801 -0.3792 -0.5837
  144DOPC  H17R17120   2.332   3.983  15.188 -0.0047 -1.4566  0.4325
  144DOPC  H17S17121   2.435   3.880  15.086 -0.5160  0.9081 -1.4641
  144DOPC  C21817122   2.535   4.046  15.151  0.0681  0.1253  0.6087
  144DOPC  H18R17123   2.538   4.130  15.224 -0.1171 -0.9626  1.9120
  144DOPC  H18S17124   2.506   4.092  15.054  1.2849  0.6928  0.4928
  144DOPC  H18T17125   2.640   4.011  15.138  0.2687  0.3409  1.5481
  144DOPC   C3317126   3.019   3.818  16.479 -0.5192 -0.7997  0.7633
  144DOPC   H3X17127   3.038   3.715  16.516 -1.8695 -0.5201  2.3520
  144DOPC   H3Y17128   3.109   3.882  16.490 -2.2174  1.7114  0.8004
  144DOPC   C3417129   2.969   3.812  16.335  0.3966  0.2133  0.3244
  144DOPC   H4X17130   2.910   3.905  16.318  1.5685  0.8474 -0.4254
  144DOPC   H4Y17131   2.891   3.733  16.331  0.8657 -0.1924 -1.3577
  144DOPC   C3517132   3.084   3.795  16.241 -0.1805  0.2377 -0.1875
  144DOPC   H5X17133   3.145   3.703  16.251  0.2727  0.6284  0.7033
  144DOPC   H5Y17134   3.159   3.869  16.276 -0.0960  0.0261  0.0848
  144DOPC   C3617135   3.040   3.821  16.095 -0.3116  0.1941  0.1872
  144DOPC   H6X17136   2.948   3.766  16.065 -0.2954 -0.2383  0.9007
  144DOPC   H6Y17137   3.022   3.930  16.089  2.1659  0.6008 -1.2014
  144DOPC   C3717138   3.154   3.785  16.006 -0.1482 -0.1846  0.5598
  144DOPC   H7X17139   3.240   3.844  16.044 -0.7573 -0.1669  1.9822
  144DOPC   H7Y17140   3.177   3.678  16.023 -2.2381 -0.5888  1.0957
  144DOPC   C3817141   3.123   3.817  15.858  0.2773 -0.1682  0.1194
  144DOPC   H8X17142   3.229   3.819  15.824  1.2481 -1.4527  2.7738
  144DOPC   H8Y17143   3.068   3.910  15.835 -0.5192  0.5428  4.0846
  144DOPC   C3917144   3.053   3.699  15.796  0.4144  0.6477 -0.2059
  144DOPC   H9X17145   2.964   3.665  15.851 -0.1957 -0.1636 -1.6515
  144DOPC  C31017146   3.100   3.611  15.703 -0.3913 -0.2265  0.1401
  144DOPC  H10X17147   3.044   3.522  15.671  0.1199 -0.5577  0.1589
  144DOPC  C31117148   3.225   3.631  15.625 -0.4136  0.8146 -0.2821
  144DOPC  H11X17149   3.308   3.601  15.693 -0.6432  2.7336  0.9108
  144DOPC  H11Y17150   3.238   3.738  15.597 -0.1645  1.4834  2.1941
  144DOPC  C31217151   3.227   3.544  15.499  0.2853  0.7236  0.4272
  144DOPC  H12X17152   3.144   3.576  15.431  0.2340 -1.5538 -0.6861
  144DOPC  H12Y17153   3.195   3.439  15.519  0.4907  0.9292  1.8739
  144DOPC  C31317154   3.353   3.512  15.425 -0.7534  0.0633  1.1833
  144DOPC  H13X17155   3.397   3.613  15.420 -0.0263 -0.2674  0.7626
  144DOPC  H13Y17156   3.422   3.449  15.485 -1.3582 -0.4814  1.3224
  144DOPC  C31417157   3.336   3.454  15.289 -0.0348  0.8478 -0.5696
  144DOPC  H14X17158   3.277   3.360  15.295  0.8866  0.3514  2.3437
  144DOPC  H14Y17159   3.276   3.525  15.228  1.7180  0.1816 -3.2060
  144DOPC  C31517160   3.470   3.429  15.216 -0.1674 -0.5646  0.7884
  144DOPC  H15X17161   3.515   3.354  15.284  0.1278 -0.0138  1.2066
  144DOPC  H15Y17162   3.526   3.523  15.237  0.5658 -0.7600 -0.2012
  144DOPC  C31617163   3.446   3.384  15.067 -0.4584 -0.4772  0.9712
  144DOPC  H16X17164   3.411   3.278  15.071  0.9137 -0.9243  2.2587
  144DOPC  H16Y17165   3.377   3.459  15.024  0.8731  0.3681  0.2391
  144DOPC  C31717166   3.577   3.396  14.988  0.4967 -0.2581  0.8247
  144DOPC  H17X17167   3.617   3.499  14.979 -0.6972  0.0191 -2.1291
  144DOPC  H17Y17168   3.657   3.344  15.046  0.8161 -0.2958  0.3552
  144DOPC  C31817169   3.565   3.335  14.851  0.0759 -0.2582  0.4676
  144DOPC  H18X17170   3.662   3.331  14.796 -0.0708  0.8743  0.0912
  144DOPC  H18Y17171   3.536   3.229  14.864  1.2363 -0.3517  2.9473
  144DOPC  H18Z17172   3.487   3.386  14.791 -1.8207 -1.0935  2.1103
  145DOPC     N17173   3.307   6.566  17.530  0.4395  0.8059  0.3529
  145DOPC   C1217174   3.259   6.522  17.392  0.1287 -0.0151 -0.8307
  145DOPC  H12A17175   3.344   6.492  17.332  1.1268 -1.2531  1.1009
  145DOPC  H12B17176   3.215   6.605  17.339 -2.7643 -0.5683  0.5515
  145DOPC   C1317177   3.390   6.465  17.602  0.3093 -0.0322  0.0880
  145DOPC  H13A17178   3.485   6.456  17.552 -1.0790 -0.3807 -2.6985
  145DOPC  H13B17179   3.397   6.492  17.706  0.7877 -0.3532  0.1429
  145DOPC  H13C17180   3.339   6.371  17.586 -1.8603  1.3860 -2.1405
  145DOPC   C1417181   3.190   6.605  17.622  0.1770 -0.4154 -0.0174
  145DOPC  H14A17182   3.221   6.650  17.715  0.1860 -1.2293  0.3866
  145DOPC  H14B17183   3.126   6.683  17.585  0.8561  1.2951  2.2273
  145DOPC  H14C17184   3.128   6.518  17.639  0.3550 -0.1307  2.3418
  145DOPC   C1517185   3.383   6.691  17.523 -0.1151  0.3888 -0.0350
  145DOPC  H15A17186   3.400   6.735  17.621  0.4522  0.3208 -0.1039
  145DOPC  H15B17187   3.341   6.766  17.458 -0.0847 -0.4316 -1.0146
  145DOPC  H15C17188   3.486   6.683  17.493 -0.4167 -0.7355 -0.7869
  145DOPC   C1117189   3.157   6.405  17.395  0.0097 -0.2374  0.2849
  145DOPC  H11A17190   3.065   6.446  17.444  1.0579  1.9870  0.5269
  145DOPC  H11B17191   3.139   6.385  17.287  3.0808 -0.2596 -0.3199
  145DOPC     P17192   3.223   6.156  17.393  0.0708 -0.1834 -0.5783
  145DOPC   O1317193   3.087   6.100  17.358  0.6611  0.4032 -0.3116
  145DOPC   O1417194   3.309   6.069  17.476 -0.9907 -0.2647 -0.0424
  145DOPC   O1217195   3.194   6.292  17.472 -0.5360 -0.3204  0.1967
  145DOPC   O1117196   3.301   6.196  17.261  0.3496  0.0504  0.0638
  145DOPC    C117197   3.325   6.095  17.159  0.0506 -0.0317  0.1158
  145DOPC    HA17198   3.227   6.064  17.116 -0.0045  1.5762 -0.9985
  145DOPC    HB17199   3.387   6.013  17.203 -0.1695 -1.1347 -1.5361
  145DOPC    C217200   3.410   6.156  17.050 -0.4307 -0.1514  0.1379
  145DOPC    HS17201   3.507   6.195  17.088 -0.1191  0.3900 -1.1434
  145DOPC   O2117202   3.336   6.270  16.992 -0.1332  0.4078  0.0289
  145DOPC   C2117203   3.355   6.382  17.050 -0.6834  0.1529  0.1405
  145DOPC   O2217204   3.443   6.412  17.130  0.1382  0.0145  0.1715
  145DOPC   C2217205   3.260   6.489  16.986  0.1357 -0.9719 -0.4249
  145DOPC   H2R17206   3.238   6.562  17.066  0.9636  0.3609 -1.3760
  145DOPC   H2S17207   3.175   6.436  16.938 -1.6834 -0.2309  1.8139
  145DOPC    C317208   3.441   6.047  16.940  0.6816  0.1697 -0.1657
  145DOPC    HX17209   3.352   5.982  16.926  0.2994  1.1682 -2.8318
  145DOPC    HY17210   3.523   5.985  16.984 -0.0826  1.7468  3.9572
  145DOPC   O3117211   3.484   6.106  16.819 -0.2138 -0.2942 -0.0621
  145DOPC   C3117212   3.530   6.028  16.729 -0.0174  0.6383 -0.2711
  145DOPC   O3217213   3.520   5.907  16.734 -0.0570  0.0303 -0.4061
  145DOPC   C3217214   3.611   6.112  16.630 -0.6523  0.5235 -0.1026
  145DOPC   H2X17215   3.604   6.222  16.644 -1.4428  0.3747  0.8093
  145DOPC   H2Y17216   3.713   6.068  16.635 -0.7376 -0.0317 -2.1716
  145DOPC   C2317217   3.330   6.574  16.881 -0.7262 -0.3164  0.0354
  145DOPC   H3R17218   3.423   6.611  16.929 -1.4116  1.0302  0.3826
  145DOPC   H3S17219   3.259   6.650  16.842 -2.9447 -1.1688  2.1311
  145DOPC   C2417220   3.355   6.493  16.750 -0.1069 -0.2630  0.3065
  145DOPC   H4R17221   3.376   6.386  16.768 -1.1917 -0.7382 -1.0839
  145DOPC   H4S17222   3.443   6.542  16.701 -0.7275  1.1851  0.5809
  145DOPC   C2517223   3.237   6.509  16.651 -0.4259  0.1216 -0.3900
  145DOPC   H5R17224   3.234   6.619  16.640  1.3110  0.2263 -0.2116
  145DOPC   H5S17225   3.151   6.453  16.693 -0.8389 -0.8450 -2.4078
  145DOPC   C2617226   3.279   6.448  16.516 -0.9801  0.1154 -1.0493
  145DOPC   H6R17227   3.298   6.340  16.534 -0.6893  0.0192 -1.8811
  145DOPC   H6S17228   3.370   6.501  16.479  0.8203 -0.6511  1.9465
  145DOPC   C2717229   3.172   6.447  16.411  0.3201  0.2337  0.0300
  145DOPC   H7R17230   3.157   6.554  16.384 -1.3759 -0.0764 -0.3799
  145DOPC   H7S17231   3.075   6.406  16.446  1.2258 -1.7799  0.3253
  145DOPC   C2817232   3.220   6.381  16.280 -0.3261  0.3185  0.0031
  145DOPC   H8R17233   3.202   6.273  16.296 -0.0189  0.4172  1.0832
  145DOPC   H8S17234   3.331   6.395  16.275 -0.1171 -1.0198  0.6598
  145DOPC   C2917235   3.154   6.435  16.157  0.1293 -0.2463 -0.3252
  145DOPC   H9R17236   3.092   6.525  16.175  0.2850  0.0042 -0.9926
  145DOPC  C21017237   3.161   6.382  16.035 -0.5960 -0.1144  0.8174
  145DOPC  H10R17238   3.098   6.430  15.959 -0.7705 -0.6890  0.5921
  145DOPC  C21117239   3.264   6.272  15.999  0.2429 -0.1158 -0.2238
  145DOPC  H11R17240   3.218   6.171  15.997 -0.4605  0.1461  1.6326
  145DOPC  H11S17241   3.350   6.266  16.068  0.7073  1.1394 -0.6609
  145DOPC  C21217242   3.315   6.303  15.858  0.2947 -0.1193  1.1093
  145DOPC  H12R17243   3.360   6.405  15.848 -0.5059  0.4387  2.8398
  145DOPC  H12S17244   3.223   6.292  15.796  1.1692 -0.2015 -0.2334
  145DOPC  C21317245   3.416   6.202  15.799 -0.0710  0.9515  0.2729
  145DOPC  H13R17246   3.396   6.114  15.864 -3.9458 -0.0877 -2.0312
  145DOPC  H13S17247   3.520   6.241  15.811  0.2317  0.7654 -1.4735
  145DOPC  C21417248   3.390   6.171  15.654  0.3788 -0.1661 -0.1766
  145DOPC  H14R17249   3.363   6.269  15.610  1.1556  0.4546  0.6912
  145DOPC  H14S17250   3.305   6.101  15.641  0.7834 -0.8328  0.6188
  145DOPC  C21517251   3.506   6.094  15.586 -0.5871  0.1906  0.0896
  145DOPC  H15R17252   3.600   6.150  15.601 -1.0686  0.6395  1.6089
  145DOPC  H15S17253   3.502   6.087  15.475  1.3406 -0.7501  0.0418
  145DOPC  C21617254   3.531   5.956  15.643  0.4974  0.2375  0.0208
  145DOPC  H16R17255   3.437   5.897  15.642 -0.0772  1.1093 -1.2263
  145DOPC  H16S17256   3.564   5.972  15.748 -0.0371 -0.2507  0.2659
  145DOPC  C21717257   3.635   5.887  15.558  0.8036  0.1632  0.3695
  145DOPC  H17R17258   3.722   5.956  15.548 -0.3370  1.3477 -3.0520
  145DOPC  H17S17259   3.601   5.866  15.454  1.3249  0.6552  0.0871
  145DOPC  C21817260   3.687   5.758  15.614  0.9211 -0.3552  0.5376
  145DOPC  H18R17261   3.743   5.788  15.705 -2.8857 -1.0607  3.3571
  145DOPC  H18S17262   3.759   5.706  15.548  0.6839 -2.1649  1.6531
  145DOPC  H18T17263   3.607   5.690  15.648  2.5487 -2.3524  0.5417
  145DOPC   C3317264   3.571   6.082  16.484  0.5201 -0.5287 -0.8397
  145DOPC   H3X17265   3.472   6.129  16.466  0.7581  0.3379  0.0034
  145DOPC   H3Y17266   3.554   5.973  16.481  0.0955 -0.7336  3.0081
  145DOPC   C3417267   3.672   6.137  16.385  0.1230  0.3570  1.7572
  145DOPC   H4X17268   3.767   6.082  16.401 -1.1267 -2.4231  0.3218
  145DOPC   H4Y17269   3.690   6.245  16.408  0.5963  0.4600  0.9750
  145DOPC   C3517270   3.638   6.122  16.231 -0.1904 -0.1471  0.2712
  145DOPC   H5X17271   3.713   6.180  16.173 -0.3669  0.5868  0.7535
  145DOPC   H5Y17272   3.536   6.163  16.218 -0.3803 -0.6854  0.0680
  145DOPC   C3617273   3.644   5.975  16.203 -0.1854  0.2436 -0.0856
  145DOPC   H6X17274   3.749   5.943  16.222  0.2436  1.1604 -0.8676
  145DOPC   H6Y17275   3.575   5.910  16.260 -0.6925  0.9744  0.1379
  145DOPC   C3717276   3.620   5.936  16.059 -0.0501 -0.0179  0.3759
  145DOPC   H7X17277   3.510   5.940  16.049 -0.1453 -1.1189  0.7950
  145DOPC   H7Y17278   3.664   6.013  15.992 -1.2739  1.1723  0.9158
  145DOPC   C3817279   3.668   5.787  16.028 -0.3555  0.4896  0.2173
  145DOPC   H8X17280   3.775   5.780  16.054  0.5134  1.5970 -2.6106
  145DOPC   H8Y17281   3.670   5.756  15.921 -0.1426  1.7280 -0.1592
  145DOPC   C3917282   3.591   5.677  16.089  0.5892  0.6670  0.2519
  145DOPC   H9X17283   3.530   5.709  16.175  1.0796  0.4001  0.7076
  145DOPC  C31017284   3.610   5.547  16.075 -0.0178  0.5620  0.2013
  145DOPC  H10X17285   3.551   5.478  16.137  1.2657 -1.3409 -0.6046
  145DOPC  C31117286   3.705   5.485  15.976  0.3503  0.2083 -0.0523
  145DOPC  H11X17287   3.750   5.396  16.025 -0.5083 -0.7152 -0.8804
  145DOPC  H11Y17288   3.785   5.558  15.950  0.2840  1.1342  2.1303
  145DOPC  C31217289   3.629   5.444  15.847 -0.1305  0.0810  0.3721
  145DOPC  H12X17290   3.588   5.524  15.783  0.4757 -1.6265 -2.3086
  145DOPC  H12Y17291   3.550   5.372  15.876  0.6135 -0.9061  0.0064
  145DOPC  C31317292   3.732   5.379  15.758  0.5605 -1.1394  0.4810
  145DOPC  H13X17293   3.814   5.452  15.737 -1.5134  1.9181  2.1317
  145DOPC  H13Y17294   3.776   5.294  15.813  2.2163  0.6208  2.0241
  145DOPC  C31417295   3.671   5.340  15.622 -0.3199  0.0814  0.6881
  145DOPC  H14X17296   3.737   5.261  15.581 -0.6556 -0.4797  1.2232
  145DOPC  H14Y17297   3.569   5.300  15.641  0.4067 -2.7044 -0.7435
  145DOPC  C31517298   3.667   5.444  15.511  0.1905 -0.2330 -0.4814
  145DOPC  H15X17299   3.761   5.502  15.517  0.7977 -1.2989  0.6079
  145DOPC  H15Y17300   3.586   5.520  15.515  1.1411  0.8146 -0.6882
  145DOPC  C31617301   3.673   5.379  15.376  0.2009 -0.3009  0.4124
  145DOPC  H16X17302   3.759   5.311  15.362  0.3459 -1.0616  4.1286
  145DOPC  H16Y17303   3.586   5.311  15.362  0.8202 -0.8760 -0.7435
  145DOPC  C31717304   3.649   5.477  15.258  0.0399  0.0242 -0.1040
  145DOPC  H17X17305   3.664   5.416  15.167  1.8418  2.5327 -1.6365
  145DOPC  H17Y17306   3.545   5.516  15.262  0.0288 -0.0056 -0.1072
  145DOPC  C31817307   3.751   5.588  15.248  0.5635 -0.7416 -0.0516
  145DOPC  H18X17308   3.723   5.656  15.165  0.5349  0.1630  0.6844
  145DOPC  H18Y17309   3.755   5.636  15.348  1.0505  0.3834 -0.5898
  145DOPC  H18Z17310   3.847   5.535  15.231  0.7923 -1.5328  3.0712
  146DOPC     N17311   4.519   2.460  17.531 -0.4257  0.2051 -0.8783
  146DOPC   C1217312   4.547   2.573  17.434 -0.0545  0.0316 -0.2022
  146DOPC  H12A17313   4.615   2.635  17.490  0.6132 -0.8729  0.0092
  146DOPC  H12B17314   4.461   2.636  17.417 -0.4136 -0.4943 -0.3604
  146DOPC   C1317315   4.644   2.383  17.560  0.9191  0.3016  0.2713
  146DOPC  H13A17316   4.694   2.355  17.469  1.0223  1.7025 -0.1212
  146DOPC  H13B17317   4.716   2.441  17.617  0.8267  0.7488 -0.0667
  146DOPC  H13C17318   4.616   2.299  17.623  0.2621 -0.9622 -1.6071
  146DOPC   C1417319   4.414   2.374  17.460 -0.5617  0.5254 -0.3250
  146DOPC  H14A17320   4.401   2.280  17.511 -1.9851  0.5961 -0.5225
  146DOPC  H14B17321   4.326   2.435  17.462 -0.2229  1.0048  1.1668
  146DOPC  H14C17322   4.449   2.361  17.358 -0.1935  0.4586 -0.1921
  146DOPC   C1517323   4.450   2.500  17.653 -0.7175 -0.2235  0.3953
  146DOPC  H15A17324   4.430   2.419  17.721 -0.6408  0.1104  0.8176
  146DOPC  H15B17325   4.362   2.560  17.633 -1.3536 -0.6990  1.6289
  146DOPC  H15C17326   4.509   2.569  17.711 -3.1253  0.3426  2.3496
  146DOPC   C1117327   4.614   2.544  17.297  0.2332 -0.5887  0.1929
  146DOPC  H11A17328   4.541   2.492  17.231  0.3857 -1.2887  0.5639
  146DOPC  H11B17329   4.637   2.646  17.259  0.3892 -0.4081  0.7557
  146DOPC     P17330   4.873   2.531  17.340  0.2491  0.3250  0.4727
  146DOPC   O1317331   4.940   2.441  17.429 -0.5567 -0.4075  0.2710
  146DOPC   O1417332   4.841   2.659  17.407 -0.1279 -0.2197 -0.4586
  146DOPC   O1217333   4.731   2.462  17.302 -0.0649 -0.6325 -0.2087
  146DOPC   O1117334   4.949   2.556  17.203 -0.0383  0.4979  0.2991
  146DOPC    C117335   4.918   2.682  17.139 -0.6073  0.1379  0.1442
  146DOPC    HA17336   4.993   2.756  17.176  0.2683 -1.0328  0.7683
  146DOPC    HB17337   4.819   2.725  17.164 -0.3680  0.7248  0.0935
  146DOPC    C217338   4.921   2.665  16.983 -0.1033 -0.1474  0.1639
  146DOPC    HS17339   4.891   2.766  16.947  1.2519 -0.0172 -0.6957
  146DOPC   O2117340   4.820   2.569  16.940  0.7137  0.0635  0.2927
  146DOPC   C2117341   4.692   2.611  16.943 -0.9471 -0.7182 -0.0483
  146DOPC   O2217342   4.654   2.722  16.974 -0.3003 -0.2884  0.0049
  146DOPC   C2217343   4.593   2.497  16.914 -0.3077 -0.2033  0.0558
  146DOPC   H2R17344   4.605   2.424  16.997  1.6661  0.1326  0.0955
  146DOPC   H2S17345   4.617   2.451  16.816  0.9052  0.2498  0.1298
  146DOPC    C317346   5.065   2.637  16.930  1.0635  0.0374 -0.8374
  146DOPC    HX17347   5.099   2.533  16.950 -0.7861 -1.0506 -2.9174
  146DOPC    HY17348   5.138   2.700  16.985 -2.8391  2.3500  2.2240
  146DOPC   O3117349   5.083   2.667  16.792  0.2123  0.1921 -0.1014
  146DOPC   C3117350   5.207   2.644  16.761 -0.2857  0.4785 -0.4306
  146DOPC   O3217351   5.295   2.606  16.836 -0.5874 -0.0913 -0.2171
  146DOPC   C3217352   5.227   2.684  16.616 -0.2957  0.4383 -0.4023
  146DOPC   H2X17353   5.155   2.619  16.561  0.7261 -0.9628 -0.1372
  146DOPC   H2Y17354   5.202   2.791  16.605  1.8278  0.9299 -0.8367
  146DOPC   C2317355   4.442   2.548  16.911 -0.4854 -0.5357 -0.6427
  146DOPC   H3R17356   4.428   2.599  17.009 -0.3439  2.7947 -2.2233
  146DOPC   H3S17357   4.384   2.454  16.918 -2.4514  0.4785 -2.2127
  146DOPC   C2417358   4.408   2.631  16.780 -0.1995 -0.2595 -0.4812
  146DOPC   H4R17359   4.478   2.715  16.763 -1.3824  0.3874 -2.5234
  146DOPC   H4S17360   4.306   2.665  16.810  0.4720  0.7790  0.7565
  146DOPC   C2517361   4.403   2.546  16.655  0.4197 -0.1595 -0.2089
  146DOPC   H5R17362   4.333   2.460  16.663  1.4304 -1.0923 -1.0618
  146DOPC   H5S17363   4.507   2.521  16.627  0.9835  1.2463  0.4926
  146DOPC   C2617364   4.360   2.628  16.535  0.7073  0.5338  1.0245
  146DOPC   H6R17365   4.452   2.680  16.501 -0.1397  0.2906 -1.8568
  146DOPC   H6S17366   4.285   2.706  16.558 -1.9555 -1.1115 -1.4118
  146DOPC   C2717367   4.311   2.525  16.422  0.7526 -0.1740  0.5698
  146DOPC   H7R17368   4.211   2.493  16.459 -0.2688 -0.7389 -2.3868
  146DOPC   H7S17369   4.386   2.445  16.411  0.8723 -0.1183  0.9729
  146DOPC   C2817370   4.275   2.599  16.291 -0.6306 -0.3419 -0.2922
  146DOPC   H8R17371   4.219   2.691  16.320 -0.6053 -0.1207 -0.9386
  146DOPC   H8S17372   4.215   2.525  16.235 -1.1887  0.1869 -0.4065
  146DOPC   C2917373   4.398   2.641  16.218  0.3348 -0.6178  0.5667
  146DOPC   H9R17374   4.491   2.628  16.275  0.7965  0.8451  0.2105
  146DOPC  C21017375   4.396   2.686  16.096 -0.5383 -0.3922 -0.1938
  146DOPC  H10R17376   4.495   2.715  16.055 -0.5911  1.4645  0.8986
  146DOPC  C21117377   4.272   2.689  16.011  0.5532 -0.2617  0.4599
  146DOPC  H11R17378   4.199   2.759  16.055 -1.2185 -1.3075 -0.6882
  146DOPC  H11S17379   4.219   2.591  16.008 -1.2838  0.7101 -0.5481
  146DOPC  C21217380   4.288   2.747  15.869 -0.1775 -0.2584 -0.1362
  146DOPC  H12R17381   4.201   2.698  15.820 -1.0390  0.3412  0.7648
  146DOPC  H12S17382   4.374   2.700  15.816 -2.1570 -2.4131 -1.7063
  146DOPC  C21317383   4.294   2.899  15.871  0.0401 -0.2492 -0.1838
  146DOPC  H13R17384   4.391   2.922  15.920 -0.2922 -2.8075  1.9046
  146DOPC  H13S17385   4.214   2.939  15.937  0.8731  1.2953 -0.0692
  146DOPC  C21417386   4.267   2.970  15.738  0.2242 -0.5689 -1.4118
  146DOPC  H14R17387   4.259   3.077  15.764 -1.5599 -1.2439  1.2234
  146DOPC  H14S17388   4.167   2.947  15.696 -1.4743  2.9774  0.2239
  146DOPC  C21517389   4.371   2.932  15.630 -0.2712  0.1337  0.4563
  146DOPC  H15R17390   4.359   2.824  15.607  0.3271  0.6129 -2.4984
  146DOPC  H15S17391   4.466   2.950  15.685  0.8125 -0.5356 -1.1089
  146DOPC  C21617392   4.371   3.005  15.496 -0.2895  0.2419  0.0932
  146DOPC  H16R17393   4.267   3.031  15.469 -1.0326 -1.0264  1.5641
  146DOPC  H16S17394   4.412   2.931  15.424 -0.7309 -0.4605  0.5477
  146DOPC  C21717395   4.449   3.139  15.497 -0.2249 -0.2454  0.3789
  146DOPC  H17R17396   4.551   3.127  15.539 -1.1882  0.0014  2.9739
  146DOPC  H17S17397   4.398   3.206  15.569 -1.4603 -1.9100  1.1131
  146DOPC  C21817398   4.455   3.205  15.353  0.9665  0.1228 -0.4885
  146DOPC  H18R17399   4.500   3.307  15.357  0.5797  0.3158 -0.9427
  146DOPC  H18S17400   4.352   3.219  15.314 -0.1806  0.0574  2.2788
  146DOPC  H18T17401   4.500   3.132  15.283 -1.3286 -2.3588  0.4801
  146DOPC   C3317402   5.372   2.660  16.578 -0.0064  0.0690  0.2171
  146DOPC   H3X17403   5.380   2.552  16.549 -2.2687 -0.3417  0.9789
  146DOPC   H3Y17404   5.439   2.696  16.659  0.6369 -0.5678 -0.0154
  146DOPC   C3417405   5.407   2.751  16.461 -1.0171 -0.3100  0.3466
  146DOPC   H4X17406   5.516   2.748  16.439 -1.1468  1.0144 -0.6275
  146DOPC   H4Y17407   5.393   2.858  16.489 -0.8912  0.1638 -1.3145
  146DOPC   C3517408   5.320   2.737  16.334 -0.1163 -0.1534  0.5244
  146DOPC   H5X17409   5.213   2.738  16.361  0.3261 -1.5384  2.5809
  146DOPC   H5Y17410   5.342   2.637  16.292 -0.6704  0.0311 -0.2081
  146DOPC   C3617411   5.352   2.836  16.227 -0.3778 -0.5719 -0.9850
  146DOPC   H6X17412   5.347   2.940  16.264 -0.7861 -1.0275  0.2829
  146DOPC   H6Y17413   5.459   2.818  16.201  0.2615  0.8828  0.5242
  146DOPC   C3717414   5.270   2.823  16.096 -0.4651 -0.5481  0.6575
  146DOPC   H7X17415   5.307   2.733  16.044 -2.2393 -0.3991 -0.9921
  146DOPC   H7Y17416   5.160   2.813  16.114 -0.4423  1.7569  2.6346
  146DOPC   C3817417   5.285   2.945  15.998 -0.2919 -0.1056  0.1315
  146DOPC   H8X17418   5.270   3.041  16.051 -1.0715 -0.2001  0.0985
  146DOPC   H8Y17419   5.200   2.941  15.926 -0.5456 -3.0500  0.4621
  146DOPC   C3917420   5.419   2.935  15.929  0.5669 -0.0398 -0.3860
  146DOPC   H9X17421   5.500   3.002  15.962  0.5969  0.1086 -0.7624
  146DOPC  C31017422   5.447   2.856  15.822 -0.3168  0.3306  0.2132
  146DOPC  H10X17423   5.536   2.875  15.761 -1.4225 -0.9376 -1.9378
  146DOPC  C31117424   5.347   2.769  15.759 -0.8785  0.1119  0.0659
  146DOPC  H11X17425   5.250   2.777  15.811 -0.9724 -1.0306  0.0975
  146DOPC  H11Y17426   5.381   2.663  15.764 -1.6632 -0.1541 -0.0254
  146DOPC  C31217427   5.324   2.807  15.608  0.1735 -0.2463 -0.4868
  146DOPC  H12X17428   5.240   2.745  15.572 -2.2592  1.3857  1.9799
  146DOPC  H12Y17429   5.417   2.787  15.550 -0.1026 -2.6430 -0.2124
  146DOPC  C31317430   5.283   2.956  15.585  0.4719 -0.4274  0.1727
  146DOPC  H13X17431   5.216   3.000  15.662  1.1480  1.4334 -0.2440
  146DOPC  H13Y17432   5.376   3.016  15.596 -0.1296  0.7124 -0.7567
  146DOPC  C31417433   5.227   2.976  15.447 -0.0961 -0.1583  0.5329
  146DOPC  H14X17434   5.211   3.082  15.419 -0.6520 -0.4286 -0.1930
  146DOPC  H14Y17435   5.301   2.919  15.387 -2.1782 -3.1681  0.5884
  146DOPC  C31517436   5.085   2.921  15.438 -0.8503 -0.2443 -0.2363
  146DOPC  H15X17437   5.037   2.935  15.537 -2.2170 -0.1644 -0.8929
  146DOPC  H15Y17438   5.085   2.810  15.427 -0.1731 -0.1373 -1.5410
  146DOPC  C31617439   5.003   2.991  15.338  0.1034 -0.3796  0.1792
  146DOPC  H16X17440   4.991   3.099  15.361  2.0766  0.2943 -1.6016
  146DOPC  H16Y17441   5.067   2.985  15.247  1.3675  0.0810  1.0309
  146DOPC  C31717442   4.871   2.928  15.303 -0.3208  0.3180  0.4933
  146DOPC  H17X17443   4.848   2.982  15.208  2.6940  0.7278 -0.0829
  146DOPC  H17Y17444   4.872   2.818  15.287  0.7219  0.6004 -1.6356
  146DOPC  C31817445   4.765   2.958  15.408  0.0802 -0.4579  0.0881
  146DOPC  H18X17446   4.756   3.069  15.415 -1.5035 -0.4714 -1.0724
  146DOPC  H18Y17447   4.665   2.931  15.368 -0.4136  2.1861 -0.7087
  146DOPC  H18Z17448   4.791   2.903  15.500  1.5510  1.6831  1.0305
  147DOPC     N17449   1.815   4.078  17.816 -0.1365  0.1556  0.0641
  147DOPC   C1217450   1.910   3.987  17.890 -0.0134 -0.4522  0.3703
  147DOPC  H12A17451   1.857   3.966  17.982 -1.0817 -0.4703 -0.2395
  147DOPC  H12B17452   2.002   4.039  17.916  0.6275 -0.9097 -0.9169
  147DOPC   C1317453   1.693   4.014  17.764 -0.1411 -0.2085 -0.6440
  147DOPC  H13A17454   1.622   3.994  17.842 -1.2490 -0.8286 -1.7718
  147DOPC  H13B17455   1.648   4.087  17.698 -0.5982  0.5258  0.4638
  147DOPC  H13C17456   1.712   3.925  17.705  1.9914  0.0857 -0.4876
  147DOPC   C1417457   1.880   4.155  17.708 -0.8044 -0.3408 -0.3880
  147DOPC  H14A17458   1.909   4.101  17.619 -1.3541 -1.3622  0.0379
  147DOPC  H14B17459   1.815   4.233  17.671  0.1375 -0.0430 -1.5046
  147DOPC  H14C17460   1.960   4.211  17.755  0.2679 -3.8137  2.2647
  147DOPC   C1517461   1.781   4.181  17.911  0.8158  0.1441  0.3281
  147DOPC  H15A17462   1.736   4.136  17.998  1.5923 -0.4182  0.4374
  147DOPC  H15B17463   1.701   4.240  17.868  2.0564  0.4519 -1.6828
  147DOPC  H15C17464   1.869   4.236  17.939  1.7213 -0.6791 -0.8332
  147DOPC   C1117465   1.947   3.855  17.828 -0.1272 -0.0382  0.2496
  147DOPC  H11A17466   2.019   3.805  17.897  1.6638  0.8665 -0.8782
  147DOPC  H11B17467   1.860   3.788  17.814  0.1501 -0.1094 -1.2376
  147DOPC     P17468   2.128   3.784  17.646 -0.9001 -0.1264  0.1632
  147DOPC   O1317469   2.092   3.647  17.622  0.2473  0.3926  0.1939
  147DOPC   O1417470   2.250   3.804  17.725  0.0225 -0.2137 -0.6037
  147DOPC   O1217471   2.006   3.876  17.699 -0.6268  0.5696  0.2512
  147DOPC   O1117472   2.148   3.846  17.508  0.2624 -0.2428  0.2521
  147DOPC    C117473   2.158   3.762  17.388  0.2822 -0.4440 -0.0851
  147DOPC    HA17474   2.215   3.669  17.407  1.2825  0.0917 -0.4089
  147DOPC    HB17475   2.222   3.818  17.317  1.0967  2.7323  2.8809
  147DOPC    C217476   2.015   3.736  17.327  0.0039  0.0867 -0.4522
  147DOPC    HS17477   1.946   3.726  17.414 -1.0901  0.5677 -1.2353
  147DOPC   O2117478   2.008   3.619  17.248 -0.4304  0.4036  0.2581
  147DOPC   C2117479   1.877   3.589  17.223 -0.4608  0.7074 -0.2701
  147DOPC   O2217480   1.781   3.646  17.265  0.5578 -0.0023 -0.2123
  147DOPC   C2217481   1.884   3.449  17.158 -0.2726  0.1188  0.4292
  147DOPC   H2R17482   1.837   3.374  17.226  0.5177  0.4921  1.4241
  147DOPC   H2S17483   1.992   3.432  17.136  0.6186  1.7641  3.0700
  147DOPC    C317484   1.968   3.865  17.256  0.3261  0.2996 -0.1871
  147DOPC    HX17485   2.025   3.946  17.305  0.0399 -1.1488  2.7562
  147DOPC    HY17486   1.862   3.881  17.286  0.5809 -0.3714  1.1662
  147DOPC   O3117487   1.975   3.857  17.108  0.3788 -0.2042  1.1766
  147DOPC   C3117488   2.075   3.923  17.052  0.0486 -0.9025 -0.7141
  147DOPC   O3217489   2.172   3.966  17.109 -0.2675  0.0581 -0.8272
  147DOPC   C3217490   2.037   3.944  16.908 -0.1993 -0.3765 -0.1585
  147DOPC   H2X17491   1.995   3.853  16.860  0.9160 -0.9764 -0.0160
  147DOPC   H2Y17492   1.959   4.023  16.900 -0.1124 -0.2663  0.0612
  147DOPC   C2317493   1.817   3.449  17.021  0.8973 -0.7103  0.1830
  147DOPC   H3R17494   1.852   3.358  16.967 -1.5356 -0.8613 -1.2596
  147DOPC   H3S17495   1.846   3.538  16.961 -0.3747 -0.9038 -0.7564
  147DOPC   C2417496   1.658   3.449  17.027 -0.6982  0.0016  0.3460
  147DOPC   H4R17497   1.617   3.460  16.924 -2.1655 -0.4164  0.8641
  147DOPC   H4S17498   1.627   3.535  17.090  0.0673 -0.1298  0.9151
  147DOPC   C2517499   1.588   3.332  17.084  0.9226 -0.6166  0.0897
  147DOPC   H5R17500   1.603   3.320  17.193 -1.6086 -0.0320  0.5678
  147DOPC   H5S17501   1.612   3.231  17.045 -0.8358 -1.2229  0.5050
  147DOPC   C2617502   1.434   3.325  17.064  0.5964  0.0307  0.3198
  147DOPC   H6R17503   1.396   3.224  17.088 -1.3513  0.2170 -1.6859
  147DOPC   H6S17504   1.409   3.351  16.959  1.0950  1.6889  0.5719
  147DOPC   C2717505   1.359   3.412  17.166  0.8365 -0.3306  0.8637
  147DOPC   H7R17506   1.354   3.520  17.140 -4.0472 -0.3587  0.6027
  147DOPC   H7S17507   1.416   3.396  17.260  1.9448  0.7588  0.3899
  147DOPC   C2817508   1.215   3.357  17.184 -0.8680 -0.3787 -0.3027
  147DOPC   H8R17509   1.216   3.281  17.264  1.0752  0.2014  0.2688
  147DOPC   H8S17510   1.194   3.301  17.090  3.5660  0.9908 -2.3867
  147DOPC   C2917511   1.129   3.479  17.216 -0.1092 -0.1775 -0.2941
  147DOPC   H9R17512   1.133   3.516  17.319 -1.4274  0.4649 -0.4482
  147DOPC  C21017513   1.062   3.556  17.130 -0.2755  0.4393  0.3512
  147DOPC  H10R17514   1.007   3.645  17.162 -0.9284 -0.1561  0.9197
  147DOPC  C21117515   1.048   3.533  16.982 -0.1168  0.3476 -0.2981
  147DOPC  H11R17516   0.944   3.558  16.951 -0.4231  0.7855  1.0370
  147DOPC  H11S17517   1.071   3.427  16.954 -1.6995 -0.4118  1.1259
  147DOPC  C21217518   1.156   3.614  16.910  0.0013  0.2532 -0.8195
  147DOPC  H12R17519   1.253   3.610  16.965 -0.8851 -0.1506  0.7513
  147DOPC  H12S17520   1.128   3.721  16.922  0.3815  0.2228  0.4269
  147DOPC  C21317521   1.185   3.580  16.760 -0.3474  0.1197 -0.4389
  147DOPC  H13R17522   1.087   3.554  16.715  0.3241  0.3326 -2.0760
  147DOPC  H13S17523   1.254   3.494  16.753  0.3318  0.4881  1.2516
  147DOPC  C21417524   1.224   3.712  16.687 -0.1489 -0.2661 -0.5336
  147DOPC  H14R17525   1.327   3.737  16.719 -0.7886  1.6303  0.1740
  147DOPC  H14S17526   1.161   3.796  16.725 -1.1929  0.1184 -2.9051
  147DOPC  C21517527   1.205   3.715  16.538 -0.0917 -0.1721 -0.5007
  147DOPC  H15R17528   1.230   3.815  16.499 -0.1214 -0.4083 -1.1272
  147DOPC  H15S17529   1.098   3.699  16.512 -0.0387 -0.9640 -0.2648
  147DOPC  C21617530   1.281   3.602  16.463 -1.0753  0.3569 -0.7984
  147DOPC  H16R17531   1.251   3.502  16.500  1.1017 -0.0212  0.0477
  147DOPC  H16S17532   1.391   3.611  16.475 -1.0147 -1.1629 -0.0273
  147DOPC  C21717533   1.245   3.608  16.313  0.0976 -0.7184  0.2641
  147DOPC  H17R17534   1.135   3.618  16.301  0.3218  2.5644 -0.1539
  147DOPC  H17S17535   1.273   3.511  16.267 -0.5579 -1.3434  1.1623
  147DOPC  C21817536   1.307   3.732  16.254 -0.4112 -0.1770 -0.0426
  147DOPC  H18R17537   1.275   3.761  16.151  1.6547  0.2632 -0.6096
  147DOPC  H18S17538   1.416   3.709  16.255  0.1365  1.2459 -4.4207
  147DOPC  H18T17539   1.293   3.821  16.318  1.3315  0.0848  0.0190
  147DOPC   C3317540   2.161   3.988  16.820 -0.2968 -0.1899 -0.2031
  147DOPC   H3X17541   2.246   3.919  16.837 -1.1160 -0.9773  0.8963
  147DOPC   H3Y17542   2.193   4.090  16.850 -4.1299  1.1404 -0.1294
  147DOPC   C3417543   2.120   3.984  16.674  0.7087 -0.0262 -0.3075
  147DOPC   H4X17544   2.014   4.016  16.675  0.9710  0.8710 -0.5124
  147DOPC   H4Y17545   2.114   3.879  16.636  1.4003 -0.9104  1.8897
  147DOPC   C3517546   2.206   4.080  16.586  0.3572 -0.9351 -0.7365
  147DOPC   H5X17547   2.311   4.068  16.621  0.1673 -1.3140 -0.2813
  147DOPC   H5Y17548   2.179   4.187  16.600  2.5859 -0.4883  0.5579
  147DOPC   C3617549   2.176   4.034  16.445  0.4393  0.2543 -0.6594
  147DOPC   H6X17550   2.214   3.931  16.430 -1.1813 -0.0016 -3.8512
  147DOPC   H6Y17551   2.067   4.024  16.427  0.2288  0.7575  0.2638
  147DOPC   C3717552   2.240   4.135  16.341 -0.0400 -0.1053  0.3429
  147DOPC   H7X17553   2.191   4.228  16.374 -1.0014  0.6720 -2.9017
  147DOPC   H7Y17554   2.351   4.135  16.349  0.0623 -0.0273 -0.8615
  147DOPC   C3817555   2.206   4.106  16.195  0.1205  0.0431 -0.2049
  147DOPC   H8X17556   2.208   4.200  16.136  0.5432  0.3558  0.2947
  147DOPC   H8Y17557   2.102   4.067  16.189  0.6196 -1.4340  0.4585
  147DOPC   C3917558   2.290   3.999  16.135 -0.0712  0.2685  0.2547
  147DOPC   H9X17559   2.389   3.981  16.177 -0.6192 -1.4408  0.8756
  147DOPC  C31017560   2.251   3.943  16.017 -0.1788 -0.4173 -0.1040
  147DOPC  H10X17561   2.328   3.880  15.971 -0.7035 -0.8349 -0.4156
  147DOPC  C31117562   2.133   3.968  15.920  0.0355  0.0367  0.0661
  147DOPC  H11X17563   2.099   4.071  15.943  0.1816 -0.2940  1.9508
  147DOPC  H11Y17564   2.058   3.890  15.946 -0.3338  0.7637  1.2154
  147DOPC  C31217565   2.178   3.960  15.770 -0.8362  0.3709 -0.2304
  147DOPC  H12X17566   2.217   3.858  15.751 -1.6927 -0.4795  2.1661
  147DOPC  H12Y17567   2.254   4.040  15.754 -1.3112  0.8406 -0.1946
  147DOPC  C31317568   2.069   3.997  15.674  0.3607 -0.0608 -0.3772
  147DOPC  H13X17569   1.998   3.915  15.698  1.2646  0.3334  4.5054
  147DOPC  H13Y17570   2.012   4.090  15.695  1.8964  0.6060  0.9685
  147DOPC  C31417571   2.112   4.009  15.524 -0.5164 -0.7521  0.2569
  147DOPC  H14X17572   2.159   4.110  15.521 -0.5822 -0.6973  0.9019
  147DOPC  H14Y17573   2.187   3.935  15.489  0.7389  0.5769  0.0125
  147DOPC  C31517574   2.005   4.014  15.417 -0.1857 -0.5859 -0.0941
  147DOPC  H15X17575   2.044   4.048  15.319 -0.2465 -1.5735 -0.4689
  147DOPC  H15Y17576   1.918   4.080  15.438 -1.1009 -1.1570 -1.8872
  147DOPC  C31617577   1.936   3.882  15.402 -0.6782  0.8315  0.1081
  147DOPC  H16X17578   2.006   3.804  15.364 -2.0301 -1.2773  1.7440
  147DOPC  H16Y17579   1.899   3.851  15.502 -0.3311  0.6437  0.1817
  147DOPC  C31717580   1.812   3.894  15.307 -0.2175 -0.1954 -0.0503
  147DOPC  H17X17581   1.765   3.794  15.303 -0.3254 -0.1104 -1.5279
  147DOPC  H17Y17582   1.740   3.959  15.360 -0.4142 -0.9869  0.6741
  147DOPC  C31817583   1.840   3.939  15.164  0.4445 -0.2376 -0.2055
  147DOPC  H18X17584   1.882   4.041  15.154 -1.2407  0.3159 -2.5432
  147DOPC  H18Y17585   1.914   3.872  15.115  1.5537 -1.0543  2.4012
  147DOPC  H18Z17586   1.741   3.938  15.113  0.7618 -0.5840 -0.8340
  148DOPC     N17587   2.091   6.649  16.998 -0.0782  0.4752 -0.3584
  148DOPC   C1217588   2.194   6.575  16.911 -0.3286  0.3454  0.1598
  148DOPC  H12A17589   2.212   6.642  16.828 -1.2796  0.0814 -0.2749
  148DOPC  H12B17590   2.149   6.489  16.864  0.5257 -0.0880  0.1016
  148DOPC   C1317591   2.025   6.545  17.095 -0.0244 -0.1014 -0.0941
  148DOPC  H13A17592   1.972   6.471  17.038  0.4280  0.6664 -1.5624
  148DOPC  H13B17593   2.103   6.504  17.157 -0.5611 -0.1598  0.5537
  148DOPC  H13C17594   1.960   6.605  17.157 -0.1599 -0.4920  0.1436
  148DOPC   C1417595   1.992   6.716  16.914  0.5221 -0.8022  0.4466
  148DOPC  H14A17596   1.937   6.792  16.968  0.8466  0.1774 -0.5835
  148DOPC  H14B17597   2.035   6.764  16.827 -1.2722 -0.5076 -0.3291
  148DOPC  H14C17598   1.914   6.657  16.868  0.0741 -0.1282  0.3299
  148DOPC   C1517599   2.164   6.752  17.085 -0.8569 -0.8176 -0.3483
  148DOPC  H15A17600   2.230   6.698  17.151 -0.9569 -1.3916 -0.7121
  148DOPC  H15B17601   2.103   6.814  17.150 -1.4056 -1.2068 -0.4912
  148DOPC  H15C17602   2.224   6.822  17.029  0.4320 -0.7989  0.9881
  148DOPC   C1117603   2.327   6.527  16.966 -0.5166 -0.9632 -0.1545
  148DOPC  H11A17604   2.385   6.482  16.883 -0.5158 -1.7400  0.2609
  148DOPC  H11B17605   2.385   6.616  16.999 -0.7356 -0.0728 -2.0405
  148DOPC     P17606   2.304   6.279  17.053  0.4139  0.0151 -0.6165
  148DOPC   O1317607   2.161   6.244  17.032  0.2355 -0.8643 -0.4035
  148DOPC   O1417608   2.366   6.201  17.161 -0.5526 -0.2847  0.2688
  148DOPC   O1217609   2.306   6.429  17.072 -0.4833  0.1698  0.4248
  148DOPC   O1117610   2.390   6.254  16.928 -0.3908 -0.7471  0.2321
  148DOPC    C117611   2.534   6.256  16.937 -0.3125  0.3898 -0.0992
  148DOPC    HA17612   2.576   6.171  16.996  1.0721  1.9166  1.2136
  148DOPC    HB17613   2.573   6.350  16.981  2.8302  0.4851 -2.6536
  148DOPC    C217614   2.601   6.240  16.793 -0.3047 -0.4739 -0.3212
  148DOPC    HS17615   2.586   6.136  16.754  0.3334 -0.4662 -0.5984
  148DOPC   O2117616   2.744   6.269  16.798 -0.5335 -0.6765  0.6710
  148DOPC   C2117617   2.816   6.157  16.831  0.8301  0.4097  0.4993
  148DOPC   O2217618   2.772   6.048  16.866 -0.0299 -0.2538  0.5438
  148DOPC   C2217619   2.958   6.190  16.839  0.0821  0.2629  0.4640
  148DOPC   H2R17620   2.980   6.206  16.947 -1.3495  2.3149  0.5048
  148DOPC   H2S17621   2.977   6.288  16.791 -1.7038  0.5991  0.3896
  148DOPC    C317622   2.531   6.337  16.686 -0.0289  0.3470 -0.6257
  148DOPC    HX17623   2.546   6.445  16.709 -0.0211  0.1280  0.4549
  148DOPC    HY17624   2.426   6.304  16.695 -0.4373  1.2387 -1.8849
  148DOPC   O3117625   2.565   6.303  16.551  0.3852  0.1049 -0.1800
  148DOPC   C3117626   2.661   6.372  16.495 -0.0941 -0.3308  0.3199
  148DOPC   O3217627   2.727   6.465  16.540 -0.6086  0.3902 -0.2157
  148DOPC   C3217628   2.699   6.307  16.356 -0.6083  0.0368 -0.2060
  148DOPC   H2X17629   2.803   6.270  16.371 -0.5092  0.9167  1.5701
  148DOPC   H2Y17630   2.633   6.220  16.336 -1.0184  0.6590 -1.6753
  148DOPC   C2317631   3.045   6.079  16.781 -0.0379 -0.0688 -0.0726
  148DOPC   H3R17632   3.008   5.979  16.813 -0.8101  0.4049  0.5474
  148DOPC   H3S17633   3.145   6.101  16.822 -1.1504  1.3147  2.0821
  148DOPC   C2417634   3.072   6.076  16.628  0.0517 -0.2508  0.1551
  148DOPC   H4R17635   3.125   6.165  16.587 -1.8387  0.8405 -0.0688
  148DOPC   H4S17636   2.977   6.057  16.573  0.3665  0.7165 -0.7517
  148DOPC   C2517637   3.171   5.953  16.608  0.0544  0.3452 -0.7229
  148DOPC   H5R17638   3.114   5.860  16.627 -0.5764  1.1025  1.3915
  148DOPC   H5S17639   3.260   5.960  16.674  0.9670  1.9642 -2.0392
  148DOPC   C2617640   3.226   5.924  16.464 -0.5128 -0.1133 -0.0270
  148DOPC   H6R17641   3.298   5.840  16.468  1.5149  1.5534  0.0810
  148DOPC   H6S17642   3.297   6.005  16.436  1.9923 -1.7120  1.4044
  148DOPC   C2717643   3.108   5.898  16.367  0.3307 -0.6917 -0.2024
  148DOPC   H7R17644   3.075   5.994  16.323 -0.3984 -0.6088  0.5035
  148DOPC   H7S17645   3.024   5.846  16.418  0.8778 -2.2296 -0.8039
  148DOPC   C2817646   3.141   5.796  16.259 -0.2799  0.2985  0.0507
  148DOPC   H8R17647   3.046   5.758  16.215  1.1209 -1.4914 -1.5917
  148DOPC   H8S17648   3.186   5.707  16.309 -0.2624  1.5357  2.3652
  148DOPC   C2917649   3.234   5.843  16.153  0.1156 -0.3599  0.7669
  148DOPC   H9R17650   3.340   5.848  16.181  0.7559 -1.0777 -1.3485
  148DOPC  C21017651   3.207   5.889  16.026  0.2404  0.3617 -0.2536
  148DOPC  H10R17652   3.287   5.901  15.952  0.2574  0.3724 -0.2328
  148DOPC  C21117653   3.073   5.897  15.953  0.5965 -0.6853  0.1153
  148DOPC  H11R17654   3.056   6.001  15.916  0.4629 -1.1451 -1.1628
  148DOPC  H11S17655   2.991   5.872  16.024  0.9884 -0.6408  0.5885
  148DOPC  C21217656   3.050   5.790  15.847  0.8775  0.6491 -0.9419
  148DOPC  H12R17657   2.944   5.793  15.813  0.7197 -0.0601 -0.5527
  148DOPC  H12S17658   3.052   5.687  15.889 -3.4088  0.9615  0.5347
  148DOPC  C21317659   3.127   5.818  15.720  0.2555 -0.9034  0.3536
  148DOPC  H13R17660   3.232   5.810  15.753  1.0494  3.5424 -0.5622
  148DOPC  H13S17661   3.113   5.923  15.688 -3.9093 -1.3270  0.2180
  148DOPC  C21417662   3.090   5.730  15.596  0.2084 -0.0994 -0.1838
  148DOPC  H14R17663   3.000   5.775  15.548 -0.0040 -2.5016 -2.2838
  148DOPC  H14S17664   3.071   5.621  15.606  1.1666 -0.2707 -0.1973
  148DOPC  C21517665   3.203   5.739  15.491  0.1153  0.1997 -1.0110
  148DOPC  H15R17666   3.175   5.674  15.406 -0.2307 -0.3111 -0.5074
  148DOPC  H15S17667   3.295   5.706  15.544  0.5302  1.3076 -0.9927
  148DOPC  C21617668   3.221   5.880  15.434 -0.7814 -0.3183 -0.1656
  148DOPC  H16R17669   3.298   5.874  15.354  1.3966  0.6691  1.7178
  148DOPC  H16S17670   3.270   5.947  15.509  1.2759 -1.0759 -0.7441
  148DOPC  C21717671   3.092   5.947  15.374 -0.1154 -0.5276  0.7902
  148DOPC  H17R17672   3.008   5.971  15.444 -2.3841 -2.4476 -1.0876
  148DOPC  H17S17673   3.053   5.872  15.302  0.7456 -1.2701  1.0724
  148DOPC  C21817674   3.131   6.077  15.293 -0.5729  0.1245 -0.2441
  148DOPC  H18R17675   3.038   6.116  15.247 -0.6421  0.4100  0.1339
  148DOPC  H18S17676   3.206   6.049  15.215 -0.9142 -1.6513  0.0291
  148DOPC  H18T17677   3.178   6.162  15.347  1.8765 -2.1022  1.3720
  148DOPC   C3317678   2.695   6.413  16.248  0.0342 -0.7312 -0.0200
  148DOPC   H3X17679   2.774   6.489  16.262 -0.0003 -0.1302 -2.5023
  148DOPC   H3Y17680   2.595   6.457  16.227  0.6017  0.4704 -0.2605
  148DOPC   C3417681   2.738   6.354  16.112  0.1597 -0.5057  0.9134
  148DOPC   H4X17682   2.698   6.251  16.106  0.4689 -0.6122  0.6309
  148DOPC   H4Y17683   2.849   6.342  16.115 -0.0253 -2.5274  1.3217
  148DOPC   C3517684   2.696   6.434  15.993 -0.1817 -0.5988  0.0675
  148DOPC   H5X17685   2.763   6.521  15.975 -2.2186  1.0499  0.1543
  148DOPC   H5Y17686   2.592   6.470  16.007 -1.0949 -3.0694  0.1190
  148DOPC   C3617687   2.702   6.353  15.864 -0.9725  0.3539  0.0323
  148DOPC   H6X17688   2.644   6.260  15.883  0.3652 -0.9620 -1.9540
  148DOPC   H6Y17689   2.651   6.405  15.780 -1.8372  2.8210  1.9733
  148DOPC   C3717690   2.847   6.299  15.829  0.3678 -0.2602  0.4633
  148DOPC   H7X17691   2.913   6.388  15.832  0.6053 -0.4682  1.8336
  148DOPC   H7Y17692   2.894   6.241  15.911  0.2277  0.2891  0.9400
  148DOPC   C3817693   2.865   6.237  15.695  0.1170 -1.3401 -0.1093
  148DOPC   H8X17694   2.972   6.246  15.666 -0.1654  0.7792 -0.6163
  148DOPC   H8Y17695   2.825   6.308  15.619  1.8239 -0.4524 -0.2235
  148DOPC   C3917696   2.806   6.104  15.665 -0.0954  0.3216  1.0440
  148DOPC   H9X17697   2.850   6.022  15.723  3.2144  0.1123 -1.4229
  148DOPC  C31017698   2.721   6.064  15.568 -0.6969  0.2486  0.5290
  148DOPC  H10X17699   2.695   5.957  15.559 -1.2348  0.2960  1.4101
  148DOPC  C31117700   2.650   6.145  15.467  0.7514 -0.3701  0.2667
  148DOPC  H11X17701   2.616   6.245  15.502  1.4459 -0.4552  1.2306
  148DOPC  H11Y17702   2.551   6.098  15.448  0.3323  0.3228  0.6777
  148DOPC  C31217703   2.719   6.182  15.336 -0.6490  0.2053 -0.4035
  148DOPC  H12X17704   2.806   6.250  15.342 -0.1234 -0.1489 -2.7800
  148DOPC  H12Y17705   2.642   6.234  15.275 -2.4942  1.2612  2.5967
  148DOPC  C31317706   2.755   6.064  15.253  0.5352  0.2361 -0.3954
  148DOPC  H13X17707   2.834   6.001  15.299  1.9700  1.8661 -0.5173
  148DOPC  H13Y17708   2.668   5.996  15.248  0.0270  0.7995  0.4181
  148DOPC  C31417709   2.788   6.096  15.104 -0.1573  0.1173 -0.5382
  148DOPC  H14X17710   2.716   6.171  15.068  0.0253  0.9291  0.7216
  148DOPC  H14Y17711   2.886   6.147  15.107  1.3589 -2.6071  0.2682
  148DOPC  C31517712   2.814   5.969  15.027  0.4628  0.3722  0.5606
  148DOPC  H15X17713   2.714   5.924  15.010  0.4737  1.1249 -1.9006
  148DOPC  H15Y17714   2.874   5.888  15.075 -0.0110 -1.4352 -1.7146
  148DOPC  C31617715   2.871   5.995  14.887  0.3739 -0.1782 -0.4344
  148DOPC  H16X17716   2.818   6.080  14.839 -0.2609  1.0716  2.3020
  148DOPC  H16Y17717   2.978   6.020  14.904  0.7274 -2.9031  2.2138
  148DOPC  C31717718   2.869   5.878  14.785  0.0252  0.2962  0.8685
  148DOPC  H17X17719   2.914   5.787  14.832 -2.1966 -0.8688  0.8966
  148DOPC  H17Y17720   2.764   5.857  14.755  0.3172 -2.5638  1.4791
  148DOPC  C31817721   2.946   5.907  14.656  0.2411  0.2938  0.5659
  148DOPC  H18X17722   2.922   5.815  14.599  0.3791 -1.5325  3.2771
  148DOPC  H18Y17723   2.923   6.003  14.606 -0.3162 -0.1833 -0.0943
  148DOPC  H18Z17724   3.055   5.896  14.679  0.3078  0.0254  0.1326
  149DOPC     N17725   1.287   4.665  17.716  0.8267  0.3851 -0.0248
  149DOPC   C1217726   1.266   4.518  17.661 -0.2394  0.0741  0.3566
  149DOPC  H12A17727   1.321   4.509  17.569  1.2460 -0.2943  1.2359
  149DOPC  H12B17728   1.162   4.503  17.638 -0.2154  1.4075 -0.7592
  149DOPC   C1317729   1.257   4.777  17.617  0.4090  0.0506  0.1546
  149DOPC  H13A17730   1.271   4.875  17.661  0.2424 -0.1286  0.6158
  149DOPC  H13B17731   1.326   4.767  17.535  0.8381  0.7961  0.4200
  149DOPC  H13C17732   1.155   4.771  17.582  0.4105 -0.4654  0.2320
  149DOPC   C1417733   1.419   4.687  17.772  0.0938  0.2645  0.1307
  149DOPC  H14A17734   1.444   4.779  17.821 -0.7685  0.5694  0.0275
  149DOPC  H14B17735   1.440   4.605  17.840 -0.3046 -1.1879 -1.4209
  149DOPC  H14C17736   1.490   4.698  17.692 -0.8988  2.4450 -0.5358
  149DOPC   C1517737   1.185   4.687  17.830 -0.2488  0.5843  1.0687
  149DOPC  H15A17738   1.204   4.782  17.879  1.1790  0.7571  0.2206
  149DOPC  H15B17739   1.179   4.609  17.903  0.0201 -0.1364  0.3333
  149DOPC  H15C17740   1.083   4.682  17.795 -0.1213  0.5579  0.6987
  149DOPC   C1117741   1.316   4.398  17.749 -0.2187  0.7628 -0.2837
  149DOPC  H11A17742   1.277   4.412  17.852  0.2627 -1.1093  0.1792
  149DOPC  H11B17743   1.280   4.299  17.715 -1.0473  1.2785 -0.9701
  149DOPC     P17744   1.543   4.344  17.634  0.1398  0.1015  0.2537
  149DOPC   O1317745   1.518   4.201  17.604  0.2721 -0.5721  0.5720
  149DOPC   O1417746   1.688   4.373  17.666  0.1542 -0.4734  0.4570
  149DOPC   O1217747   1.459   4.404  17.757 -0.0892  0.6979  0.9979
  149DOPC   O1117748   1.500   4.439  17.515 -0.0120  0.3174 -0.1471
  149DOPC    C117749   1.422   4.408  17.401 -0.1174  0.3253  0.7252
  149DOPC    HA17750   1.355   4.495  17.385  0.8908  0.9140 -0.5460
  149DOPC    HB17751   1.364   4.316  17.420  0.6593  0.0267  1.7534
  149DOPC    C217752   1.519   4.378  17.278  0.4713 -0.9683  0.2096
  149DOPC    HS17753   1.593   4.300  17.308  0.3629 -0.6713  1.2765
  149DOPC   O2117754   1.585   4.503  17.255 -0.3813 -0.3438  0.1008
  149DOPC   C2117755   1.714   4.496  17.193 -0.3055  0.3387 -0.2030
  149DOPC   O2217756   1.769   4.391  17.171 -0.5891 -0.2050 -0.2114
  149DOPC   C2217757   1.753   4.641  17.157 -0.0218  0.4391  0.1771
  149DOPC   H2R17758   1.766   4.692  17.255  0.5659 -0.6813  0.7048
  149DOPC   H2S17759   1.666   4.675  17.098 -0.8246 -1.8009 -0.0376
  149DOPC    C317760   1.447   4.331  17.151 -0.3135 -0.4586  0.8493
  149DOPC    HX17761   1.397   4.239  17.189 -2.0615 -0.0424 -0.3386
  149DOPC    HY17762   1.510   4.302  17.064 -0.9809  0.4312  0.0526
  149DOPC   O3117763   1.351   4.423  17.111  0.0449  0.2902 -0.8773
  149DOPC   C3117764   1.391   4.515  17.026 -0.2734  0.1337 -0.4277
  149DOPC   O3217765   1.499   4.516  16.967 -0.1912  0.1495 -0.1269
  149DOPC   C3217766   1.281   4.617  17.005 -0.3611  0.1288 -0.0368
  149DOPC   H2X17767   1.194   4.555  16.976 -0.0641 -0.2033 -0.2251
  149DOPC   H2Y17768   1.254   4.668  17.100 -1.4217 -0.3086 -0.0939
  149DOPC   C2317769   1.891   4.664  17.087  0.6849  0.8561  0.0343
  149DOPC   H3R17770   1.963   4.617  17.157 -1.4705  1.6184  2.9351
  149DOPC   H3S17771   1.898   4.775  17.086  1.9046  0.8049  0.7985
  149DOPC   C2417772   1.901   4.602  16.944  0.1561  0.8511 -0.3743
  149DOPC   H4R17773   1.809   4.621  16.886 -0.0279  0.3896 -0.2413
  149DOPC   H4S17774   1.895   4.494  16.968  0.2085  0.8649 -0.3003
  149DOPC   C2517775   2.031   4.624  16.874 -0.2398  0.0497 -0.1070
  149DOPC   H5R17776   2.116   4.571  16.922  0.2245 -2.0928 -3.0787
  149DOPC   H5S17777   2.054   4.732  16.882  0.3853 -0.0171 -0.9255
  149DOPC   C2617778   2.028   4.585  16.730  0.6703  0.0847 -0.5339
  149DOPC   H6R17779   1.960   4.662  16.689 -0.5988 -1.3465 -1.2144
  149DOPC   H6S17780   1.983   4.487  16.706 -0.4518  1.0777 -2.7515
  149DOPC   C2717781   2.152   4.606  16.650  0.1294  0.2294 -0.6933
  149DOPC   H7R17782   2.215   4.682  16.701  0.9161 -0.7679 -0.1421
  149DOPC   H7S17783   2.124   4.644  16.550  0.2146  3.2813  0.3375
  149DOPC   C2817784   2.226   4.466  16.627 -0.5952 -0.0434  0.1567
  149DOPC   H8R17785   2.159   4.409  16.560 -0.5478 -0.4578  0.4537
  149DOPC   H8S17786   2.247   4.409  16.721  1.0610  1.5966  0.8495
  149DOPC   C2917787   2.357   4.502  16.558  0.2635 -0.1946  0.8131
  149DOPC   H9R17788   2.445   4.523  16.622  0.8226  0.6115 -0.1816
  149DOPC  C21017789   2.369   4.529  16.426 -0.4863 -0.2763 -0.9256
  149DOPC  H10R17790   2.470   4.560  16.396  0.4678 -0.6126  1.6713
  149DOPC  C21117791   2.259   4.518  16.325  0.4379  0.0135  0.5672
  149DOPC  H11R17792   2.203   4.614  16.329  2.7888  1.6473 -2.0267
  149DOPC  H11S17793   2.190   4.435  16.348  0.2224 -0.8908 -2.7980
  149DOPC  C21217794   2.307   4.503  16.181 -0.3927  0.0328  0.0221
  149DOPC  H12R17795   2.356   4.403  16.180  0.3059  0.3686 -0.5947
  149DOPC  H12S17796   2.386   4.572  16.142 -0.6105 -0.5191 -1.4543
  149DOPC  C21317797   2.188   4.504  16.081 -0.2470  0.6036  0.2199
  149DOPC  H13R17798   2.137   4.602  16.077  0.0267  0.7460  0.2096
  149DOPC  H13S17799   2.112   4.428  16.111  3.3606 -2.5922  2.2455
  149DOPC  C21417800   2.217   4.461  15.938  0.2254 -0.0676  0.5875
  149DOPC  H14R17801   2.215   4.350  15.929 -0.5399  0.0162 -0.4562
  149DOPC  H14S17802   2.312   4.502  15.897 -0.2387 -1.2315 -1.8388
  149DOPC  C21517803   2.090   4.505  15.852 -0.3931 -0.4740 -0.6082
  149DOPC  H15R17804   2.102   4.614  15.836  0.3286 -0.6562 -1.4511
  149DOPC  H15S17805   2.000   4.492  15.915 -1.5957  0.1170 -2.1215
  149DOPC  C21617806   2.082   4.423  15.717 -0.1733  0.3896 -0.9928
  149DOPC  H16R17807   2.068   4.314  15.733 -0.5163  0.7383  1.5559
  149DOPC  H16S17808   2.183   4.439  15.674 -0.1944 -0.5247 -1.4041
  149DOPC  C21717809   1.978   4.474  15.619 -0.5120 -0.3659  0.4006
  149DOPC  H17R17810   2.005   4.577  15.588  0.1446 -0.6421  0.0274
  149DOPC  H17S17811   1.877   4.499  15.659 -0.8312  0.3733 -0.8110
  149DOPC  C21817812   1.955   4.385  15.497 -0.0611  0.3438  0.3827
  149DOPC  H18R17813   2.040   4.372  15.427  0.2852 -1.0761  1.0363
  149DOPC  H18S17814   1.865   4.407  15.434  0.5183  0.2590 -0.4868
  149DOPC  H18T17815   1.933   4.288  15.546  0.0978  0.1326  0.0340
  149DOPC   C3317816   1.299   4.718  16.883  0.3831  0.0233  0.3672
  149DOPC   H3X17817   1.402   4.755  16.864 -0.1653  1.5491  0.2629
  149DOPC   H3Y17818   1.230   4.801  16.907 -0.7551 -0.6065 -0.6291
  149DOPC   C3417819   1.243   4.644  16.756  0.0934 -0.3048 -0.2490
  149DOPC   H4X17820   1.132   4.647  16.755  0.0762 -0.0546  0.8876
  149DOPC   H4Y17821   1.276   4.538  16.754 -1.3696 -0.8497  1.3615
  149DOPC   C3517822   1.293   4.725  16.633  0.9681 -0.6045  0.1700
  149DOPC   H5X17823   1.404   4.734  16.637  1.1089  0.1329 -2.9453
  149DOPC   H5Y17824   1.259   4.830  16.642 -0.9621 -1.1722 -0.0944
  149DOPC   C3617825   1.261   4.663  16.494 -0.6756  0.0392 -0.0281
  149DOPC   H6X17826   1.298   4.559  16.488  0.1540  0.3430 -0.2957
  149DOPC   H6Y17827   1.150   4.659  16.497 -0.7182  1.2063  0.6145
  149DOPC   C3717828   1.319   4.757  16.388  0.7289  0.6987 -0.8035
  149DOPC   H7X17829   1.261   4.852  16.389 -0.6452 -0.1054  0.7268
  149DOPC   H7Y17830   1.415   4.792  16.430  0.4910 -0.4626  0.8102
  149DOPC   C3817831   1.293   4.704  16.244  0.3051 -0.0554 -0.6505
  149DOPC   H8X17832   1.328   4.791  16.185  1.9324  0.6990  1.3218
  149DOPC   H8Y17833   1.185   4.707  16.219 -0.0034 -1.8465  0.2548
  149DOPC   C3917834   1.353   4.570  16.207  0.1876 -0.1726 -0.1700
  149DOPC   H9X17835   1.395   4.518  16.295 -0.2073 -0.1139  0.0608
  149DOPC  C31017836   1.347   4.521  16.086 -0.3826 -0.2227 -0.2061
  149DOPC  H10X17837   1.405   4.431  16.063  1.1659  0.3156  1.3412
  149DOPC  C31117838   1.296   4.602  15.963 -0.3712 -0.1701  0.1604
  149DOPC  H11X17839   1.329   4.708  15.961  0.1540 -0.2968  1.2300
  149DOPC  H11Y17840   1.185   4.595  15.956 -0.4662  0.7636  0.5234
  149DOPC  C31217841   1.356   4.545  15.830 -0.0089  0.1773  0.2068
  149DOPC  H12X17842   1.327   4.440  15.810 -3.2862  0.7267  1.5429
  149DOPC  H12Y17843   1.466   4.554  15.846  0.1120  2.0567 -1.2098
  149DOPC  C31317844   1.324   4.621  15.701  0.7207  0.3089  0.1162
  149DOPC  H13X17845   1.222   4.594  15.667  0.1014  1.0390  1.3153
  149DOPC  H13Y17846   1.325   4.731  15.715  0.5901  0.5160 -1.3453
  149DOPC  C31417847   1.423   4.574  15.598  0.2735  0.4813 -0.2446
  149DOPC  H14X17848   1.524   4.599  15.638  0.3142 -0.1326  0.0530
  149DOPC  H14Y17849   1.414   4.465  15.578  0.1608  0.2664  0.8950
  149DOPC  C31517850   1.405   4.654  15.473  0.0281 -0.1800 -1.0721
  149DOPC  H15X17851   1.447   4.756  15.485  0.7707 -0.5084 -0.8169
  149DOPC  H15Y17852   1.299   4.675  15.448 -0.7332 -2.5417 -0.0608
  149DOPC  C31617853   1.470   4.591  15.349 -0.0728 -0.0656 -0.3096
  149DOPC  H16X17854   1.408   4.500  15.332 -0.0377 -0.0523 -0.5131
  149DOPC  H16Y17855   1.459   4.660  15.263  1.3600  2.5983  1.5020
  149DOPC  C31717856   1.616   4.542  15.352  0.4066 -0.1937  0.3494
  149DOPC  H17X17857   1.679   4.633  15.353  0.4811 -0.2460  0.3510
  149DOPC  H17Y17858   1.628   4.473  15.438 -2.6389 -1.9772 -0.4939
  149DOPC  C31817859   1.654   4.453  15.225 -0.1591 -0.4290  0.0804
  149DOPC  H18X17860   1.642   4.503  15.126 -1.0505 -0.2765  0.2536
  149DOPC  H18Y17861   1.758   4.418  15.240 -0.3886 -0.5567  1.5240
  149DOPC  H18Z17862   1.596   4.359  15.217  0.2249 -0.6172 -0.5975
  150DOPC     N17863   4.053   5.206  17.340 -0.2413  0.1539  0.3399
  150DOPC   C1217864   4.019   5.335  17.273 -0.6731 -0.5685 -0.1423
  150DOPC  H12A17865   4.103   5.403  17.285 -1.8028  1.0109 -0.9049
  150DOPC  H12B17866   3.933   5.380  17.319 -0.2583 -1.3405  1.4620
  150DOPC   C1317867   4.053   5.225  17.490  0.0833 -0.1624  0.3888
  150DOPC  H13A17868   4.067   5.137  17.551 -2.9039  1.7915  4.3587
  150DOPC  H13B17869   4.132   5.292  17.521 -0.2133  0.0225  0.7585
  150DOPC  H13C17870   3.955   5.261  17.517  0.1279  1.3370 -1.3136
  150DOPC   C1417871   4.188   5.157  17.300 -0.1449  0.0129 -0.5203
  150DOPC  H14A17872   4.263   5.215  17.351 -1.9037 -0.4235  2.8465
  150DOPC  H14B17873   4.213   5.058  17.335 -0.2728  0.2095  0.1356
  150DOPC  H14C17874   4.200   5.143  17.194 -0.0787 -0.6778 -0.4279
  150DOPC   C1517875   3.946   5.103  17.313  1.1126 -0.8032  0.4549
  150DOPC  H15A17876   3.849   5.130  17.354 -0.7713 -4.1245 -1.4257
  150DOPC  H15B17877   3.964   5.005  17.353 -1.2359 -1.1092  0.8988
  150DOPC  H15C17878   3.928   5.089  17.208 -2.7728  0.7337  0.7260
  150DOPC   C1117879   3.993   5.340  17.117  0.1668 -0.1234  0.5402
  150DOPC  H11A17880   3.920   5.258  17.103 -0.4109  0.5909 -0.7087
  150DOPC  H11B17881   3.940   5.433  17.088  0.3143 -0.0942  0.3615
  150DOPC     P17882   4.213   5.418  17.017  0.4824  0.3365  0.1228
  150DOPC   O1317883   4.332   5.346  16.971 -0.4169 -0.0549 -0.1887
  150DOPC   O1417884   4.219   5.518  17.130 -0.1772  0.0067  0.3709
  150DOPC   O1217885   4.101   5.314  17.038 -0.5146  0.4634  0.0133
  150DOPC   O1117886   4.138   5.483  16.894 -0.2892 -0.3301  0.1269
  150DOPC    C117887   4.095   5.409  16.786 -0.2116  0.4536 -0.4335
  150DOPC    HA17888   4.028   5.469  16.721 -1.7697 -0.9449 -0.1949
  150DOPC    HB17889   4.038   5.315  16.808 -0.0120  0.4818  0.2187
  150DOPC    C217890   4.204   5.354  16.692 -0.4934  1.3305 -0.2377
  150DOPC    HS17891   4.280   5.311  16.760 -1.1804 -0.7009 -0.6750
  150DOPC   O2117892   4.250   5.463  16.619  0.0827  0.0928 -0.2016
  150DOPC   C2117893   4.379   5.472  16.599  0.1605 -0.2245 -0.5303
  150DOPC   O2217894   4.464   5.402  16.649  0.1896  0.7006  0.2098
  150DOPC   C2217895   4.406   5.597  16.507  0.3324  0.4630  0.0053
  150DOPC   H2R17896   4.515   5.607  16.492  0.4037  0.7122  0.6588
  150DOPC   H2S17897   4.374   5.682  16.571 -0.3589 -0.0518  0.3594
  150DOPC    C317898   4.154   5.258  16.585  0.3879  0.4025  0.1307
  150DOPC    HX17899   4.095   5.317  16.512  0.6867 -0.6759 -1.0016
  150DOPC    HY17900   4.071   5.195  16.624 -1.1955  1.5562 -1.1917
  150DOPC   O3117901   4.258   5.191  16.511  0.1358  0.3018 -0.0573
  150DOPC   C3117902   4.252   5.052  16.506 -0.3549 -0.4246 -0.6613
  150DOPC   O3217903   4.169   4.988  16.561 -0.4052  0.1914  0.5114
  150DOPC   C3217904   4.362   4.998  16.419 -0.3239 -0.4859  0.5489
  150DOPC   H2X17905   4.452   4.994  16.484  3.2954 -2.1459 -4.0202
  150DOPC   H2Y17906   4.348   4.894  16.384  2.0889 -1.1664  1.3636
  150DOPC   C2317907   4.330   5.592  16.373  0.1894  0.0185  0.4048
  150DOPC   H3R17908   4.351   5.686  16.318  0.8342  0.0223  0.6472
  150DOPC   H3S17909   4.219   5.589  16.381  0.2417 -1.1109  0.9925
  150DOPC   C2417910   4.362   5.467  16.284  0.0166  0.0083  0.4831
  150DOPC   H4R17911   4.296   5.471  16.195 -1.0379  2.6822  1.3055
  150DOPC   H4S17912   4.328   5.371  16.329  1.4994 -0.8538 -0.1508
  150DOPC   C2517913   4.512   5.462  16.230  1.5776  0.4299 -0.7911
  150DOPC   H5R17914   4.547   5.367  16.184 -0.2084 -0.4213 -0.4615
  150DOPC   H5S17915   4.559   5.464  16.331 -1.2259 -1.3576  0.6815
  150DOPC   C2617916   4.568   5.587  16.156  0.4059 -0.3527  0.2364
  150DOPC   H6R17917   4.679   5.578  16.163  0.1595 -2.4822  4.2529
  150DOPC   H6S17918   4.551   5.682  16.213  2.7178  3.4023 -4.6181
  150DOPC   C2717919   4.522   5.613  16.015  0.8863 -0.4989  0.1358
  150DOPC   H7R17920   4.484   5.523  15.962 -2.7801  1.2725 -0.5661
  150DOPC   H7S17921   4.603   5.654  15.951  0.5388  0.9956  0.5911
  150DOPC   C2817922   4.398   5.710  16.011  0.2418 -0.0134  0.2652
  150DOPC   H8R17923   4.390   5.770  16.104 -4.2343 -2.2514  1.6009
  150DOPC   H8S17924   4.310   5.652  16.046  1.1668 -0.8876  1.2217
  150DOPC   C2917925   4.386   5.784  15.875 -0.5598 -0.3207 -0.3164
  150DOPC   H9R17926   4.470   5.840  15.831 -1.2327 -1.0035 -2.6365
  150DOPC  C21017927   4.290   5.746  15.791  0.2960  0.3698  0.3503
  150DOPC  H10R17928   4.289   5.780  15.686  1.5018  3.2862  1.1833
  150DOPC  C21117929   4.186   5.641  15.834  0.0766  0.2436  0.3251
  150DOPC  H11R17930   4.124   5.693  15.909  1.1285  1.3055  0.4897
  150DOPC  H11S17931   4.223   5.548  15.882 -1.1435 -0.1261  0.5796
  150DOPC  C21217932   4.095   5.606  15.717 -0.1603 -0.1144  0.3697
  150DOPC  H12R17933   4.050   5.691  15.662 -0.4738 -0.0900  0.6650
  150DOPC  H12S17934   4.007   5.552  15.759 -2.0921  0.6468 -2.4243
  150DOPC  C21317935   4.167   5.523  15.613  0.4697 -0.4848 -0.4043
  150DOPC  H13R17936   4.211   5.432  15.660 -0.7847 -0.4756  0.8738
  150DOPC  H13S17937   4.251   5.589  15.585  0.0458 -0.4473 -1.6520
  150DOPC  C21417938   4.071   5.485  15.503  0.3592  0.2405  0.2998
  150DOPC  H14R17939   3.970   5.532  15.512  0.4228  0.7061 -1.1515
  150DOPC  H14S17940   4.064   5.375  15.492  1.9275  0.1276  0.1630
  150DOPC  C21517941   4.120   5.534  15.362  0.5098 -0.2249 -0.4109
  150DOPC  H15R17942   4.148   5.641  15.375  0.1334 -0.1046 -0.5787
  150DOPC  H15S17943   4.037   5.516  15.291  0.3509  0.2707 -0.3522
  150DOPC  C21617944   4.238   5.453  15.305 -0.7271 -0.0378  0.3705
  150DOPC  H16R17945   4.314   5.428  15.382 -3.3325  1.9382  3.8541
  150DOPC  H16S17946   4.284   5.511  15.222 -1.2145 -0.0368  0.0990
  150DOPC  C21717947   4.186   5.323  15.245  0.3556 -0.2205  0.0494
  150DOPC  H17R17948   4.103   5.355  15.178 -0.1601  0.5031  1.0148
  150DOPC  H17S17949   4.148   5.258  15.327 -1.4321  1.0966  0.3234
  150DOPC  C21817950   4.288   5.243  15.166 -0.2959 -0.7507 -0.0126
  150DOPC  H18R17951   4.242   5.155  15.116 -2.2367 -0.2576  0.7948
  150DOPC  H18S17952   4.361   5.199  15.237 -1.6072 -3.3704 -0.1920
  150DOPC  H18T17953   4.338   5.312  15.094  2.2862 -0.7335  1.6803
  150DOPC   C3317954   4.394   5.090  16.304 -0.2461 -0.6021  0.2728
  150DOPC   H3X17955   4.466   5.165  16.343 -1.8477  1.2004 -0.0692
  150DOPC   H3Y17956   4.304   5.148  16.274 -0.8890 -0.6217  2.0524
  150DOPC   C3417957   4.447   5.021  16.181  0.4802  0.2405  0.3524
  150DOPC   H4X17958   4.366   4.960  16.133  1.0042 -1.3954  1.4513
  150DOPC   H4Y17959   4.537   4.961  16.206 -0.2202 -2.2608 -2.4785
  150DOPC   C3517960   4.483   5.133  16.082 -0.2681  0.1714  0.2972
  150DOPC   H5X17961   4.584   5.178  16.099 -0.9064  2.5602 -1.6194
  150DOPC   H5Y17962   4.411   5.214  16.105 -0.9769 -0.7158  1.3304
  150DOPC   C3617963   4.468   5.089  15.936 -0.6659  0.4749  0.3007
  150DOPC   H6X17964   4.560   5.030  15.915 -2.2100 -1.9281 -0.1231
  150DOPC   H6Y17965   4.384   5.018  15.922 -1.9557  2.3445 -2.3444
  150DOPC   C3717966   4.433   5.212  15.846 -0.2300  0.0633  0.0141
  150DOPC   H7X17967   4.342   5.258  15.891 -0.5211 -0.1894 -0.3047
  150DOPC   H7Y17968   4.516   5.285  15.841 -1.2692  1.2485 -0.5423
  150DOPC   C3817969   4.402   5.169  15.700 -0.3502 -0.1998  0.2681
  150DOPC   H8X17970   4.367   5.260  15.646  1.3970  0.9225  0.9170
  150DOPC   H8Y17971   4.313   5.103  15.703 -1.9598  1.8734  1.0508
  150DOPC   C3917972   4.518   5.122  15.616 -0.1330 -0.5953 -0.2219
  150DOPC   H9X17973   4.586   5.199  15.577 -1.1348  1.4308  1.8090
  150DOPC  C31017974   4.539   4.991  15.578  0.1420 -0.0928  0.5272
  150DOPC  H10X17975   4.630   4.978  15.518  0.9857  2.3547  1.1644
  150DOPC  C31117976   4.467   4.871  15.631  0.5414  0.5499 -0.0163
  150DOPC  H11X17977   4.388   4.901  15.703  0.0090 -0.8746  0.0314
  150DOPC  H11Y17978   4.540   4.806  15.685  0.2930  2.3786  2.7447
  150DOPC  C31217979   4.400   4.794  15.514 -0.0450 -0.1068  0.1358
  150DOPC  H12X17980   4.471   4.787  15.428  2.3929 -0.8461  2.0933
  150DOPC  H12Y17981   4.308   4.851  15.488  0.7512  0.9699 -0.3943
  150DOPC  C31317982   4.369   4.652  15.553  0.4276  0.0149 -0.5958
  150DOPC  H13X17983   4.459   4.596  15.589  0.0823 -1.2868 -1.6735
  150DOPC  H13Y17984   4.297   4.643  15.636 -0.7195  0.5527 -1.5113
  150DOPC  C31417985   4.317   4.582  15.430  0.4232  0.5693  0.0716
  150DOPC  H14X17986   4.224   4.625  15.387  0.1942  1.0013  0.9800
  150DOPC  H14Y17987   4.397   4.581  15.353 -0.5911 -0.5311 -1.0163
  150DOPC  C31517988   4.272   4.438  15.459  0.0530 -0.5503  0.4112
  150DOPC  H15X17989   4.180   4.428  15.521 -0.5326 -0.8768 -0.4950
  150DOPC  H15Y17990   4.359   4.394  15.513  1.5061 -0.4410 -1.7469
  150DOPC  C31617991   4.271   4.355  15.340  0.3934 -0.1888  0.6955
  150DOPC  H16X17992   4.367   4.388  15.294 -1.1654  2.5758 -0.8654
  150DOPC  H16Y17993   4.272   4.247  15.364  0.2645 -0.4121 -0.2546
  150DOPC  C31717994   4.167   4.390  15.229  0.2414 -0.3385 -0.4992
  150DOPC  H17X17995   4.062   4.384  15.264  0.1323  1.2343 -0.4879
  150DOPC  H17Y17996   4.196   4.492  15.194  1.9863 -1.4085 -2.4872
  150DOPC  C31817997   4.172   4.311  15.099 -0.1907  1.2495 -0.7049
  150DOPC  H18X17998   4.097   4.339  15.022 -0.1343  1.2121 -0.7739
  150DOPC  H18Y17999   4.272   4.314  15.050 -0.1324 -2.6367 -1.1422
  150DOPC  H18Z18000   4.157   4.203  15.122 -1.1341  1.4224 -0.4824
  151DOPC     N18001   2.205   5.412  17.652  0.0536  0.2108 -0.3857
  151DOPC   C1218002   2.233   5.342  17.519 -0.7944  0.8439  0.2346
  151DOPC  H12A18003   2.167   5.376  17.440 -0.5565  0.9359  0.0759
  151DOPC  H12B18004   2.218   5.237  17.542 -0.1125  0.6734 -0.0811
  151DOPC   C1318005   2.213   5.559  17.631  0.0311 -0.1404 -0.1664
  151DOPC  H13A18006   2.191   5.621  17.716 -0.6628 -0.3494 -0.1843
  151DOPC  H13B18007   2.315   5.587  17.614  0.1928 -0.8665 -0.4330
  151DOPC  H13C18008   2.153   5.606  17.554 -2.0336 -1.5507  0.4886
  151DOPC   C1418009   2.299   5.378  17.763  0.9157  0.2554  0.1663
  151DOPC  H14A18010   2.268   5.413  17.860  1.5716  0.9801  0.1304
  151DOPC  H14B18011   2.308   5.271  17.763 -2.8635 -0.1885  0.6746
  151DOPC  H14C18012   2.392   5.432  17.754 -0.3188  2.9943  2.2118
  151DOPC   C1518013   2.065   5.381  17.691 -0.4581 -0.4257  0.2162
  151DOPC  H15A18014   2.042   5.276  17.690 -0.6884 -0.3756 -0.3216
  151DOPC  H15B18015   1.999   5.427  17.618  0.6364  2.9665  1.1501
  151DOPC  H15C18016   2.041   5.424  17.787 -0.1456  0.0958  0.0689
  151DOPC   C1118017   2.374   5.352  17.466 -0.2905  0.2922 -0.0661
  151DOPC  H11A18018   2.396   5.458  17.442  1.4637  0.1330  0.6228
  151DOPC  H11B18019   2.450   5.321  17.542 -1.6386 -2.0044  0.4710
  151DOPC     P18020   2.480   5.132  17.347 -0.0597 -0.1863 -0.1220
  151DOPC   O1318021   2.470   5.057  17.471  0.7485 -0.2622  0.3523
  151DOPC   O1418022   2.613   5.203  17.319 -0.8918  0.3625 -0.2253
  151DOPC   O1218023   2.382   5.252  17.360  0.3890 -0.1989  0.2886
  151DOPC   O1118024   2.440   5.049  17.221  0.3837 -0.1049 -0.6774
  151DOPC    C118025   2.323   5.059  17.145 -0.1420 -0.0379 -0.2052
  151DOPC    HA18026   2.264   5.146  17.181  0.5235  0.7351 -0.9357
  151DOPC    HB18027   2.257   4.969  17.144  1.3366 -1.1535 -0.4279
  151DOPC    C218028   2.348   5.088  16.999  0.0583  0.3660 -0.5218
  151DOPC    HS18029   2.401   4.999  16.959  1.6737  1.1941 -0.3082
  151DOPC   O2118030   2.433   5.198  16.983 -0.0098 -0.4477  0.0841
  151DOPC   C2118031   2.528   5.187  16.889  0.4059 -0.4103  0.2485
  151DOPC   O2218032   2.548   5.086  16.823  0.2380 -0.0917 -0.3286
  151DOPC   C2218033   2.601   5.319  16.867 -0.7320 -0.1575  0.4574
  151DOPC   H2R18034   2.671   5.292  16.785 -2.9583  0.0802 -1.6277
  151DOPC   H2S18035   2.655   5.327  16.964 -0.0526  0.6482  0.0268
  151DOPC    C318036   2.211   5.109  16.929 -0.4293 -0.0769 -0.0247
  151DOPC    HX18037   2.147   5.180  16.984  0.6254 -2.3473  4.6028
  151DOPC    HY18038   2.149   5.021  16.956 -1.0116  0.1928 -0.4567
  151DOPC   O3118039   2.220   5.125  16.787  0.5745  0.3020  0.2493
  151DOPC   C3118040   2.144   5.048  16.703  0.0623  0.2775 -0.2265
  151DOPC   O3218041   2.066   4.963  16.732 -0.1883  0.2498 -0.0309
  151DOPC   C3218042   2.178   5.090  16.558  0.1048  0.2796 -0.8257
  151DOPC   H2X18043   2.119   5.182  16.540 -0.9373 -0.2772 -0.3225
  151DOPC   H2Y18044   2.288   5.106  16.559  0.4546 -1.4316  2.4696
  151DOPC   C2318045   2.509   5.437  16.832  0.3718  0.0955  0.2627
  151DOPC   H3R18046   2.548   5.537  16.859 -1.1316  1.4886 -2.4066
  151DOPC   H3S18047   2.409   5.438  16.881  0.4813  2.4821  0.5485
  151DOPC   C2418048   2.473   5.437  16.682 -0.5919  0.6486 -0.2720
  151DOPC   H4R18049   2.451   5.332  16.654 -1.1914  0.4458  0.8923
  151DOPC   H4S18050   2.565   5.465  16.627  0.3728 -1.4116  0.2159
  151DOPC   C2518051   2.351   5.520  16.643  0.3511 -0.0110  0.1196
  151DOPC   H5R18052   2.353   5.624  16.681 -0.9882  1.1757 -2.7600
  151DOPC   H5S18053   2.265   5.468  16.689  0.8631 -0.3662  0.6908
  151DOPC   C2618054   2.327   5.527  16.487 -0.1464  0.2881 -0.0163
  151DOPC   H6R18055   2.379   5.617  16.447  1.4425 -1.0953 -1.2308
  151DOPC   H6S18056   2.217   5.541  16.483 -0.1881  0.0614  0.3406
  151DOPC   C2718057   2.365   5.401  16.414  0.8480  0.2720  0.1889
  151DOPC   H7R18058   2.325   5.308  16.460  0.7191  1.0614  1.7449
  151DOPC   H7S18059   2.474   5.388  16.395  0.8856  0.5253  0.2299
  151DOPC   C2818060   2.297   5.397  16.280  0.6436  0.0501  0.3439
  151DOPC   H8R18061   2.189   5.422  16.288  0.4054 -0.2039 -1.6376
  151DOPC   H8S18062   2.305   5.294  16.238  1.5087  0.0253  0.5528
  151DOPC   C2918063   2.368   5.485  16.177  0.3292  0.1123 -0.1716
  151DOPC   H9R18064   2.461   5.537  16.204  0.1375 -0.3194  1.4114
  151DOPC  C21018065   2.297   5.521  16.067  0.0613 -0.4101  0.9139
  151DOPC  H10R18066   2.350   5.574  15.987  0.0343 -0.9168  0.5495
  151DOPC  C21118067   2.170   5.463  16.018 -0.6068 -0.2199  0.5295
  151DOPC  H11R18068   2.091   5.525  16.066 -0.6152  0.8145 -0.7433
  151DOPC  H11S18069   2.152   5.359  16.052  2.9871 -1.3190 -0.5074
  151DOPC  C21218070   2.137   5.471  15.866 -0.0016 -0.6188 -0.0437
  151DOPC  H12R18071   2.129   5.581  15.853  0.5855 -0.0490  3.3706
  151DOPC  H12S18072   2.034   5.431  15.855 -0.6905  0.7354  1.2070
  151DOPC  C21318073   2.240   5.405  15.777  0.2890 -0.1904  0.0270
  151DOPC  H13R18074   2.261   5.307  15.825 -0.5755 -0.2656  0.2670
  151DOPC  H13S18075   2.337   5.459  15.774  0.5504 -0.6483  0.0989
  151DOPC  C21418076   2.185   5.384  15.637 -0.0072  0.0082 -0.8862
  151DOPC  H14R18077   2.175   5.485  15.592 -0.2152  0.0535 -0.7387
  151DOPC  H14S18078   2.087   5.338  15.663 -1.2806  3.2157  0.5929
  151DOPC  C21518079   2.258   5.276  15.552 -0.9218  0.7815  0.5653
  151DOPC  H15R18080   2.288   5.194  15.621  3.4225  0.7859 -1.0088
  151DOPC  H15S18081   2.359   5.306  15.518 -0.9988 -2.6018 -3.4603
  151DOPC  C21618082   2.181   5.214  15.437  0.5454 -1.2994  1.5865
  151DOPC  H16R18083   2.071   5.203  15.454  0.5157 -3.0771  0.5098
  151DOPC  H16S18084   2.228   5.114  15.425  2.9267 -0.0649 -0.2263
  151DOPC  C21718085   2.197   5.292  15.303  0.3129 -0.3860 -0.5173
  151DOPC  H17R18086   2.305   5.300  15.276  0.5123 -0.9979  0.0641
  151DOPC  H17S18087   2.152   5.392  15.321 -0.7477 -0.4818 -2.3636
  151DOPC  C21818088   2.121   5.217  15.193  0.2909 -0.1184  0.1662
  151DOPC  H18R18089   2.103   5.276  15.100  2.2550 -3.3217 -2.4543
  151DOPC  H18S18090   2.019   5.190  15.228  0.1001  2.0915  1.5014
  151DOPC  H18T18091   2.169   5.126  15.151 -1.9098 -1.6663  0.8248
  151DOPC   C3318092   2.140   4.980  16.456  0.2801 -0.3146  0.2483
  151DOPC   H3X18093   2.031   4.970  16.440  0.0554  2.4208 -0.2816
  151DOPC   H3Y18094   2.180   4.883  16.493  0.5475 -0.2162  0.2246
  151DOPC   C3418095   2.202   5.029  16.325 -0.4537  0.4356 -0.0317
  151DOPC   H4X18096   2.311   5.052  16.335 -0.0231  2.0910 -5.3409
  151DOPC   H4Y18097   2.146   5.111  16.276 -0.2099 -0.1050 -1.2636
  151DOPC   C3518098   2.211   4.919  16.216 -0.5163 -0.0861 -0.0282
  151DOPC   H5X18099   2.104   4.887  16.211 -0.3795 -0.4673 -0.5631
  151DOPC   H5Y18100   2.263   4.828  16.254 -0.2269  0.5200  1.0752
  151DOPC   C3618101   2.266   4.965  16.074 -0.1919 -0.4004 -0.0963
  151DOPC   H6X18102   2.229   5.063  16.037 -0.8151 -1.3987 -2.2808
  151DOPC   H6Y18103   2.376   4.973  16.088 -0.2124  2.4785 -0.9835
  151DOPC   C3718104   2.241   4.862  15.966  0.1360 -0.1883 -0.2236
  151DOPC   H7X18105   2.283   4.767  16.005  2.0637  0.3468 -0.8832
  151DOPC   H7Y18106   2.133   4.853  15.941  0.5175  1.5984 -3.0558
  151DOPC   C3818107   2.310   4.888  15.832  0.2935 -0.1066  0.0867
  151DOPC   H8X18108   2.413   4.926  15.850  0.0165  0.6915  0.0303
  151DOPC   H8Y18109   2.261   4.965  15.769  1.3059 -1.0750 -2.0144
  151DOPC   C3918110   2.325   4.764  15.746 -0.3363 -0.1948  0.3565
  151DOPC   H9X18111   2.325   4.665  15.794  2.5216 -0.0982  0.6852
  151DOPC  C31018112   2.321   4.755  15.614 -0.8517 -0.9890  0.2799
  151DOPC  H10X18113   2.320   4.655  15.568 -1.4617 -1.8946  2.1366
  151DOPC  C31118114   2.307   4.862  15.513 -0.1504 -0.0810 -0.0715
  151DOPC  H11X18115   2.339   4.963  15.548 -1.3016 -0.4497  2.2515
  151DOPC  H11Y18116   2.201   4.857  15.479 -0.1488  0.6939 -0.2135
  151DOPC  C31218117   2.402   4.825  15.408  0.3373 -0.2630  0.2868
  151DOPC  H12X18118   2.367   4.736  15.352 -1.3653  1.5097 -1.6450
  151DOPC  H12Y18119   2.502   4.814  15.455  0.4053 -0.0644  0.1905
  151DOPC  C31318120   2.398   4.928  15.292 -0.0187  0.4570  0.4241
  151DOPC  H13X18121   2.293   4.922  15.257  0.4197 -0.5962 -0.7600
  151DOPC  H13Y18122   2.401   5.031  15.333 -0.8909  0.5766  0.1937
  151DOPC  C31418123   2.498   4.916  15.182  0.7640  0.0742 -0.2757
  151DOPC  H14X18124   2.601   4.925  15.223 -0.3318  1.8071  2.3957
  151DOPC  H14Y18125   2.495   4.819  15.128  2.7446 -0.0536 -0.2341
  151DOPC  C31518126   2.473   5.031  15.081 -0.2569 -1.0173  0.3653
  151DOPC  H15X18127   2.485   5.126  15.137  1.9318 -1.9455  1.6024
  151DOPC  H15Y18128   2.368   5.022  15.048 -0.5354  1.1438  0.5168
  151DOPC  C31618129   2.576   5.029  14.965 -0.2357 -0.5262  0.1805
  151DOPC  H16X18130   2.673   5.021  15.018 -1.5920 -1.0780  2.7178
  151DOPC  H16Y18131   2.577   4.935  14.905  1.3159  0.3803 -1.3138
  151DOPC  C31718132   2.558   5.142  14.865  0.2663  0.0107  0.5681
  151DOPC  H17X18133   2.452   5.139  14.833  0.2540  2.5095  0.1653
  151DOPC  H17Y18134   2.567   5.233  14.929  3.5497  0.0670  0.1874
  151DOPC  C31818135   2.652   5.136  14.747  0.0945  0.0764 -0.7045
  151DOPC  H18X18136   2.665   5.230  14.688  1.8264 -0.2525 -0.9010
  151DOPC  H18Y18137   2.753   5.117  14.790 -0.3891  0.2759  0.5576
  151DOPC  H18Z18138   2.626   5.064  14.667  1.6372  0.0809 -1.2329
  152DOPC     N18139   2.518   3.098  17.948 -0.1627 -0.1071 -1.0801
  152DOPC   C1218140   2.654   3.074  17.881 -0.4287 -0.1042  0.7787
  152DOPC  H12A18141   2.658   2.973  17.843  2.4919  0.6077 -1.1054
  152DOPC  H12B18142   2.735   3.093  17.949 -1.0627  1.3898  1.1472
  152DOPC   C1318143   2.499   3.001  18.058  0.3225  1.2512 -0.2155
  152DOPC  H13A18144   2.569   3.000  18.140 -1.3733  2.9360  1.3607
  152DOPC  H13B18145   2.403   3.000  18.108  0.9234 -0.9328  1.0322
  152DOPC  H13C18146   2.511   2.901  18.019  0.6831  0.5448  1.5948
  152DOPC   C1418147   2.409   3.093  17.855 -0.2504  0.1220  0.1752
  152DOPC  H14A18148   2.426   3.159  17.771 -0.0300  1.2219  1.0613
  152DOPC  H14B18149   2.388   2.993  17.821 -0.1110  0.3453 -0.5811
  152DOPC  H14C18150   2.312   3.126  17.890  0.1575  0.5010  0.9639
  152DOPC   C1518151   2.518   3.237  18.010 -0.2768 -0.8730 -0.3609
  152DOPC  H15A18152   2.595   3.236  18.086  0.0306  0.5868 -0.6238
  152DOPC  H15B18153   2.423   3.273  18.046 -0.0830  0.1893 -0.8879
  152DOPC  H15C18154   2.552   3.309  17.938  0.0053 -0.3309  0.2982
  152DOPC   C1118155   2.694   3.168  17.771 -0.2766 -0.1212 -1.0254
  152DOPC  H11A18156   2.785   3.125  17.724  0.5839 -0.5420  0.9492
  152DOPC  H11B18157   2.612   3.167  17.696 -2.1270  0.1847  0.8963
  152DOPC     P18158   2.877   3.341  17.846 -0.2634  0.1280  0.2199
  152DOPC   O1318159   2.939   3.220  17.903 -0.1572  0.2573  0.1319
  152DOPC   O1418160   2.888   3.462  17.936 -0.1168  0.0840  0.0722
  152DOPC   O1218161   2.724   3.305  17.809 -0.3465 -0.3733  0.0162
  152DOPC   O1118162   2.958   3.367  17.711  0.4797 -0.4445  0.4834
  152DOPC    C118163   2.908   3.456  17.612 -0.3979  0.0481  0.3856
  152DOPC    HA18164   2.976   3.542  17.593  1.5836 -1.8226 -1.5641
  152DOPC    HB18165   2.810   3.503  17.637 -0.4169 -0.1164  0.6323
  152DOPC    C218166   2.871   3.394  17.477 -0.4668 -0.5444 -0.0928
  152DOPC    HS18167   2.795   3.315  17.495  0.0677 -1.4367 -1.5834
  152DOPC   O2118168   2.991   3.353  17.411 -0.0211  0.4151 -0.0718
  152DOPC   C2118169   3.002   3.231  17.385  0.3324 -0.1935 -0.0370
  152DOPC   O2218170   2.922   3.139  17.407  0.3579 -0.1879 -0.0047
  152DOPC   C2218171   3.140   3.203  17.310 -0.6278  0.1341  0.2040
  152DOPC   H2R18172   3.222   3.237  17.377  0.0503  1.2220 -1.1081
  152DOPC   H2S18173   3.142   3.281  17.230 -2.1657  0.0853  0.0887
  152DOPC    C318174   2.802   3.502  17.389  0.2230 -0.6217 -0.2854
  152DOPC    HX18175   2.872   3.587  17.404  0.0471 -0.3399 -1.0350
  152DOPC    HY18176   2.703   3.528  17.433 -0.0572 -2.0329 -0.0315
  152DOPC   O3118177   2.775   3.461  17.246  0.2287  0.0744 -0.4962
  152DOPC   C3118178   2.873   3.501  17.163 -0.5268  0.4127 -0.5962
  152DOPC   O3218179   2.972   3.565  17.194 -0.2731  0.2329  1.4778
  152DOPC   C3218180   2.827   3.466  17.023  0.3902 -0.7889  0.1580
  152DOPC   H2X18181   2.769   3.373  17.043  1.2189 -0.9917  1.8181
  152DOPC   H2Y18182   2.751   3.542  16.994 -1.3064 -2.2591  0.5561
  152DOPC   C2318183   3.169   3.058  17.271 -0.4428  0.7377 -0.0467
  152DOPC   H3R18184   3.147   3.002  17.364  1.2230 -0.8852 -0.5831
  152DOPC   H3S18185   3.277   3.057  17.245 -0.4992  1.3822 -0.3174
  152DOPC   C2418186   3.075   3.012  17.156  0.6065 -0.6435  0.7223
  152DOPC   H4R18187   2.967   3.028  17.176  0.0065  2.2646 -3.4134
  152DOPC   H4S18188   3.096   2.903  17.144 -1.7235 -0.8926 -2.1844
  152DOPC   C2518189   3.121   3.076  17.022 -0.1541  0.2466  0.4487
  152DOPC   H5R18190   3.228   3.058  16.997 -0.3128  0.6652 -0.5608
  152DOPC   H5S18191   3.119   3.187  17.035  1.4939  0.3458  0.1244
  152DOPC   C2618192   3.023   3.041  16.907  0.1269  0.1614  0.4638
  152DOPC   H6R18193   2.919   3.079  16.920 -0.1931 -0.5890  0.1593
  152DOPC   H6S18194   3.018   2.930  16.915  3.6700  0.0094  2.5198
  152DOPC   C2718195   3.064   3.087  16.767  0.5013  0.5681  1.0922
  152DOPC   H7R18196   3.163   3.043  16.739 -0.0626  0.6659 -1.3398
  152DOPC   H7S18197   3.084   3.195  16.784  2.2302  0.0748  2.5025
  152DOPC   C2818198   2.966   3.071  16.645  0.7577 -0.1054  0.1435
  152DOPC   H8R18199   3.017   3.122  16.560  2.3452 -0.7097  0.7012
  152DOPC   H8S18200   2.870   3.126  16.657  0.5584 -0.6441  1.1522
  152DOPC   C2918201   2.926   2.929  16.624 -0.4125  0.3939  0.1941
  152DOPC   H9R18202   2.934   2.865  16.713  0.4078  1.2441  0.7422
  152DOPC  C21018203   2.888   2.876  16.506  0.2209 -0.6242 -0.5605
  152DOPC  H10R18204   2.862   2.769  16.512 -0.8023 -0.3019  1.1850
  152DOPC  C21118205   2.859   2.949  16.372 -0.0622  0.2009 -0.2587
  152DOPC  H11R18206   2.890   3.055  16.375  2.2291 -0.4352  0.8617
  152DOPC  H11S18207   2.752   2.941  16.345 -0.7398 -3.1457  2.5603
  152DOPC  C21218208   2.942   2.870  16.268  0.4812 -0.2331 -0.4961
  152DOPC  H12R18209   2.941   2.760  16.285 -1.8527  0.0397  1.6127
  152DOPC  H12S18210   3.049   2.900  16.277  0.5232 -0.7077  0.7951
  152DOPC  C21318211   2.892   2.907  16.124  0.1085  0.2466 -0.5682
  152DOPC  H13R18212   2.887   3.018  16.129  2.4436  0.3593  2.7730
  152DOPC  H13S18213   2.789   2.875  16.100  0.4843 -0.4916 -1.2633
  152DOPC  C21418214   2.984   2.857  16.010 -0.5767 -0.1070  0.3394
  152DOPC  H14R18215   2.972   2.746  16.002 -1.1374 -0.0817  0.7779
  152DOPC  H14S18216   3.088   2.881  16.040 -1.1471  0.1753  2.1884
  152DOPC  C21518217   2.953   2.920  15.877 -0.3921  0.0169  0.8683
  152DOPC  H15R18218   2.947   3.031  15.874 -0.4366 -0.0073 -1.9815
  152DOPC  H15S18219   2.854   2.879  15.845 -1.4296 -0.6677  4.4503
  152DOPC  C21618220   3.067   2.881  15.781  0.1253  0.6689  0.2627
  152DOPC  H16R18221   3.077   2.771  15.770  2.0755  0.8014  0.3677
  152DOPC  H16S18222   3.166   2.920  15.814  0.5105 -0.5235  0.5562
  152DOPC  C21718223   3.052   2.948  15.644 -0.4447 -0.3489 -0.5115
  152DOPC  H17R18224   3.148   2.934  15.591  0.4170 -0.4106  1.0139
  152DOPC  H17S18225   3.048   3.058  15.659  2.2310 -0.3396  0.6420
  152DOPC  C21818226   2.927   2.901  15.572  0.1148 -0.0939 -0.1361
  152DOPC  H18R18227   2.844   2.933  15.639  0.4729  1.6993 -0.4903
  152DOPC  H18S18228   2.926   2.791  15.559  0.6302 -0.1163  0.0158
  152DOPC  H18T18229   2.918   2.934  15.466 -1.7945  0.5763  0.1926
  152DOPC   C3318230   2.944   3.457  16.921  0.0243  0.1449  0.1209
  152DOPC   H3X18231   3.025   3.387  16.953  1.0828 -0.1397 -2.8764
  152DOPC   H3Y18232   2.997   3.555  16.918  1.4392 -0.6138 -1.4094
  152DOPC   C3418233   2.907   3.425  16.777 -0.4941  0.6646  0.0067
  152DOPC   H4X18234   2.830   3.346  16.789  1.5655 -1.2168  1.7015
  152DOPC   H4Y18235   2.990   3.386  16.715 -1.3832 -1.0252 -0.2031
  152DOPC   C3518236   2.854   3.546  16.703  0.1854 -0.3810 -0.3907
  152DOPC   H5X18237   2.933   3.622  16.723 -1.5242  2.3617 -3.2493
  152DOPC   H5Y18238   2.763   3.577  16.758  1.1501  2.1815 -0.1145
  152DOPC   C3618239   2.831   3.537  16.555  0.8262  0.0449 -0.4115
  152DOPC   H6X18240   2.790   3.633  16.517  1.1069 -0.0321 -0.9222
  152DOPC   H6Y18241   2.929   3.519  16.506 -0.6966 -2.7432 -2.7723
  152DOPC   C3718242   2.734   3.413  16.518 -0.6293 -0.1464 -0.6949
  152DOPC   H7X18243   2.773   3.323  16.571  1.4308 -0.3435 -2.3991
  152DOPC   H7Y18244   2.640   3.436  16.572  0.8445  2.2872  1.0252
  152DOPC   C3818245   2.725   3.393  16.368  0.0055  0.3451 -0.2064
  152DOPC   H8X18246   2.717   3.497  16.330 -0.5482  0.5604  0.4657
  152DOPC   H8Y18247   2.629   3.340  16.350 -0.3743  1.0510 -0.2993
  152DOPC   C3918248   2.842   3.322  16.295  0.5042  0.1674  0.5358
  152DOPC   H9X18249   2.941   3.342  16.338  0.6968 -0.4253  0.3769
  152DOPC  C31018250   2.841   3.265  16.170  0.1181 -0.2147 -0.9152
  152DOPC  H10X18251   2.933   3.231  16.122  0.8122 -0.4823  0.5299
  152DOPC  C31118252   2.719   3.240  16.088  0.6905 -0.7739  0.4670
  152DOPC  H11X18253   2.628   3.286  16.132  0.9728 -0.0393  0.2897
  152DOPC  H11Y18254   2.690   3.133  16.081  1.0202 -0.7771 -1.7368
  152DOPC  C31218255   2.744   3.289  15.947  0.4770  0.1670 -0.2395
  152DOPC  H12X18256   2.651   3.267  15.889 -0.0742  0.6051  0.4650
  152DOPC  H12Y18257   2.823   3.230  15.896 -0.8894 -0.9252 -1.1802
  152DOPC  C31318258   2.771   3.439  15.931  0.2434  0.2584  0.6059
  152DOPC  H13X18259   2.776   3.485  16.032  0.6211  1.7015 -0.0522
  152DOPC  H13Y18260   2.877   3.453  15.900 -0.2791 -0.4842 -1.7375
  152DOPC  C31418261   2.667   3.517  15.846  0.3365  0.2755 -0.0800
  152DOPC  H14X18262   2.576   3.453  15.841  0.3023  0.3886 -1.3063
  152DOPC  H14Y18263   2.651   3.618  15.888 -1.1483 -0.5628  1.4973
  152DOPC  C31518264   2.701   3.528  15.698 -0.0903 -0.0195 -0.0134
  152DOPC  H15X18265   2.802   3.571  15.687  0.1541  0.1304  2.3328
  152DOPC  H15Y18266   2.634   3.595  15.641 -0.5339 -0.9375 -0.6022
  152DOPC  C31618267   2.694   3.394  15.626 -0.4790  0.4151 -0.3488
  152DOPC  H16X18268   2.767   3.333  15.685 -1.9734 -0.5669  0.5654
  152DOPC  H16Y18269   2.593   3.350  15.641 -0.4852  0.2164 -0.9419
  152DOPC  C31718270   2.732   3.400  15.478  0.0200 -0.2565 -0.6975
  152DOPC  H17X18271   2.837   3.424  15.450  0.0000 -0.3402 -0.8484
  152DOPC  H17Y18272   2.722   3.296  15.439  0.7939 -0.3283 -0.7156
  152DOPC  C31818273   2.630   3.484  15.412  0.5088 -0.3002 -0.4304
  152DOPC  H18X18274   2.535   3.477  15.467  0.0633 -0.9156 -1.2595
  152DOPC  H18Y18275   2.670   3.587  15.397 -1.7252  0.8587  1.1380
  152DOPC  H18Z18276   2.599   3.452  15.310 -1.9342 -1.7798  0.7102
  153DOPC     N18277   4.158   0.344  17.560 -0.2133  0.2059  0.3080
  153DOPC   C1218278   4.103   0.482  17.529  0.0342 -0.8181 -0.7584
  153DOPC  H12A18279   4.139   0.553  17.601 -3.7527  0.6512 -0.0641
  153DOPC  H12B18280   3.999   0.492  17.556  0.8207  1.0386  2.0649
  153DOPC   C1318281   4.308   0.335  17.526  0.4774 -0.7744 -0.3991
  153DOPC  H13A18282   4.349   0.243  17.565  0.0911 -1.3172 -1.2422
  153DOPC  H13B18283   4.317   0.332  17.418  2.6613  0.8719 -0.3279
  153DOPC  H13C18284   4.359   0.419  17.570 -3.1777  1.0787  0.7247
  153DOPC   C1418285   4.084   0.238  17.492  0.5018  0.1445  0.2286
  153DOPC  H14A18286   3.980   0.256  17.515  0.5619 -0.9765  1.4879
  153DOPC  H14B18287   4.081   0.248  17.385 -4.1546  0.0608  0.1259
  153DOPC  H14C18288   4.118   0.139  17.519 -0.0614 -0.1803 -0.2334
  153DOPC   C1518289   4.144   0.318  17.705 -0.3592  0.1129 -0.4412
  153DOPC  H15A18290   4.206   0.380  17.768  2.5532 -2.7654 -0.2089
  153DOPC  H15B18291   4.171   0.216  17.729  1.5741  1.0170  1.4666
  153DOPC  H15C18292   4.043   0.316  17.743 -0.7598  0.1887 -1.4735
  153DOPC   C1118293   4.127   0.550  17.394 -0.2477  1.2130  0.5229
  153DOPC  H11A18294   4.100   0.657  17.406  1.8397  1.9397 -0.6350
  153DOPC  H11B18295   4.237   0.557  17.376 -0.1828  0.7551  0.7288
  153DOPC     P18296   3.912   0.476  17.267  0.2489 -0.1751  0.0930
  153DOPC   O1318297   3.842   0.467  17.393  0.3977  0.3024  0.3600
  153DOPC   O1418298   3.887   0.356  17.176  0.4460  0.6382 -0.1809
  153DOPC   O1218299   4.068   0.492  17.281  0.1923 -0.1824 -0.2287
  153DOPC   O1118300   3.868   0.602  17.187 -0.4175 -0.7806 -0.3504
  153DOPC    C118301   3.755   0.604  17.101 -0.2531 -0.3470 -0.0551
  153DOPC    HA18302   3.700   0.701  17.107  2.0671  1.0023  0.5127
  153DOPC    HB18303   3.681   0.523  17.120 -1.5585  0.7497 -0.2869
  153DOPC    C218304   3.804   0.584  16.958  0.5531  0.1431  0.0942
  153DOPC    HS18305   3.852   0.483  16.955 -0.3514 -0.2766 -1.2629
  153DOPC   O2118306   3.877   0.702  16.931 -0.6553 -0.3053  0.0690
  153DOPC   C2118307   3.968   0.698  16.838 -0.0605 -0.2802 -0.6937
  153DOPC   O2218308   3.992   0.597  16.775 -0.5346 -0.8117  0.5325
  153DOPC   C2218309   4.038   0.834  16.821 -0.1006  0.2744 -0.0494
  153DOPC   H2R18310   4.126   0.801  16.761 -0.0620 -0.8404  0.5875
  153DOPC   H2S18311   4.078   0.867  16.919 -1.1595  1.6249 -0.0504
  153DOPC    C318312   3.683   0.574  16.866 -0.3811  0.2544 -0.5174
  153DOPC    HX18313   3.608   0.655  16.879  1.6391  2.0750  0.4776
  153DOPC    HY18314   3.627   0.483  16.896 -1.1768  0.3743 -1.5798
  153DOPC   O3118315   3.720   0.576  16.724  0.1631 -0.1779 -0.0391
  153DOPC   C3118316   3.623   0.525  16.649 -0.0264  0.9606 -0.0382
  153DOPC   O3218317   3.507   0.510  16.685  0.2846  0.5020  0.1353
  153DOPC   C3218318   3.676   0.464  16.515 -0.6993  0.1728 -0.1840
  153DOPC   H2X18319   3.737   0.373  16.534 -0.8791  0.3304  1.2286
  153DOPC   H2Y18320   3.585   0.430  16.462  0.5764 -1.7304 -1.2935
  153DOPC   C2318321   3.964   0.945  16.753  0.3030 -0.1656  0.3651
  153DOPC   H3R18322   4.032   1.028  16.727 -0.3943  0.1585 -0.5002
  153DOPC   H3S18323   3.884   0.988  16.816  1.2497  0.5673  1.1014
  153DOPC   C2418324   3.907   0.916  16.613 -0.5618  0.5055  0.0779
  153DOPC   H4R18325   3.827   0.985  16.580 -0.2670  1.5962  1.5422
  153DOPC   H4S18326   3.875   0.810  16.620  3.3812 -0.9785 -1.0563
  153DOPC   C2518327   4.014   0.922  16.498 -0.9640  0.3167 -0.2645
  153DOPC   H5R18328   4.103   0.860  16.522 -0.2198  0.3450 -2.7068
  153DOPC   H5S18329   4.050   1.027  16.489 -1.3928  0.5953  1.0232
  153DOPC   C2618330   3.947   0.894  16.362  0.0561  0.9639 -0.0610
  153DOPC   H6R18331   3.846   0.940  16.357  0.7568  2.5440 -0.1314
  153DOPC   H6S18332   3.920   0.786  16.369 -0.1932  1.0463  0.2813
  153DOPC   C2718333   4.021   0.931  16.233 -0.1933 -0.3939 -0.1323
  153DOPC   H7R18334   4.126   0.897  16.245 -0.6003 -1.9054 -0.6438
  153DOPC   H7S18335   4.034   1.040  16.212 -0.8965 -0.1794  0.4623
  153DOPC   C2818336   3.974   0.852  16.107 -0.3469  0.3475  0.4637
  153DOPC   H8R18337   3.863   0.855  16.096 -0.2698 -0.0345 -0.5909
  153DOPC   H8S18338   3.989   0.745  16.131  2.3283  0.5915  0.1247
  153DOPC   C2918339   4.043   0.895  15.984  0.3302 -0.0535  0.1536
  153DOPC   H9R18340   4.132   0.956  16.005  0.9264 -1.5117  2.0949
  153DOPC  C21018341   4.011   0.880  15.855 -0.3664 -0.3275 -0.3845
  153DOPC  H10R18342   4.084   0.917  15.782  1.6512  1.5163  2.3902
  153DOPC  C21118343   3.881   0.808  15.819  0.8011 -0.2784  0.6169
  153DOPC  H11R18344   3.798   0.872  15.857 -1.6576 -2.5119 -0.6939
  153DOPC  H11S18345   3.867   0.717  15.881 -0.0141  0.5104  1.6281
  153DOPC  C21218346   3.869   0.780  15.673  0.2318 -0.4272 -0.6202
  153DOPC  H12R18347   3.787   0.706  15.660  0.5589 -0.7813 -0.6481
  153DOPC  H12S18348   3.959   0.729  15.634 -0.1048 -0.7055 -1.0325
  153DOPC  C21318349   3.857   0.907  15.588 -0.2072  0.4535  0.2802
  153DOPC  H13R18350   3.911   0.989  15.641  0.6367  0.6758 -0.8937
  153DOPC  H13S18351   3.751   0.940  15.576 -0.0982  1.4858  1.7223
  153DOPC  C21418352   3.931   0.889  15.451 -0.3184  0.0973  0.3248
  153DOPC  H14R18353   3.871   0.807  15.406 -0.8589  1.3377 -1.2983
  153DOPC  H14S18354   4.033   0.846  15.462 -0.5504 -0.0761  2.1625
  153DOPC  C21518355   3.922   1.012  15.355 -0.0604 -0.5926 -0.0778
  153DOPC  H15R18356   4.000   1.085  15.386 -1.6119  0.9654  0.2664
  153DOPC  H15S18357   3.821   1.055  15.369 -0.4209 -1.6914  0.8895
  153DOPC  C21618358   3.942   0.969  15.213  0.1558 -0.4929  0.7510
  153DOPC  H16R18359   3.867   0.894  15.179 -1.8246  1.3931  0.6965
  153DOPC  H16S18360   4.043   0.925  15.199  1.1785  1.6520  0.8809
  153DOPC  C21718361   3.918   1.084  15.101  0.0108 -0.3922  0.0314
  153DOPC  H17R18362   3.814   1.124  15.102  0.3290  0.4784 -0.7950
  153DOPC  H17S18363   3.930   1.041  14.999  2.2644 -1.1623  0.5517
  153DOPC  C21818364   4.030   1.186  15.107 -0.6325  0.0076  0.4660
  153DOPC  H18R18365   4.031   1.233  15.207  0.0459 -0.7631  0.8346
  153DOPC  H18S18366   4.035   1.269  15.033 -0.8972 -0.3463  0.0458
  153DOPC  H18T18367   4.122   1.126  15.090 -0.1423  1.0308 -0.6861
  153DOPC   C3318368   3.765   0.556  16.431 -0.1178  0.5005  0.0623
  153DOPC   H3X18369   3.859   0.580  16.486 -0.5704 -0.7744  1.4610
  153DOPC   H3Y18370   3.712   0.645  16.392 -2.6440 -1.3183 -0.9867
  153DOPC   C3418371   3.812   0.485  16.304  0.4613  0.3047 -0.5519
  153DOPC   H4X18372   3.845   0.384  16.338 -1.1706 -0.4360 -1.1009
  153DOPC   H4Y18373   3.901   0.535  16.261  2.3638 -0.8259  1.8260
  153DOPC   C3518374   3.700   0.476  16.193  0.0050  0.3250 -0.2906
  153DOPC   H5X18375   3.600   0.478  16.241 -0.4056  0.3819 -1.1298
  153DOPC   H5Y18376   3.718   0.381  16.138 -1.7314 -0.8665  1.1073
  153DOPC   C3618377   3.705   0.598  16.095 -0.1153  0.3146  0.0555
  153DOPC   H6X18378   3.681   0.680  16.166 -2.2146  0.0274 -0.2596
  153DOPC   H6Y18379   3.812   0.603  16.066 -0.3850  0.9792 -0.8777
  153DOPC   C3718380   3.613   0.591  15.976  1.3137 -0.1976  0.8934
  153DOPC   H7X18381   3.513   0.623  16.013  0.2154  1.0160 -2.6678
  153DOPC   H7Y18382   3.638   0.665  15.897  0.7886  1.5671  2.3247
  153DOPC   C3818383   3.600   0.456  15.905  0.2757  0.4624  0.1631
  153DOPC   H8X18384   3.532   0.477  15.819  0.7565 -1.3561 -0.7054
  153DOPC   H8Y18385   3.554   0.379  15.970  0.2228  1.3954  1.2674
  153DOPC   C3918386   3.727   0.407  15.840 -0.0827  0.2548 -0.3076
  153DOPC   H9X18387   3.811   0.389  15.909  0.2469  2.5731  0.0050
  153DOPC  C31018388   3.738   0.383  15.709  0.6449 -0.0223 -0.4799
  153DOPC  H10X18389   3.836   0.347  15.673  1.4962  0.1777  1.5428
  153DOPC  C31118390   3.632   0.378  15.603  0.6786 -1.1974  0.8496
  153DOPC  H11X18391   3.593   0.482  15.598 -0.4644 -1.6625 -0.7123
  153DOPC  H11Y18392   3.542   0.319  15.633 -0.8170  0.4406 -0.2415
  153DOPC  C31218393   3.692   0.346  15.464 -0.1095 -0.4843  0.5899
  153DOPC  H12X18394   3.611   0.325  15.390  0.6989  3.7314 -1.7862
  153DOPC  H12Y18395   3.743   0.247  15.469 -1.8122 -1.5966 -1.7659
  153DOPC  C31318396   3.783   0.446  15.402  0.4031  0.6047 -0.7487
  153DOPC  H13X18397   3.827   0.518  15.474 -0.3399  0.5430 -0.2309
  153DOPC  H13Y18398   3.864   0.383  15.358  0.7557 -0.3323  1.1539
  153DOPC  C31418399   3.718   0.539  15.299  0.0799  0.0612 -0.1605
  153DOPC  H14X18400   3.626   0.583  15.342 -1.9258 -0.7833 -3.2765
  153DOPC  H14Y18401   3.788   0.623  15.279  1.7204 -1.1534  0.2715
  153DOPC  C31518402   3.664   0.475  15.171  0.3595  0.1913 -0.0967
  153DOPC  H15X18403   3.582   0.405  15.198 -1.4311  1.7969 -1.1067
  153DOPC  H15Y18404   3.742   0.416  15.117  1.3283  1.1631  0.1949
  153DOPC  C31618405   3.602   0.568  15.070 -0.4699 -0.6551 -0.7612
  153DOPC  H16X18406   3.521   0.628  15.116 -0.6486 -0.4559 -1.3292
  153DOPC  H16Y18407   3.675   0.645  15.035 -2.2361  2.4611  1.8210
  153DOPC  C31718408   3.534   0.493  14.956 -0.2424  0.1721  0.0790
  153DOPC  H17X18409   3.616   0.465  14.888  0.6425  2.6044  0.0362
  153DOPC  H17Y18410   3.487   0.399  14.991  3.0135 -1.5254  0.1519
  153DOPC  C31818411   3.433   0.588  14.894 -0.7794  0.6192 -0.0227
  153DOPC  H18X18412   3.394   0.527  14.811 -0.4063  0.9037 -0.4113
  153DOPC  H18Y18413   3.350   0.615  14.963  0.5066  2.5807  0.8496
  153DOPC  H18Z18414   3.472   0.684  14.855  1.9819 -1.6617 -3.5470
  154DOPC     N18415   4.790   4.877  17.619  0.6328  0.0111  0.7087
  154DOPC   C1218416   4.835   4.881  17.476 -0.2452 -0.9905 -0.1714
  154DOPC  H12A18417   4.762   4.934  17.417  1.4030 -0.4984 -1.8534
  154DOPC  H12B18418   4.848   4.781  17.439 -0.8084 -0.3547 -2.1774
  154DOPC   C1318419   4.804   5.015  17.676  0.4589  0.4786 -0.5872
  154DOPC  H13A18420   4.905   5.048  17.693  0.7894 -0.5377 -0.4821
  154DOPC  H13B18421   4.750   5.086  17.616 -2.5619 -0.4551  0.8429
  154DOPC  H13C18422   4.743   5.016  17.766 -1.3536  0.2375 -1.7600
  154DOPC   C1418423   4.874   4.786  17.698  0.6392  0.2540 -0.1461
  154DOPC  H14A18424   4.981   4.790  17.679  0.5705  0.4534 -0.4793
  154DOPC  H14B18425   4.874   4.817  17.802  3.3383  0.6121 -0.1785
  154DOPC  H14C18426   4.834   4.688  17.677 -0.4197  0.6081  0.1767
  154DOPC   C1518427   4.650   4.827  17.623  0.5822  0.1263  0.4798
  154DOPC  H15A18428   4.594   4.878  17.547  0.9426 -0.4412 -0.1821
  154DOPC  H15B18429   4.611   4.832  17.723  0.6569 -0.5667  0.5503
  154DOPC  H15C18430   4.644   4.721  17.605 -1.8577  0.0778  1.2968
  154DOPC   C1118431   4.968   4.955  17.438  0.3877 -0.5691  0.7159
  154DOPC  H11A18432   4.987   4.938  17.330 -0.0432  0.0161  0.5411
  154DOPC  H11B18433   4.939   5.061  17.457 -0.6799 -0.4783 -1.1072
  154DOPC     P18434   5.202   5.023  17.552  0.1432  0.0615 -0.0741
  154DOPC   O1318435   5.304   4.949  17.629 -0.8227 -0.4458  0.2002
  154DOPC   O1418436   5.135   5.125  17.634 -0.1791 -0.6156 -0.3431
  154DOPC   O1218437   5.088   4.918  17.508 -0.5162  0.4392  0.3424
  154DOPC   O1118438   5.262   5.094  17.426  1.1799  0.3819 -0.1336
  154DOPC    C118439   5.252   5.057  17.293 -0.2222 -0.1069 -0.1847
  154DOPC    HA18440   5.152   5.098  17.266  0.9622  3.9278  0.8039
  154DOPC    HB18441   5.259   4.947  17.288 -0.6587 -0.1016 -1.1013
  154DOPC    C218442   5.365   5.119  17.211 -0.7783 -0.4603 -0.0936
  154DOPC    HS18443   5.327   5.222  17.193 -0.3999 -0.5750 -1.7745
  154DOPC   O2118444   5.395   5.042  17.092 -0.2647 -0.8540  0.3724
  154DOPC   C2118445   5.298   5.050  17.006  0.5241 -0.0473 -0.3036
  154DOPC   O2218446   5.192   5.108  17.015  0.2881 -0.0009  0.3488
  154DOPC   C2218447   5.338   4.972  16.883 -0.4813 -0.1372 -0.3920
  154DOPC   H2R18448   5.272   4.883  16.884 -0.0779 -0.4648  1.5491
  154DOPC   H2S18449   5.435   4.919  16.893  0.2011  1.2398  0.6152
  154DOPC    C318450   5.502   5.131  17.291  0.7512  0.0178  0.3241
  154DOPC    HX18451   5.523   5.031  17.336  3.5059 -0.0996 -0.9771
  154DOPC    HY18452   5.496   5.190  17.385  3.2282 -0.2978  0.7514
  154DOPC   O3118453   5.611   5.171  17.206  0.2265  0.3236 -0.2838
  154DOPC   C3118454   5.605   5.296  17.166  0.7771  0.2660 -0.9595
  154DOPC   O3218455   5.529   5.380  17.205  0.4119 -0.4309  0.1627
  154DOPC   C3218456   5.707   5.320  17.057  0.5418  0.2886 -0.4588
  154DOPC   H2X18457   5.721   5.429  17.040 -0.9093  0.3111 -1.8280
  154DOPC   H2Y18458   5.797   5.270  17.099 -0.6099 -0.6118  1.0739
  154DOPC   C2318459   5.326   5.063  16.762 -0.6991  0.1180  0.0666
  154DOPC   H3R18460   5.415   5.128  16.754 -0.6761  0.1589  0.6398
  154DOPC   H3S18461   5.236   5.127  16.773  0.8631  2.2755  0.8952
  154DOPC   C2418462   5.309   4.982  16.632 -0.0336 -0.3486 -0.1550
  154DOPC   H4R18463   5.204   4.949  16.621  0.7183 -2.7021 -0.8057
  154DOPC   H4S18464   5.378   4.898  16.613  1.1136 -0.2217  2.9005
  154DOPC   C2518465   5.314   5.083  16.511 -0.3587  0.0056  0.1346
  154DOPC   H5R18466   5.410   5.140  16.508  0.1017 -0.7956 -1.7957
  154DOPC   H5S18467   5.234   5.160  16.519  1.0220  1.6229 -0.9440
  154DOPC   C2618468   5.294   5.008  16.383  0.5812 -0.0695  0.0312
  154DOPC   H6R18469   5.211   4.934  16.386  0.9867 -0.5514 -0.5076
  154DOPC   H6S18470   5.386   4.952  16.356  0.0639 -0.4896 -0.8984
  154DOPC   C2718471   5.259   5.098  16.262  0.3880 -0.0860 -0.1116
  154DOPC   H7R18472   5.329   5.181  16.235 -1.8396  1.7380 -0.5711
  154DOPC   H7S18473   5.162   5.142  16.292 -0.3919  0.2814 -2.9226
  154DOPC   C2818474   5.248   5.021  16.134  0.6353 -0.6723  0.3307
  154DOPC   H8R18475   5.151   4.967  16.123  1.2299 -1.7208  0.1139
  154DOPC   H8S18476   5.324   4.944  16.110  0.6431 -0.4306 -0.4360
  154DOPC   C2918477   5.232   5.128  16.023 -1.0851  0.1553  0.0580
  154DOPC   H9R18478   5.156   5.206  16.033  0.4635  1.8232 -0.5438
  154DOPC  C21018479   5.304   5.134  15.908  0.3070 -0.2248 -0.5377
  154DOPC  H10R18480   5.291   5.215  15.835  1.2113 -0.1597 -0.6440
  154DOPC  C21118481   5.418   5.045  15.867  0.6432 -0.3340  0.7048
  154DOPC  H11R18482   5.445   4.965  15.939 -0.0174  0.5370  1.9688
  154DOPC  H11S18483   5.503   5.112  15.843 -1.1517  1.8525  0.0810
  154DOPC  C21218484   5.376   4.979  15.733  0.4160 -1.0308  0.0372
  154DOPC  H12R18485   5.288   4.913  15.751 -2.1278  1.0780 -3.2784
  154DOPC  H12S18486   5.464   4.920  15.700 -0.4164 -1.9194 -0.6847
  154DOPC  C21318487   5.338   5.068  15.617  0.0522 -0.4234 -0.0496
  154DOPC  H13R18488   5.418   5.144  15.608 -0.3722  0.0220 -0.0975
  154DOPC  H13S18489   5.239   5.116  15.638  0.0646 -1.0784  1.6676
  154DOPC  C21418490   5.336   4.986  15.485 -0.3187  0.2584 -0.4670
  154DOPC  H14R18491   5.246   4.921  15.482 -2.5656  3.1095  0.6368
  154DOPC  H14S18492   5.432   4.930  15.493 -0.3686  0.1758 -0.4448
  154DOPC  C21518493   5.329   5.077  15.363 -0.4315 -0.0326 -0.1646
  154DOPC  H15R18494   5.413   5.149  15.372 -0.5379  0.6839 -3.5309
  154DOPC  H15S18495   5.238   5.139  15.368 -0.1504  0.3430  0.4651
  154DOPC  C21618496   5.357   5.012  15.222 -0.0044 -0.4070  0.4253
  154DOPC  H16R18497   5.273   4.941  15.202  0.0336  0.0502 -1.6300
  154DOPC  H16S18498   5.449   4.950  15.215  1.1157  1.1929  0.5181
  154DOPC  C21718499   5.357   5.121  15.112 -0.2091  0.1263 -0.1690
  154DOPC  H17R18500   5.438   5.192  15.142 -1.7771  1.6587  0.6218
  154DOPC  H17S18501   5.260   5.176  15.115  0.6757  1.8498 -1.4795
  154DOPC  C21818502   5.396   5.059  14.976  0.0021  0.0082  0.1802
  154DOPC  H18R18503   5.430   5.140  14.907  1.9351  0.5506  1.6668
  154DOPC  H18S18504   5.306   5.018  14.925 -1.1920  1.9065  0.6629
  154DOPC  H18T18505   5.472   4.978  14.969 -0.0557  0.0620 -1.8916
  154DOPC   C3318506   5.660   5.262  16.921  0.1740  0.4243  0.7455
  154DOPC   H3X18507   5.577   5.324  16.881  0.9415  1.2537  0.4020
  154DOPC   H3Y18508   5.630   5.155  16.913  3.0627 -0.4310 -0.0956
  154DOPC   C3418509   5.771   5.269  16.812  0.1796 -0.1880 -0.8755
  154DOPC   H4X18510   5.843   5.190  16.844  1.0097  0.2980 -1.4939
  154DOPC   H4Y18511   5.820   5.369  16.814  1.4244 -0.7838 -0.3459
  154DOPC   C3518512   5.707   5.256  16.675  0.4183 -0.6653  0.8412
  154DOPC   H5X18513   5.625   5.331  16.669  2.2213  1.3195 -1.2502
  154DOPC   H5Y18514   5.653   5.159  16.668 -3.9501  1.5805 -0.7745
  154DOPC   C3618515   5.798   5.284  16.559  0.0003  0.3742  0.0448
  154DOPC   H6X18516   5.836   5.387  16.580  0.6574  0.1916 -0.2309
  154DOPC   H6Y18517   5.877   5.206  16.549  1.1934  1.6703 -1.3602
  154DOPC   C3718518   5.705   5.283  16.434 -0.3123 -0.5932  0.3792
  154DOPC   H7X18519   5.634   5.199  16.446 -0.5974 -0.3292  0.5453
  154DOPC   H7Y18520   5.642   5.374  16.443  0.9907  0.5640 -1.4887
  154DOPC   C3818521   5.776   5.263  16.299 -0.1538 -0.3247  0.7885
  154DOPC   H8X18522   5.811   5.159  16.281  0.6052 -0.1069  0.9848
  154DOPC   H8Y18523   5.871   5.320  16.284 -1.4262  1.3106 -2.0452
  154DOPC   C3918524   5.682   5.297  16.180 -0.8846  0.0698  0.4063
  154DOPC   H9X18525   5.574   5.296  16.203 -0.5020 -1.2469  2.3790
  154DOPC  C31018526   5.728   5.333  16.058  0.4956  0.0042 -0.3190
  154DOPC  H10X18527   5.653   5.352  15.979 -1.6733 -1.5993  1.2298
  154DOPC  C31118528   5.872   5.363  16.012  0.3385  0.3861  0.0019
  154DOPC  H11X18529   5.944   5.280  16.028  0.0248  0.2640  0.7881
  154DOPC  H11Y18530   5.921   5.449  16.063 -0.4003  2.1349 -2.0494
  154DOPC  C31218531   5.885   5.405  15.865  0.6835  0.2538  0.5236
  154DOPC  H12X18532   5.987   5.436  15.833 -0.7323  2.3410 -2.4004
  154DOPC  H12Y18533   5.834   5.502  15.845 -0.7668  0.2922  3.7341
  154DOPC  C31318534   5.821   5.303  15.776  0.2492  0.6884  0.8466
  154DOPC  H13X18535   5.837   5.202  15.820  0.7002  0.8306  1.0195
  154DOPC  H13Y18536   5.711   5.312  15.779  0.0975 -0.6429 -0.0959
  154DOPC  C31418537   5.861   5.310  15.620 -0.0273 -0.3214 -0.0388
  154DOPC  H14X18538   5.834   5.412  15.588  1.3269 -0.4184 -1.6384
  154DOPC  H14Y18539   5.972   5.313  15.608  0.2904  2.4602  2.4418
  154DOPC  C31518540   5.808   5.206  15.531 -0.0705  0.1651 -0.2850
  154DOPC  H15X18541   5.700   5.210  15.508 -0.4471 -0.2666  1.2916
  154DOPC  H15Y18542   5.841   5.113  15.581  0.4118  0.4393 -0.0854
  154DOPC  C31618543   5.883   5.206  15.390 -0.3268 -0.1368  0.0154
  154DOPC  H16X18544   5.991   5.182  15.396 -0.0308  1.2419  0.5450
  154DOPC  H16Y18545   5.832   5.136  15.320  0.8429  0.3165 -1.3226
  154DOPC  C31718546   5.881   5.352  15.327  0.1108  1.2983 -0.8126
  154DOPC  H17X18547   5.779   5.392  15.310 -0.8636 -1.1083 -1.1460
  154DOPC  H17Y18548   5.923   5.420  15.404  0.2819 -1.2443  1.5280
  154DOPC  C31818549   5.959   5.363  15.198 -0.4884 -0.2782 -0.7452
  154DOPC  H18X18550   5.937   5.291  15.117 -0.4897 -0.1804 -0.8319
  154DOPC  H18Y18551   5.948   5.466  15.157  2.1376  0.1214 -0.6367
  154DOPC  H18Z18552   6.068   5.364  15.221 -0.4329 -1.1881 -0.9367
  155DOPC     N18553   1.700   3.573  18.074 -0.2641 -0.1660  0.0810
  155DOPC   C1218554   1.580   3.641  18.134  0.0201  0.2077  0.0063
  155DOPC  H12A18555   1.593   3.656  18.241  0.4861 -1.0013  0.1296
  155DOPC  H12B18556   1.489   3.586  18.117 -0.0714  0.8636 -1.8512
  155DOPC   C1318557   1.702   3.425  18.109  0.5529  0.4103 -0.4671
  155DOPC  H13A18558   1.804   3.389  18.112  0.7180  0.9189  0.2182
  155DOPC  H13B18559   1.654   3.402  18.203 -0.5891  0.8126 -0.9384
  155DOPC  H13C18560   1.651   3.370  18.031  1.6916  1.0681 -1.7109
  155DOPC   C1418561   1.816   3.636  18.134  0.1498 -0.3778  0.5334
  155DOPC  H14A18562   1.829   3.598  18.234  0.9009 -0.9805  0.2268
  155DOPC  H14B18563   1.910   3.627  18.080 -0.0124  0.9603  0.0010
  155DOPC  H14C18564   1.801   3.742  18.141  0.0954 -0.2389 -1.1087
  155DOPC   C1518565   1.704   3.572  17.927  0.7045 -0.9708  0.0740
  155DOPC  H15A18566   1.638   3.500  17.881  0.2897  0.5225 -1.8014
  155DOPC  H15B18567   1.802   3.551  17.887  1.0546  0.5600  0.0587
  155DOPC  H15C18568   1.669   3.671  17.902  2.0129 -0.0253  1.6829
  155DOPC   C1118569   1.567   3.789  18.074 -0.0648  0.2580 -0.4607
  155DOPC  H11A18570   1.510   3.846  18.151  2.2566  0.0382  1.5419
  155DOPC  H11B18571   1.663   3.844  18.081  1.4738 -2.1413 -1.4269
  155DOPC     P18572   1.365   3.816  17.916  0.2818  0.1258 -0.1539
  155DOPC   O1318573   1.353   3.937  17.838  0.7458 -0.5613  0.3162
  155DOPC   O1418574   1.282   3.811  18.038  0.5192  0.3693  0.5220
  155DOPC   O1218575   1.516   3.790  17.944  0.7319 -0.3210  0.2124
  155DOPC   O1118576   1.336   3.696  17.819  0.6835  0.0348  0.1387
  155DOPC    C118577   1.405   3.688  17.689  0.1865  0.2370 -1.0607
  155DOPC    HA18578   1.437   3.583  17.676  0.0846  0.2775 -1.6657
  155DOPC    HB18579   1.498   3.748  17.691 -0.6824  1.6440 -1.0572
  155DOPC    C218580   1.316   3.721  17.565 -0.2739 -0.0713 -0.2884
  155DOPC    HS18581   1.287   3.828  17.569  1.2121  0.3216  1.4520
  155DOPC   O2118582   1.203   3.634  17.573 -0.0101  0.0496  0.0065
  155DOPC   C2118583   1.089   3.678  17.524  0.6035 -0.0346 -1.2859
  155DOPC   O2218584   1.071   3.792  17.477  0.3724  0.2571  0.6162
  155DOPC   C2218585   0.979   3.572  17.537 -0.7607 -0.5096  0.2442
  155DOPC   H2R18586   0.967   3.549  17.646  0.9069 -0.4006  0.4765
  155DOPC   H2S18587   1.007   3.485  17.476  2.4062  0.8052 -0.3658
  155DOPC    C318588   1.395   3.677  17.443 -0.2148 -0.3827  0.4605
  155DOPC    HX18589   1.405   3.567  17.439 -2.3813 -0.5792 -0.5290
  155DOPC    HY18590   1.499   3.718  17.447 -0.7178  0.8707  1.5546
  155DOPC   O3118591   1.333   3.726  17.321 -0.2855  0.1231  0.3481
  155DOPC   C3118592   1.362   3.848  17.281  0.2576 -0.4268 -0.2408
  155DOPC   O3218593   1.434   3.923  17.344 -0.6226 -0.1482 -0.3588
  155DOPC   C3218594   1.313   3.874  17.137  0.5649  0.3045  0.4192
  155DOPC   H2X18595   1.288   3.775  17.094 -1.7108  0.1648  1.9073
  155DOPC   H2Y18596   1.223   3.939  17.146  0.2231 -0.0048 -0.6187
  155DOPC   C2318597   0.844   3.626  17.493  0.6318  0.1078  0.0607
  155DOPC   H3R18598   0.850   3.649  17.385 -0.8076  2.4875  0.3929
  155DOPC   H3S18599   0.817   3.718  17.550 -0.7835 -1.8748  2.8142
  155DOPC   C2418600   0.731   3.526  17.523  0.2358  0.3185 -0.1566
  155DOPC   H4R18601   0.637   3.578  17.495 -0.3283  0.2171  1.4139
  155DOPC   H4S18602   0.718   3.504  17.631 -3.1386 -4.9755 -1.2498
  155DOPC   C2518603   0.736   3.388  17.442  0.5112  0.2982  0.0314
  155DOPC   H5R18604   0.647   3.327  17.470  0.1845  0.6755 -0.1855
  155DOPC   H5S18605   0.822   3.327  17.477  1.6255  0.1786 -2.6816
  155DOPC   C2618606   0.754   3.409  17.290 -0.2226 -0.0639 -0.0420
  155DOPC   H6R18607   0.849   3.466  17.290 -0.5948  0.5724 -0.2906
  155DOPC   H6S18608   0.671   3.462  17.239  0.6435  0.3511 -1.0516
  155DOPC   C2718609   0.779   3.275  17.215 -0.0352 -0.6874  0.0140
  155DOPC   H7R18610   0.699   3.198  17.225  1.4010 -2.0363  1.5757
  155DOPC   H7S18611   0.869   3.235  17.266 -0.3661 -1.2908  0.1433
  155DOPC   C2818612   0.801   3.295  17.066  0.2405  0.5128 -0.0388
  155DOPC   H8R18613   0.861   3.381  17.030  0.1552 -0.8258 -3.7486
  155DOPC   H8S18614   0.703   3.297  17.015  0.4974 -2.0551 -0.8091
  155DOPC   C2918615   0.863   3.171  17.000 -0.3715  0.0911  0.6289
  155DOPC   H9R18616   0.890   3.083  17.060  2.0224  0.1358 -0.2571
  155DOPC  C21018617   0.886   3.160  16.865 -0.1001 -0.1880  0.4478
  155DOPC  H10R18618   0.941   3.078  16.817 -0.3271  0.7212 -1.4356
  155DOPC  C21118619   0.856   3.260  16.759 -0.0871  0.5775 -0.5669
  155DOPC  H11R18620   0.943   3.328  16.750  1.5867 -1.3604  0.1859
  155DOPC  H11S18621   0.771   3.324  16.791  0.8257  0.4188  2.5466
  155DOPC  C21218622   0.830   3.203  16.617 -0.4103 -0.3650  0.4749
  155DOPC  H12R18623   0.738   3.143  16.602 -0.6749  0.1190  0.1313
  155DOPC  H12S18624   0.912   3.138  16.578 -0.9499 -0.4141 -0.6221
  155DOPC  C21318625   0.835   3.324  16.519 -0.6714 -0.0656 -0.8082
  155DOPC  H13R18626   0.920   3.393  16.537 -0.1562 -0.9842  0.3872
  155DOPC  H13S18627   0.749   3.389  16.547  0.1017  0.1916  1.1628
  155DOPC  C21418628   0.844   3.279  16.371  0.2075 -0.6219 -0.5859
  155DOPC  H14R18629   0.738   3.260  16.344 -0.1769  0.6390 -0.0465
  155DOPC  H14S18630   0.910   3.189  16.367  1.1289 -0.1002  1.4156
  155DOPC  C21518631   0.874   3.395  16.277  0.3790  0.4364 -0.3596
  155DOPC  H15R18632   0.984   3.410  16.287  0.1788  1.0282  1.3782
  155DOPC  H15S18633   0.806   3.477  16.308 -1.6607 -1.3697  0.2023
  155DOPC  C21618634   0.852   3.378  16.129  0.3822  0.9225  0.3561
  155DOPC  H16R18635   0.745   3.390  16.102  1.2352  2.3859 -2.7200
  155DOPC  H16S18636   0.881   3.271  16.118  0.3325  1.0353 -1.0532
  155DOPC  C21718637   0.944   3.475  16.053  0.3249  0.3988  0.3086
  155DOPC  H17R18638   1.045   3.430  16.062  0.0565 -0.3978 -0.5469
  155DOPC  H17S18639   0.957   3.576  16.099  0.2167  0.4355  0.2606
  155DOPC  C21818640   0.915   3.501  15.908 -0.0147 -0.3312 -0.4736
  155DOPC  H18R18641   1.004   3.512  15.842  0.7134  1.2650  0.7084
  155DOPC  H18S18642   0.854   3.592  15.895 -1.0560 -1.1291 -1.3746
  155DOPC  H18T18643   0.851   3.421  15.866  2.1037 -2.3241 -0.1629
  155DOPC   C3318644   1.413   3.951  17.048 -0.0077 -0.5474 -0.5630
  155DOPC   H3X18645   1.467   4.035  17.095  0.8135 -2.1013  1.4033
  155DOPC   H3Y18646   1.361   3.987  16.957  1.9145  0.8452 -1.1819
  155DOPC   C3418647   1.527   3.870  16.983 -0.1873  0.0645 -0.0385
  155DOPC   H4X18648   1.484   3.775  16.942  2.6086 -0.7627 -1.3135
  155DOPC   H4Y18649   1.596   3.850  17.068 -0.2374  0.9337  0.2146
  155DOPC   C3518650   1.605   3.935  16.865  0.2490  0.4138  0.0690
  155DOPC   H5X18651   1.669   4.021  16.895 -0.7279  0.5316  2.0100
  155DOPC   H5Y18652   1.532   3.977  16.793 -2.1812 -0.6710  1.7550
  155DOPC   C3618653   1.699   3.834  16.801  0.3573  0.0058 -0.6143
  155DOPC   H6X18654   1.761   3.879  16.721  2.3918  0.7409  1.2516
  155DOPC   H6Y18655   1.760   3.799  16.887 -3.0975 -1.0242  1.6177
  155DOPC   C3718656   1.629   3.716  16.725  0.2505  0.1316  0.6911
  155DOPC   H7X18657   1.564   3.659  16.795 -1.1883  0.3029 -0.4280
  155DOPC   H7Y18658   1.568   3.746  16.636  0.3086 -3.3085 -0.6622
  155DOPC   C3818659   1.738   3.618  16.680 -0.5864  0.2942  0.5865
  155DOPC   H8X18660   1.794   3.583  16.768  0.3423 -0.1880 -0.1816
  155DOPC   H8Y18661   1.809   3.671  16.612 -0.5795 -1.1441 -0.5605
  155DOPC   C3918662   1.666   3.504  16.609  0.2571  0.5281  0.2203
  155DOPC   H9X18663   1.577   3.461  16.657 -0.8230  1.0343 -1.2647
  155DOPC  C31018664   1.683   3.473  16.477  0.8453 -0.5095  0.3052
  155DOPC  H10X18665   1.617   3.398  16.431  0.4347  0.1318 -0.1664
  155DOPC  C31118666   1.780   3.532  16.378 -0.0383 -0.8624  0.3237
  155DOPC  H11X18667   1.861   3.457  16.367 -1.4671 -3.2350  4.0454
  155DOPC  H11Y18668   1.838   3.620  16.415  1.0660 -0.3461 -2.3737
  155DOPC  C31218669   1.726   3.588  16.243  0.0742  0.0662 -0.3844
  155DOPC  H12X18670   1.791   3.664  16.193 -1.1886  2.0549  0.8804
  155DOPC  H12Y18671   1.623   3.622  16.266  0.9254  2.6118 -0.1062
  155DOPC  C31318672   1.701   3.474  16.132 -0.9921  0.0195 -0.0745
  155DOPC  H13X18673   1.801   3.434  16.104 -0.2516  1.0793  0.9578
  155DOPC  H13Y18674   1.650   3.396  16.193  1.8551 -0.9389  1.2876
  155DOPC  C31418675   1.638   3.519  16.011 -0.3040 -0.5750  0.3575
  155DOPC  H14X18676   1.540   3.554  16.047 -0.1927 -1.5905  1.7479
  155DOPC  H14Y18677   1.707   3.598  15.975  1.0008 -2.2735 -1.1031
  155DOPC  C31518678   1.612   3.426  15.892 -0.0872  0.1794 -0.0633
  155DOPC  H15X18679   1.587   3.323  15.925 -0.5908  0.3685  0.1580
  155DOPC  H15Y18680   1.703   3.423  15.828 -0.0703 -0.7901  0.0026
  155DOPC  C31618681   1.501   3.476  15.797  0.5037  0.0709 -0.3284
  155DOPC  H16X18682   1.518   3.417  15.704  2.2494 -0.2051  0.1252
  155DOPC  H16Y18683   1.404   3.453  15.845  0.5684 -0.7891 -0.5931
  155DOPC  C31718684   1.530   3.625  15.765 -0.0607 -0.0718  0.5476
  155DOPC  H17X18685   1.457   3.658  15.688  0.3864  0.3323  0.2908
  155DOPC  H17Y18686   1.506   3.691  15.851  1.0616 -2.9903  3.2573
  155DOPC  C31818687   1.672   3.647  15.706  0.1902 -0.2832  0.1409
  155DOPC  H18X18688   1.750   3.658  15.784  1.6243  1.3558 -1.4418
  155DOPC  H18Y18689   1.706   3.569  15.636  1.0635  0.6076 -0.4569
  155DOPC  H18Z18690   1.675   3.746  15.655  0.7161 -0.7646 -0.7651
  156DOPC     N18691   5.022   6.171  17.571 -0.3012  0.3839  0.0153
  156DOPC   C1218692   5.000   6.103  17.440  0.0299 -0.0124 -0.0584
  156DOPC  H12A18693   4.923   6.029  17.455 -1.4655  1.2954 -0.8813
  156DOPC  H12B18694   5.089   6.052  17.408  1.3354  2.5755 -0.8250
  156DOPC   C1318695   5.044   6.067  17.676  0.0733 -0.3048 -0.5948
  156DOPC  H13A18696   4.969   5.989  17.682 -0.1886 -0.0704 -0.7793
  156DOPC  H13B18697   5.141   6.021  17.666 -0.1964 -1.7162  2.2586
  156DOPC  H13C18698   5.053   6.112  17.774 -0.1250 -3.1925  0.8507
  156DOPC   C1418699   4.899   6.254  17.606  0.1287 -0.0905  0.1829
  156DOPC  H14A18700   4.810   6.197  17.628 -0.3852  0.2913 -0.8395
  156DOPC  H14B18701   4.921   6.313  17.694  0.6142  3.6113 -2.1978
  156DOPC  H14C18702   4.869   6.318  17.525 -1.5102  0.7721  1.3995
  156DOPC   C1518703   5.145   6.259  17.561  0.4801  0.3600 -0.5674
  156DOPC  H15A18704   5.123   6.334  17.486 -0.9546 -1.7261 -2.3680
  156DOPC  H15B18705   5.228   6.193  17.541  0.8859 -0.5778  3.3066
  156DOPC  H15C18706   5.162   6.323  17.646 -4.4153 -0.3482  1.3152
  156DOPC   C1118707   4.949   6.194  17.327 -0.1772 -0.4170  0.0533
  156DOPC  H11A18708   5.012   6.286  17.322 -1.9377  0.7674 -2.8646
  156DOPC  H11B18709   4.975   6.143  17.233  0.1406  0.1872 -0.1931
  156DOPC     P18710   4.754   6.352  17.258  0.3516  0.1604  0.3234
  156DOPC   O1318711   4.828   6.472  17.305 -0.0995 -0.2714  0.2774
  156DOPC   O1418712   4.607   6.342  17.276  0.5783 -0.0239 -0.1611
  156DOPC   O1218713   4.812   6.229  17.337  0.0625  0.5472 -0.5094
  156DOPC   O1118714   4.792   6.312  17.113  0.0509 -0.7928 -0.3299
  156DOPC    C118715   4.850   6.419  17.033 -0.3924  0.7192 -0.7527
  156DOPC    HA18716   4.950   6.448  17.072 -0.2996 -2.2318  1.5084
  156DOPC    HB18717   4.790   6.513  17.029  0.9478  1.5859 -1.2209
  156DOPC    C218718   4.876   6.366  16.895 -0.4801 -0.0658  0.7498
  156DOPC    HS18719   4.788   6.320  16.845  0.5119 -0.6100 -0.5273
  156DOPC   O2118720   4.988   6.274  16.907 -0.2247 -0.5191 -0.4358
  156DOPC   C2118721   5.005   6.181  16.820  0.4717  0.4001  0.4376
  156DOPC   O2218722   4.928   6.153  16.726 -0.0196  0.5452 -0.4584
  156DOPC   C2218723   5.138   6.103  16.833  0.2674 -0.9130  0.3709
  156DOPC   H2R18724   5.135   6.059  16.936 -0.4166  0.4457  0.9552
  156DOPC   H2S18725   5.212   6.185  16.847 -2.5439  1.6813  1.0257
  156DOPC    C318726   4.918   6.496  16.808 -0.3767  0.4138 -0.0512
  156DOPC    HX18727   4.999   6.541  16.869  0.4361 -1.1385  0.0880
  156DOPC    HY18728   4.832   6.565  16.795 -1.1933 -0.7540 -1.2063
  156DOPC   O3118729   4.983   6.450  16.682 -0.0280  0.5132  0.0309
  156DOPC   C3118730   4.898   6.418  16.593 -0.9418  0.2529 -0.0216
  156DOPC   O3218731   4.780   6.420  16.598  0.2479  0.0841  0.2915
  156DOPC   C3218732   4.963   6.363  16.471  0.3886 -0.2483 -0.7455
  156DOPC   H2X18733   5.065   6.332  16.502 -0.1948  0.9661  2.8990
  156DOPC   H2Y18734   4.897   6.276  16.453 -3.6188  2.0945  1.1121
  156DOPC   C2318735   5.156   6.000  16.716  0.2845  0.7599  0.1985
  156DOPC   H3R18736   5.070   5.931  16.705  2.3441 -1.7011 -1.7850
  156DOPC   H3S18737   5.240   5.935  16.748 -1.9359 -1.6211  1.5448
  156DOPC   C2418738   5.185   6.058  16.577 -0.0909  0.0058 -0.0449
  156DOPC   H4R18739   5.124   6.150  16.575  0.2060  0.3023  2.0965
  156DOPC   H4S18740   5.155   5.986  16.498 -1.9863 -0.2707  0.8820
  156DOPC   C2518741   5.328   6.098  16.552 -0.8647 -0.8583 -0.0224
  156DOPC   H5R18742   5.408   6.025  16.577  1.5270  1.5144 -0.3982
  156DOPC   H5S18743   5.352   6.183  16.619  0.1288  0.9672 -2.5791
  156DOPC   C2618744   5.347   6.147  16.409  0.6426 -0.0974  1.0358
  156DOPC   H6R18745   5.420   6.231  16.410 -0.7985  1.2051 -0.0680
  156DOPC   H6S18746   5.250   6.184  16.369 -0.2083 -3.2847 -0.1823
  156DOPC   C2718747   5.391   6.031  16.319  0.0377 -0.1253  0.0459
  156DOPC   H7R18748   5.331   5.942  16.350  0.8159 -1.1746 -1.3648
  156DOPC   H7S18749   5.495   6.007  16.349 -0.2811  0.6639  1.9361
  156DOPC   C2818750   5.368   6.059  16.171 -0.2076  0.5268  0.4379
  156DOPC   H8R18751   5.263   6.095  16.162 -0.3870 -0.0656  0.1361
  156DOPC   H8S18752   5.377   5.962  16.117  1.3733  0.6413  0.4576
  156DOPC   C2918753   5.450   6.172  16.118  0.3491  0.1264 -0.1209
  156DOPC   H9R18754   5.450   6.266  16.174 -0.7839  0.5403 -0.7732
  156DOPC  C21018755   5.517   6.166  15.999 -0.3210 -0.0277 -0.4200
  156DOPC  H10R18756   5.592   6.242  15.973 -0.1121 -1.0160 -3.0450
  156DOPC  C21118757   5.495   6.058  15.897  0.3648  0.1963 -0.1429
  156DOPC  H11R18758   5.406   5.997  15.922  0.1611  0.4944 -0.1294
  156DOPC  H11S18759   5.583   5.991  15.887 -0.4504 -0.7066 -1.7010
  156DOPC  C21218760   5.471   6.123  15.762 -0.5858  0.0294 -0.2628
  156DOPC  H12R18761   5.563   6.176  15.730  0.1017 -1.6890 -1.2860
  156DOPC  H12S18762   5.392   6.200  15.769  0.2983  0.8349  1.5151
  156DOPC  C21318763   5.446   6.026  15.641  0.2779 -0.2299 -0.5678
  156DOPC  H13R18764   5.409   5.928  15.679 -0.1380  0.0375 -0.2848
  156DOPC  H13S18765   5.541   6.008  15.587  0.7034  2.5179 -0.8784
  156DOPC  C21418766   5.363   6.079  15.520  0.1787  0.7980 -0.2186
  156DOPC  H14R18767   5.412   6.157  15.458  1.3712  1.1345  1.0987
  156DOPC  H14S18768   5.264   6.118  15.555  0.9181  1.5708  1.0973
  156DOPC  C21518769   5.329   5.960  15.422  0.6655  0.5817 -0.1443
  156DOPC  H15R18770   5.256   5.898  15.477  0.3804  0.6659 -0.4276
  156DOPC  H15S18771   5.420   5.898  15.402 -0.6386 -1.3603 -0.4065
  156DOPC  C21618772   5.267   5.998  15.294 -0.0506 -0.8070  0.7371
  156DOPC  H16R18773   5.162   6.030  15.311  0.6385  0.1493  4.0065
  156DOPC  H16S18774   5.266   5.909  15.228 -1.0073  0.6943 -1.3701
  156DOPC  C21718775   5.341   6.103  15.212 -0.0794 -0.1431  0.9685
  156DOPC  H17R18776   5.451   6.093  15.200 -0.3894  0.0495 -4.6046
  156DOPC  H17S18777   5.327   6.204  15.255  2.6088  0.1702  1.3047
  156DOPC  C21818778   5.286   6.121  15.069  0.3677  0.0026  0.4667
  156DOPC  H18R18779   5.186   6.165  15.089  0.9374  1.0610  1.1002
  156DOPC  H18S18780   5.275   6.020  15.025 -0.2817  0.1511  0.2653
  156DOPC  H18T18781   5.354   6.186  15.010  2.6412  1.0731  3.9939
  156DOPC   C3318782   4.960   6.463  16.350 -0.5435 -0.1369  0.2267
  156DOPC   H3X18783   5.044   6.535  16.363 -1.2472  0.4083  1.9991
  156DOPC   H3Y18784   4.871   6.527  16.336 -1.4932 -1.6974 -1.2042
  156DOPC   C3418785   4.980   6.389  16.220 -0.0372 -0.7252 -0.3186
  156DOPC   H4X18786   4.897   6.328  16.177 -1.6465  1.6312 -0.7365
  156DOPC   H4Y18787   5.062   6.317  16.235  1.0701  0.2566 -1.4249
  156DOPC   C3518788   5.017   6.484  16.102  0.0290 -0.6072  0.9691
  156DOPC   H5X18789   5.105   6.548  16.120  0.3132 -0.7144  0.0302
  156DOPC   H5Y18790   4.933   6.557  16.102  1.6177  1.3301  2.0685
  156DOPC   C3618791   5.029   6.412  15.969  0.3148  0.5178  0.4547
  156DOPC   H6X18792   5.121   6.350  15.975  0.0480  0.1382  0.6582
  156DOPC   H6Y18793   4.942   6.343  15.961  0.1004  0.7159  1.0742
  156DOPC   C3718794   5.014   6.497  15.840  0.2299 -0.1376  0.0913
  156DOPC   H7X18795   4.921   6.555  15.859  1.1396  1.6750 -0.7776
  156DOPC   H7Y18796   5.097   6.568  15.821  0.2940 -0.4419 -0.8287
  156DOPC   C3818797   4.985   6.420  15.708  0.3467  0.1904 -0.3586
  156DOPC   H8X18798   4.941   6.489  15.634 -0.0560  0.0134 -0.2838
  156DOPC   H8Y18799   4.915   6.339  15.737  2.7392 -1.7923  0.2466
  156DOPC   C3918800   5.110   6.358  15.653 -0.2030  0.4067 -0.4627
  156DOPC   H9X18801   5.165   6.293  15.723 -0.0211  0.2077 -0.7868
  156DOPC  C31018802   5.164   6.378  15.532 -0.0470  0.3165 -0.2465
  156DOPC  H10X18803   5.248   6.313  15.502 -1.0786  0.2783 -3.3935
  156DOPC  C31118804   5.114   6.460  15.412 -0.4444 -0.3154 -0.6214
  156DOPC  H11X18805   5.146   6.565  15.429  1.4201 -0.9583  0.1060
  156DOPC  H11Y18806   5.003   6.459  15.421 -0.4763  0.5545 -0.8981
  156DOPC  C31218807   5.154   6.422  15.267 -0.1316 -0.2931 -0.3662
  156DOPC  H12X18808   5.131   6.317  15.239  0.4248  0.0265 -2.1244
  156DOPC  H12Y18809   5.265   6.416  15.257 -0.1471 -1.1291 -0.0656
  156DOPC  C31318810   5.086   6.499  15.151  0.3893 -0.1761 -0.4298
  156DOPC  H13X18811   5.084   6.605  15.184 -0.2362  0.1728 -1.5323
  156DOPC  H13Y18812   5.137   6.484  15.053  2.0543  0.4022  0.3183
  156DOPC  C31418813   4.931   6.455  15.139 -0.9056 -0.1807  0.6227
  156DOPC  H14X18814   4.934   6.344  15.132 -0.2959 -0.0577 -1.9980
  156DOPC  H14Y18815   4.869   6.486  15.226 -1.7347  0.9219 -0.3259
  156DOPC  C31518816   4.867   6.523  15.016  0.3743  0.3059  0.1128
  156DOPC  H15X18817   4.771   6.471  14.993  0.0179  1.7631 -2.0203
  156DOPC  H15Y18818   4.936   6.513  14.929  0.2121 -0.1298  0.0302
  156DOPC  C31618819   4.825   6.675  15.044  0.1738  0.5922  0.7261
  156DOPC  H16X18820   4.743   6.666  15.118  0.1057 -3.0004  0.3864
  156DOPC  H16Y18821   4.907   6.738  15.087 -0.5240  1.4198  0.8774
  156DOPC  C31718822   4.773   6.730  14.910 -0.3356  0.2837  0.1828
  156DOPC  H17X18823   4.861   6.760  14.849  0.2535 -0.9601  0.3835
  156DOPC  H17Y18824   4.723   6.647  14.856 -0.0293  0.8462 -0.9889
  156DOPC  C31818825   4.670   6.844  14.923 -0.9868  0.3734  0.4064
  156DOPC  H18X18826   4.720   6.938  14.955  0.7462 -0.1774 -0.5571
  156DOPC  H18Y18827   4.616   6.854  14.827 -0.3317  0.8655  0.0826
  156DOPC  H18Z18828   4.597   6.811  15.001 -0.3188 -2.3654 -0.0085
  157DOPC     N18829   5.894   2.082  17.514  0.2485  0.7412  0.2570
  157DOPC   C1218830   5.746   2.114  17.474 -0.2174 -0.0136 -0.0612
  157DOPC  H12A18831   5.733   2.216  17.442 -1.8434 -0.5097 -1.0755
  157DOPC  H12B18832   5.685   2.095  17.562 -1.4863 -0.4104 -1.0053
  157DOPC   C1318833   5.899   1.942  17.568  0.9135  0.0305 -0.2996
  157DOPC  H13A18834   5.831   1.926  17.651 -0.6434  0.0416 -1.5096
  157DOPC  H13B18835   5.861   1.879  17.488 -1.6736  0.3657  0.5557
  157DOPC  H13C18836   6.003   1.920  17.585  0.8371  0.1041  0.2944
  157DOPC   C1418837   5.949   2.164  17.626 -0.6708  0.1241  0.0628
  157DOPC  H14A18838   5.912   2.130  17.722  1.4093  0.6043  1.1043
  157DOPC  H14B18839   6.057   2.156  17.632 -0.6777  0.5113  0.9172
  157DOPC  H14C18840   5.933   2.269  17.608 -3.2282  0.1004  1.7381
  157DOPC   C1518841   5.983   2.098  17.391 -0.1510 -0.2591 -0.1154
  157DOPC  H15A18842   6.085   2.065  17.403  0.2500  1.0103  0.0953
  157DOPC  H15B18843   5.980   2.197  17.349 -1.7332 -0.7361 -1.1963
  157DOPC  H15C18844   5.942   2.035  17.314  1.8788 -1.7852 -0.0530
  157DOPC   C1118845   5.693   2.026  17.360  0.7894  0.3340  0.0364
  157DOPC  H11A18846   5.600   2.073  17.323  1.0821  1.3311  0.5378
  157DOPC  H11B18847   5.743   2.032  17.261 -3.2018 -1.0625 -2.3215
  157DOPC     P18848   5.530   1.856  17.470 -0.0855  0.1181  0.3522
  157DOPC   O1318849   5.466   1.977  17.528 -0.3568 -0.1980 -0.0787
  157DOPC   O1418850   5.552   1.749  17.564 -0.0546 -0.1722  0.6626
  157DOPC   O1218851   5.666   1.896  17.406 -0.0027 -0.3678 -0.3277
  157DOPC   O1118852   5.442   1.803  17.346  0.2037 -0.4616 -0.5917
  157DOPC    C118853   5.377   1.875  17.247  0.7313  0.0086 -0.4009
  157DOPC    HA18854   5.369   1.980  17.282  0.4109  0.0042 -0.4561
  157DOPC    HB18855   5.271   1.845  17.234  0.6937  0.7564 -2.0499
  157DOPC    C218856   5.448   1.880  17.114  0.0470  0.9313 -0.9367
  157DOPC    HS18857   5.548   1.926  17.131 -0.0117  1.0999 -1.0482
  157DOPC   O2118858   5.357   1.946  17.024 -0.2471 -0.1809  0.2810
  157DOPC   C2118859   5.380   2.073  17.020  0.3642 -0.6569 -0.5492
  157DOPC   O2218860   5.462   2.140  17.081 -0.2343  0.0446  0.1943
  157DOPC   C2218861   5.280   2.145  16.918 -0.3751 -0.1214 -0.6862
  157DOPC   H2R18862   5.220   2.214  16.980  0.3255 -0.5403  0.4955
  157DOPC   H2S18863   5.214   2.071  16.868 -1.2493  1.8873 -2.6653
  157DOPC    C318864   5.468   1.737  17.062  0.1427 -0.2034 -0.5986
  157DOPC    HX18865   5.372   1.682  17.045 -0.3865  0.9508 -1.4878
  157DOPC    HY18866   5.537   1.685  17.132 -0.2399 -2.6155 -1.8970
  157DOPC   O3118867   5.532   1.736  16.934  0.4870 -0.0213  0.1537
  157DOPC   C3118868   5.622   1.640  16.896  0.4398  0.2200 -0.1011
  157DOPC   O3218869   5.649   1.546  16.958 -0.5373  0.4117 -0.0925
  157DOPC   C3218870   5.678   1.669  16.749 -0.2407  0.0026 -0.1456
  157DOPC   H2X18871   5.578   1.668  16.700 -0.9052 -0.2660  1.1735
  157DOPC   H2Y18872   5.716   1.773  16.746 -1.2455  0.3796 -2.7102
  157DOPC   C2318873   5.353   2.202  16.795  0.0064 -0.3256  0.5001
  157DOPC   H3R18874   5.446   2.255  16.823  0.2951 -0.2625 -0.5235
  157DOPC   H3S18875   5.278   2.265  16.743 -2.2509 -0.8743  2.8721
  157DOPC   C2418876   5.388   2.087  16.697  0.5940  0.7788 -0.5825
  157DOPC   H4R18877   5.295   2.029  16.680  0.0806  1.2878  0.3901
  157DOPC   H4S18878   5.463   2.022  16.747 -0.8732  0.2461  1.0260
  157DOPC   C2518879   5.456   2.130  16.562 -0.0331  0.3220  0.0191
  157DOPC   H5R18880   5.566   2.120  16.578 -0.3137 -2.8680  0.8433
  157DOPC   H5S18881   5.427   2.234  16.537 -1.0418  0.0645  0.1027
  157DOPC   C2618882   5.420   2.029  16.447 -0.0403  0.5840 -0.4109
  157DOPC   H6R18883   5.310   2.029  16.432  0.0238 -0.7042 -0.9783
  157DOPC   H6S18884   5.461   1.932  16.482  1.7471  1.9748  1.6409
  157DOPC   C2718885   5.483   2.080  16.312  0.2703  0.1884 -0.2464
  157DOPC   H7R18886   5.593   2.078  16.326  0.0650  0.7311  1.8498
  157DOPC   H7S18887   5.450   2.183  16.287 -0.0104 -0.2913 -1.9842
  157DOPC   C2818888   5.450   1.987  16.190 -0.0784 -0.1707  0.0096
  157DOPC   H8R18889   5.340   1.980  16.180 -0.0781  0.0326 -0.1381
  157DOPC   H8S18890   5.465   1.879  16.214  0.9726 -0.5109 -1.9723
  157DOPC   C2918891   5.528   2.021  16.067 -0.1794  0.1580 -0.4440
  157DOPC   H9R18892   5.634   2.046  16.081  0.1796 -0.5308 -1.7444
  157DOPC  C21018893   5.471   2.033  15.945  0.4039  1.0036 -0.2163
  157DOPC  H10R18894   5.537   2.041  15.857  0.0287  0.2396 -0.5693
  157DOPC  C21118895   5.328   1.987  15.909  0.4230 -0.2126 -0.4620
  157DOPC  H11R18896   5.267   2.079  15.895  0.2419  0.1394  2.1452
  157DOPC  H11S18897   5.273   1.918  15.976 -1.6111 -0.5790 -2.3682
  157DOPC  C21218898   5.321   1.925  15.765 -0.0741  0.4086 -0.0713
  157DOPC  H12R18899   5.217   1.890  15.747 -0.5858  1.1290  1.3543
  157DOPC  H12S18900   5.401   1.848  15.763  0.4025  0.8990 -1.5358
  157DOPC  C21318901   5.356   2.035  15.664 -0.7583  0.5879 -0.6386
  157DOPC  H13R18902   5.454   2.082  15.687 -0.3742 -0.5037  0.0105
  157DOPC  H13S18903   5.285   2.121  15.669 -1.7708 -0.3079  1.1475
  157DOPC  C21418904   5.367   1.993  15.517  0.1828  0.0396 -0.2399
  157DOPC  H14R18905   5.441   1.911  15.506 -0.7247 -0.8375  0.0620
  157DOPC  H14S18906   5.394   2.078  15.451 -2.4813  0.5887 -0.7755
  157DOPC  C21518907   5.234   1.954  15.463  0.4390  0.5055  0.4731
  157DOPC  H15R18908   5.157   2.033  15.472 -1.4851 -1.1171 -0.8802
  157DOPC  H15S18909   5.189   1.869  15.519 -0.7557  0.1222 -0.9981
  157DOPC  C21618910   5.257   1.916  15.313 -0.2916 -0.0410 -0.0503
  157DOPC  H16R18911   5.342   1.846  15.322 -0.5470 -0.2276  1.0742
  157DOPC  H16S18912   5.276   1.992  15.234  1.0862  0.9273  1.1661
  157DOPC  C21718913   5.139   1.831  15.264 -0.1068 -0.5033 -0.8372
  157DOPC  H17R18914   5.053   1.902  15.265  1.2223  1.2085  0.9672
  157DOPC  H17S18915   5.117   1.746  15.333  0.2186 -2.7488 -3.3399
  157DOPC  C21818916   5.162   1.769  15.126  0.5924 -0.3572 -0.1701
  157DOPC  H18R18917   5.151   1.836  15.038  3.3992 -1.1390 -1.2234
  157DOPC  H18S18918   5.102   1.677  15.110  0.3682 -0.0297 -1.3217
  157DOPC  H18T18919   5.270   1.749  15.110  0.7051  0.2753 -0.2208
  157DOPC   C3318920   5.782   1.569  16.695  0.2737  0.1131 -0.0373
  157DOPC   H3X18921   5.729   1.473  16.677  1.3057 -1.1573  3.0617
  157DOPC   H3Y18922   5.861   1.542  16.768  0.0079 -0.3581  0.0824
  157DOPC   C3418923   5.840   1.624  16.564  0.8118  0.0288 -0.2152
  157DOPC   H4X18924   5.921   1.560  16.524  1.6338  0.5018  0.6500
  157DOPC   H4Y18925   5.871   1.726  16.595  1.6026  0.2989 -1.7708
  157DOPC   C3518926   5.729   1.612  16.449 -0.1936 -0.4639  0.2135
  157DOPC   H5X18927   5.645   1.678  16.476 -0.4588 -0.4897 -0.5405
  157DOPC   H5Y18928   5.707   1.503  16.442  2.6965 -1.0062 -2.9041
  157DOPC   C3618929   5.790   1.656  16.311  0.2855 -0.6054 -0.1428
  157DOPC   H6X18930   5.839   1.755  16.318  1.4547 -1.2158  0.5732
  157DOPC   H6Y18931   5.886   1.601  16.311  0.2759 -0.7932  2.8095
  157DOPC   C3718932   5.702   1.635  16.180  0.2705 -0.0720 -0.4234
  157DOPC   H7X18933   5.670   1.529  16.177  0.5228 -0.1577 -0.1555
  157DOPC   H7Y18934   5.606   1.689  16.186 -0.2253 -0.9871  0.0711
  157DOPC   C3818935   5.780   1.665  16.052 -0.7207 -0.1155  0.1903
  157DOPC   H8X18936   5.880   1.618  16.051  0.0614  1.4634  0.4121
  157DOPC   H8Y18937   5.812   1.770  16.068 -2.5755  0.6400 -0.6889
  157DOPC   C3918938   5.697   1.661  15.928 -0.0798  0.7700  0.1568
  157DOPC   H9X18939   5.626   1.744  15.910 -0.3040  0.1426 -2.2973
  157DOPC  C31018940   5.714   1.574  15.829 -0.4032 -0.9737 -0.0612
  157DOPC  H10X18941   5.645   1.570  15.743 -1.9814  0.9274  1.0298
  157DOPC  C31118942   5.827   1.465  15.837 -0.2630 -0.5137 -0.1038
  157DOPC  H11X18943   5.825   1.410  15.934  2.1477 -2.8345 -1.2133
  157DOPC  H11Y18944   5.927   1.511  15.823 -0.2908 -0.9361 -1.9278
  157DOPC  C31218945   5.823   1.354  15.729  0.1445 -0.4492 -0.4796
  157DOPC  H12X18946   5.717   1.354  15.697  0.3744 -0.0744 -1.2683
  157DOPC  H12Y18947   5.856   1.255  15.767 -1.0000 -0.9944 -0.8882
  157DOPC  C31318948   5.906   1.381  15.605  0.3881 -0.4180 -0.5584
  157DOPC  H13X18949   5.882   1.479  15.558 -1.1895 -1.1275 -1.3329
  157DOPC  H13Y18950   6.013   1.378  15.633 -0.2113 -1.5740  1.8467
  157DOPC  C31418951   5.872   1.276  15.498 -0.0232  0.2333  0.5482
  157DOPC  H14X18952   5.883   1.176  15.545 -1.4666 -0.4157 -0.4168
  157DOPC  H14Y18953   5.766   1.287  15.467 -0.5919  0.9528  2.5936
  157DOPC  C31518954   5.969   1.290  15.374  0.4613  0.2785 -0.1572
  157DOPC  H15X18955   5.934   1.386  15.329 -2.7504 -0.3209  0.8153
  157DOPC  H15Y18956   5.939   1.211  15.302 -0.2904  1.1238 -0.7993
  157DOPC  C31618957   6.117   1.277  15.401  0.7147 -0.3041 -0.4564
  157DOPC  H16X18958   6.145   1.368  15.458 -0.6644 -0.1007 -0.0665
  157DOPC  H16Y18959   6.139   1.194  15.471 -0.4530 -1.7758 -1.7576
  157DOPC  C31718960   6.195   1.272  15.275  0.2844  0.4329 -0.0154
  157DOPC  H17X18961   6.160   1.186  15.215 -2.2341  0.7805  0.8376
  157DOPC  H17Y18962   6.164   1.363  15.218 -0.9968 -0.6213 -1.0482
  157DOPC  C31818963   6.344   1.274  15.282 -0.0649 -0.1027 -0.4509
  157DOPC  H18X18964   6.366   1.179  15.334 -1.1226 -0.4420 -0.6061
  157DOPC  H18Y18965   6.398   1.273  15.184  1.9020 -0.1066  0.5801
  157DOPC  H18Z18966   6.390   1.360  15.336  2.3508 -1.2159 -0.5740
  158DOPC     N18967   3.103   0.854  17.703 -0.0142 -0.3688  0.7234
  158DOPC   C1218968   3.171   0.849  17.561  0.1898  0.1079  0.7267
  158DOPC  H12A18969   3.181   0.747  17.526 -2.8484 -0.8250  2.2441
  158DOPC  H12B18970   3.275   0.877  17.571  0.5794  0.3438 -2.7203
  158DOPC   C1318971   3.174   0.764  17.796  0.2375  0.1927  0.1919
  158DOPC  H13A18972   3.281   0.775  17.797  0.2007  0.7645 -0.7790
  158DOPC  H13B18973   3.140   0.784  17.897 -1.6805 -0.5507 -0.2631
  158DOPC  H13C18974   3.149   0.660  17.781  0.2469  0.3306 -0.8682
  158DOPC   C1418975   2.951   0.836  17.707 -0.7927  0.1997  0.3540
  158DOPC  H14A18976   2.935   0.729  17.709 -0.8071  0.1804 -0.4149
  158DOPC  H14B18977   2.907   0.897  17.785  0.3464  1.2741  0.1864
  158DOPC  H14C18978   2.907   0.850  17.609  0.1569 -2.3276 -0.5133
  158DOPC   C1518979   3.127   0.990  17.759  0.2748 -0.5579  0.4001
  158DOPC  H15A18980   3.219   1.038  17.731 -1.7730  2.2369 -2.1466
  158DOPC  H15B18981   3.120   0.981  17.867 -1.2146 -1.2958  0.2686
  158DOPC  H15C18982   3.057   1.067  17.733  0.6191 -0.4589 -0.2403
  158DOPC   C1118983   3.111   0.932  17.453  0.8904 -0.1719 -0.4817
  158DOPC  H11A18984   3.089   1.036  17.484  0.6736 -0.3589 -0.0077
  158DOPC  H11B18985   3.185   0.936  17.369  1.9947  2.6667  0.4929
  158DOPC     P18986   2.920   0.946  17.273  0.0417 -0.3137  0.0978
  158DOPC   O1318987   2.829   1.051  17.312 -0.0830 -0.7089 -0.1408
  158DOPC   O1418988   2.861   0.835  17.193  0.5085 -0.3050  0.0928
  158DOPC   O1218989   2.990   0.877  17.396 -0.6257 -0.7160  0.1125
  158DOPC   O1118990   3.031   1.008  17.187 -0.8070  0.5128 -0.4126
  158DOPC    C118991   3.056   1.153  17.177  0.9025 -0.5689 -0.2475
  158DOPC    HA18992   3.164   1.177  17.181  0.4773  1.5618 -0.3551
  158DOPC    HB18993   3.008   1.210  17.260  1.9114 -0.6217  0.3990
  158DOPC    C218994   3.003   1.216  17.046  0.0887  0.2240 -0.1007
  158DOPC    HS18995   2.893   1.205  17.038 -0.1988  0.6380  2.5564
  158DOPC   O2118996   3.078   1.165  16.932  0.0040  0.1983 -0.7330
  158DOPC   C2118997   3.006   1.145  16.822 -0.1401 -0.2948 -0.2996
  158DOPC   O2218998   2.884   1.165  16.811 -0.1142  0.1458  0.3642
  158DOPC   C2218999   3.105   1.081  16.716  0.2108 -0.4212  0.4459
  158DOPC   H2R19000   3.172   1.001  16.757  0.7053 -0.5679 -0.5940
  158DOPC   H2S19001   3.165   1.171  16.692 -1.4258  0.5049 -0.2505
  158DOPC    C319002   3.019   1.367  17.039  0.2935 -0.5303  0.2828
  158DOPC    HX19003   3.125   1.381  17.010  0.6861 -1.9687  0.9609
  158DOPC    HY19004   3.000   1.415  17.137 -0.9180 -1.9815  0.7884
  158DOPC   O3119005   2.953   1.429  16.925 -0.1604 -0.3497  0.4119
  158DOPC   C3119006   2.836   1.476  16.937 -0.1778  0.0340 -0.1537
  158DOPC   O3219007   2.761   1.456  17.031 -0.0681  0.3743  0.1937
  158DOPC   C3219008   2.791   1.548  16.812 -0.2359  0.3671  0.2961
  158DOPC   H2X19009   2.681   1.540  16.820 -0.1567  0.7148  2.0458
  158DOPC   H2Y19010   2.816   1.656  16.822 -0.9880  0.6093 -0.3337
  158DOPC   C2319011   3.030   1.039  16.590  0.3154  0.2418  0.0687
  158DOPC   H3R19012   2.969   1.112  16.533  1.8901  0.8331 -0.9206
  158DOPC   H3S19013   2.962   0.958  16.623  2.9302 -1.3505  1.9379
  158DOPC   C2419014   3.122   0.974  16.484  0.2492  0.2092 -0.0967
  158DOPC   H4R19015   3.165   0.887  16.539 -1.4321 -0.3635  0.3779
  158DOPC   H4S19016   3.206   1.046  16.469  2.1478 -1.5350  1.4493
  158DOPC   C2519017   3.051   0.939  16.349 -0.3776 -0.6984 -0.3409
  158DOPC   H5R19018   2.949   0.895  16.355 -0.2885 -0.6660  3.1157
  158DOPC   H5S19019   3.119   0.869  16.296  0.1780  0.5532 -1.3280
  158DOPC   C2619020   3.041   1.059  16.253  0.1790  0.1916 -0.0625
  158DOPC   H6R19021   3.138   1.108  16.229 -0.5540  1.6606 -0.1154
  158DOPC   H6S19022   2.983   1.125  16.321 -0.6998 -1.3593  0.7414
  158DOPC   C2719023   2.958   1.038  16.125 -0.7873  0.0313 -0.2056
  158DOPC   H7R19024   2.926   1.131  16.073  2.1390  0.7505 -0.9116
  158DOPC   H7S19025   2.863   0.983  16.145 -1.0914  0.8721  0.7433
  158DOPC   C2819026   3.034   0.950  16.024 -0.3803 -0.3608  0.4907
  158DOPC   H8R19027   2.959   0.913  15.951  0.9424 -1.1969 -0.4819
  158DOPC   H8S19028   3.074   0.856  16.068  2.3288 -0.0727 -1.1244
  158DOPC   C2919029   3.142   1.020  15.948 -0.0447 -0.6525  0.1612
  158DOPC   H9R19030   3.236   1.033  16.004 -0.5287  0.0926  0.8261
  158DOPC  C21019031   3.137   1.078  15.828  0.5132  0.4062  0.1826
  158DOPC  H10R19032   3.231   1.117  15.786 -0.1699 -0.8028 -2.7601
  158DOPC  C21119033   3.026   1.081  15.732 -0.3134 -0.2733  0.1315
  158DOPC  H11R19034   2.991   1.187  15.730  1.6863  0.4425  0.3237
  158DOPC  H11S19035   2.951   1.008  15.768  1.7318 -1.3209  2.5859
  158DOPC  C21219036   3.058   1.041  15.586 -0.5596 -0.0280 -0.5853
  158DOPC  H12R19037   3.097   0.937  15.585 -3.3908 -1.1519 -0.8961
  158DOPC  H12S19038   3.140   1.110  15.554  0.0125 -0.1462  0.5708
  158DOPC  C21319039   2.950   1.043  15.487  0.0065  0.3284  0.7024
  158DOPC  H13R19040   2.914   1.148  15.478 -1.2960 -0.0806  0.9408
  158DOPC  H13S19041   2.865   0.980  15.519 -0.3426 -0.5577 -1.7733
  158DOPC  C21419042   2.997   1.001  15.348 -0.1995  0.6092  0.0699
  158DOPC  H14R19043   3.025   0.894  15.333  0.3447  0.9211 -1.3270
  158DOPC  H14S19044   3.086   1.061  15.319  1.7414 -2.0413  0.0758
  158DOPC  C21519045   2.895   1.029  15.242 -0.1804 -0.1589 -0.1253
  158DOPC  H15R19046   2.942   1.003  15.145  2.0230  1.1438  0.5125
  158DOPC  H15S19047   2.880   1.139  15.247  1.9268  0.2053 -0.5798
  158DOPC  C21619048   2.766   0.952  15.260 -0.5040 -1.2412 -0.0239
  158DOPC  H16R19049   2.709   0.975  15.167  0.1369  0.6805  0.0188
  158DOPC  H16S19050   2.714   0.994  15.348 -0.7885  0.6781 -1.0453
  158DOPC  C21719051   2.783   0.800  15.284 -0.6741  0.1270 -0.0779
  158DOPC  H17R19052   2.843   0.786  15.376 -0.5320  1.7603  0.1196
  158DOPC  H17S19053   2.839   0.757  15.198 -1.1076  2.8176 -1.8406
  158DOPC  C21819054   2.648   0.727  15.298  0.6765 -0.3862 -0.8504
  158DOPC  H18R19055   2.601   0.716  15.198 -1.0076  1.7403 -0.3534
  158DOPC  H18S19056   2.584   0.788  15.365  0.9515 -0.5998 -0.3873
  158DOPC  H18T19057   2.666   0.625  15.339  1.7205  0.6212  1.3188
  158DOPC   C3319058   2.851   1.493  16.678  0.4243  0.8452  0.2743
  158DOPC   H3X19059   2.835   1.386  16.654 -0.3858  1.0857 -0.2966
  158DOPC   H3Y19060   2.960   1.515  16.687  0.3812  0.9661  0.5412
  158DOPC   C3419061   2.800   1.568  16.550  0.1041  0.3627  0.6299
  158DOPC   H4X19062   2.805   1.678  16.561  1.1992  0.3249  0.6979
  158DOPC   H4Y19063   2.699   1.530  16.526  1.0647 -1.1266 -1.4378
  158DOPC   C3519064   2.878   1.525  16.422 -0.1821 -0.2054  0.1008
  158DOPC   H5X19065   2.882   1.415  16.410 -0.5873 -0.8795  4.3879
  158DOPC   H5Y19066   2.984   1.558  16.425  0.8008 -3.1432  1.2339
  158DOPC   C3619067   2.823   1.603  16.304  0.0318 -1.0224  0.4490
  158DOPC   H6X19068   2.713   1.587  16.304  0.0713 -1.5483 -1.7009
  158DOPC   H6Y19069   2.841   1.711  16.325 -1.4146 -0.9485  1.4659
  158DOPC   C3719070   2.887   1.581  16.162  0.2156  0.1522  0.4133
  158DOPC   H7X19071   2.838   1.649  16.089  1.9975  0.6384 -0.3849
  158DOPC   H7Y19072   2.997   1.591  16.170  0.4367 -1.7100  0.0388
  158DOPC   C3819073   2.852   1.440  16.121 -0.3056 -0.3903 -1.0346
  158DOPC   H8X19074   2.745   1.409  16.127 -0.7836  1.3250  0.4600
  158DOPC   H8Y19075   2.908   1.376  16.193 -0.0047 -2.7348 -3.2247
  158DOPC   C3919076   2.906   1.398  15.992  0.8818  0.5281  0.0852
  158DOPC   H9X19077   3.009   1.362  15.982  0.7690  0.6438 -2.1045
  158DOPC  C31019078   2.852   1.433  15.870 -0.4027 -0.5379 -0.2477
  158DOPC  H10X19079   2.877   1.380  15.777 -1.9997 -0.8634 -0.5252
  158DOPC  C31119080   2.735   1.538  15.850  0.2044  0.5313 -0.5104
  158DOPC  H11X19081   2.681   1.551  15.946 -0.3209 -1.2071 -0.5254
  158DOPC  H11Y19082   2.665   1.489  15.779  0.0752 -0.2138  0.1153
  158DOPC  C31219083   2.774   1.680  15.798  0.2392  0.0348 -0.2111
  158DOPC  H12X19084   2.844   1.736  15.864 -0.9208 -0.1386  1.2098
  158DOPC  H12Y19085   2.682   1.741  15.792  0.5889  0.5774 -0.0799
  158DOPC  C31319086   2.826   1.678  15.651 -0.2168 -0.6732  0.1757
  158DOPC  H13X19087   2.873   1.776  15.633 -1.9725  0.0944 -0.4244
  158DOPC  H13Y19088   2.898   1.594  15.643  0.8494  0.2126  0.3018
  158DOPC  C31419089   2.717   1.657  15.544 -0.8568  0.2653  0.1028
  158DOPC  H14X19090   2.653   1.574  15.579 -2.5451  1.7678  0.6981
  158DOPC  H14Y19091   2.647   1.740  15.522 -2.9118 -1.2498  0.7255
  158DOPC  C31519092   2.783   1.623  15.408 -0.4248  0.3727 -0.2507
  158DOPC  H15X19093   2.760   1.515  15.395  0.1509 -0.0395  1.8543
  158DOPC  H15Y19094   2.893   1.620  15.423 -0.3959  3.0946  0.5489
  158DOPC  C31619095   2.742   1.722  15.302 -0.0613  0.4439  0.5432
  158DOPC  H16X19096   2.634   1.745  15.312 -0.0695  0.3202  0.7546
  158DOPC  H16Y19097   2.795   1.819  15.315  2.6632 -0.6523 -1.5212
  158DOPC  C31719098   2.755   1.668  15.157  0.8213  0.3814  0.3644
  158DOPC  H17X19099   2.702   1.572  15.147 -1.0586  1.4157  0.0207
  158DOPC  H17Y19100   2.712   1.739  15.083 -1.7970  0.0454  1.4927
  158DOPC  C31819101   2.907   1.641  15.122 -0.0303 -0.1536 -0.5308
  158DOPC  H18X19102   2.971   1.728  15.097  0.1638  0.0284  0.5227
  158DOPC  H18Y19103   2.947   1.581  15.207 -0.5942 -0.5752 -0.5537
  158DOPC  H18Z19104   2.918   1.566  15.040  0.9354 -0.7138  0.0887
  159DOPC     N19105   5.381   2.399  17.435  0.1818 -0.3564 -0.2293
  159DOPC   C1219106   5.478   2.464  17.335  0.2594  0.3498  0.4029
  159DOPC  H12A19107   5.498   2.567  17.360 -1.7672  0.8517  0.1557
  159DOPC  H12B19108   5.426   2.474  17.241 -2.9800  1.5861  2.1618
  159DOPC   C1319109   5.385   2.248  17.437  0.2806  0.2614 -0.5477
  159DOPC  H13A19110   5.302   2.208  17.493  0.2992  2.5353  1.2696
  159DOPC  H13B19111   5.374   2.205  17.339 -0.9124 -1.9291  0.4784
  159DOPC  H13C19112   5.475   2.201  17.472  0.3827 -1.7340 -3.2171
  159DOPC   C1419113   5.237   2.442  17.407 -0.4662 -0.5304 -0.7297
  159DOPC  H14A19114   5.229   2.549  17.392 -2.0661 -0.6454 -0.8771
  159DOPC  H14B19115   5.207   2.394  17.316  0.1698 -2.6302  0.1037
  159DOPC  H14C19116   5.168   2.423  17.488  2.5026  2.7982  3.0738
  159DOPC   C1519117   5.423   2.446  17.574  0.6087  0.2861 -0.3582
  159DOPC  H15A19118   5.400   2.550  17.589 -0.6483  0.1117 -0.9492
  159DOPC  H15B19119   5.531   2.438  17.578  0.6946  1.3528 -0.3332
  159DOPC  H15C19120   5.375   2.383  17.648  0.6707  0.2245 -0.3701
  159DOPC   C1119121   5.618   2.405  17.307  0.3178  0.2005  0.1104
  159DOPC  H11A19122   5.613   2.298  17.278 -0.8982  0.4112 -0.5199
  159DOPC  H11B19123   5.666   2.456  17.220  1.5072 -2.3082 -0.7824
  159DOPC     P19124   5.760   2.548  17.470  0.0789 -0.2359 -0.3128
  159DOPC   O1319125   5.836   2.528  17.598  0.3411 -0.1038  0.2803
  159DOPC   O1419126   5.663   2.662  17.462 -0.3969 -0.1851 -0.0293
  159DOPC   O1219127   5.679   2.418  17.434  0.0228  0.4860  0.5105
  159DOPC   O1119128   5.864   2.561  17.355 -0.7517 -0.3781 -0.5736
  159DOPC    C119129   5.983   2.492  17.336 -0.5588  0.0204  0.4499
  159DOPC    HA19130   5.975   2.387  17.370 -2.4588  0.0022  0.0393
  159DOPC    HB19131   6.062   2.517  17.410  0.7347 -1.1296 -0.4924
  159DOPC    C219132   6.015   2.499  17.187 -0.3075 -0.4287 -0.8550
  159DOPC    HS19133   6.057   2.600  17.166  0.5068 -0.3582  0.9926
  159DOPC   O2119134   5.893   2.475  17.106 -0.1049 -0.1193 -0.1404
  159DOPC   C2119135   5.845   2.354  17.095 -0.9010  0.2752  0.1925
  159DOPC   O2219136   5.882   2.255  17.159 -0.7620  0.5136  0.2945
  159DOPC   C2219137   5.740   2.351  16.983 -0.1535 -0.3697 -0.2150
  159DOPC   H2R19138   5.635   2.346  17.020 -0.1330  1.6199  0.2364
  159DOPC   H2S19139   5.762   2.264  16.917 -1.0595  0.3006 -1.4338
  159DOPC    C319140   6.128   2.406  17.156  0.1161 -0.3776  0.0508
  159DOPC    HX19141   6.101   2.303  17.190  1.1129 -1.6088 -2.5646
  159DOPC    HY19142   6.220   2.434  17.212  1.3323 -2.4225 -0.7947
  159DOPC   O3119143   6.161   2.395  17.017  0.4324 -0.3751  0.2128
  159DOPC   C3119144   6.200   2.506  16.960  0.1025 -0.3973 -0.4256
  159DOPC   O3219145   6.225   2.612  17.014  0.5397 -0.0524  0.5280
  159DOPC   C3219146   6.191   2.489  16.808  0.0068  0.3500 -0.1450
  159DOPC   H2X19147   6.290   2.448  16.777 -0.4198 -1.5318  0.8458
  159DOPC   H2Y19148   6.111   2.415  16.785  0.0734 -0.1769  1.2147
  159DOPC   C2319149   5.735   2.473  16.883  0.3984 -0.3079 -0.1859
  159DOPC   H3R19150   5.830   2.530  16.888 -1.4602  2.9486  2.1568
  159DOPC   H3S19151   5.643   2.532  16.903  0.0155 -0.6316 -0.9826
  159DOPC   C2419152   5.734   2.431  16.738 -0.1894  0.2982  0.5219
  159DOPC   H4R19153   5.654   2.357  16.720 -2.3350  2.2973  1.2764
  159DOPC   H4S19154   5.832   2.389  16.707 -1.4115 -1.7859 -0.7257
  159DOPC   C2519155   5.735   2.555  16.645 -0.5472 -0.1481  0.3908
  159DOPC   H5R19156   5.834   2.606  16.653 -0.7588  0.3831 -0.2684
  159DOPC   H5S19157   5.669   2.631  16.692 -0.3215  1.0904 -1.2048
  159DOPC   C2619158   5.692   2.533  16.495  0.0734 -0.5639 -1.2935
  159DOPC   H6R19159   5.707   2.633  16.448 -2.0709  0.8939  0.7888
  159DOPC   H6S19160   5.582   2.518  16.494 -0.3112  1.8149 -1.5140
  159DOPC   C2719161   5.781   2.438  16.425 -0.3708 -0.2212  0.5636
  159DOPC   H7R19162   5.760   2.336  16.463 -0.6224  0.3045  1.8528
  159DOPC   H7S19163   5.889   2.463  16.435  0.3900 -2.7729 -0.3447
  159DOPC   C2819164   5.754   2.434  16.274  0.1505 -0.0112  0.2748
  159DOPC   H8R19165   5.807   2.343  16.237 -0.4010 -0.9657  1.7249
  159DOPC   H8S19166   5.811   2.518  16.230  1.0731 -1.4379 -1.3845
  159DOPC   C2919167   5.605   2.413  16.238 -0.0369 -0.1358 -0.4829
  159DOPC   H9R19168   5.552   2.353  16.313 -0.3397 -2.0377 -2.1117
  159DOPC  C21019169   5.540   2.452  16.120  0.1237 -0.0323  0.3533
  159DOPC  H10R19170   5.442   2.406  16.098 -0.3789  0.1995  2.0209
  159DOPC  C21119171   5.584   2.533  16.007  0.1548  0.6320  0.0384
  159DOPC  H11R19172   5.628   2.630  16.039 -0.1680  0.8704 -0.2296
  159DOPC  H11S19173   5.488   2.559  15.957  0.4757  0.8012 -0.5042
  159DOPC  C21219174   5.682   2.461  15.908  0.5598  0.3409  0.4318
  159DOPC  H12R19175   5.645   2.357  15.893 -2.6299  1.5707 -1.1907
  159DOPC  H12S19176   5.779   2.466  15.961  1.3304  0.0893 -0.9288
  159DOPC  C21319177   5.686   2.544  15.774  0.3241 -0.3178  0.1777
  159DOPC  H13R19178   5.740   2.638  15.798  1.2043 -1.1054  1.4239
  159DOPC  H13S19179   5.586   2.578  15.742 -0.3738 -1.9155  0.5432
  159DOPC  C21419180   5.754   2.476  15.652  0.4340 -0.0687 -0.2613
  159DOPC  H14R19181   5.862   2.467  15.673  0.2307  0.2878  1.0349
  159DOPC  H14S19182   5.752   2.538  15.560 -0.8858 -0.5619 -0.5878
  159DOPC  C21519183   5.687   2.338  15.616 -0.2323 -0.0747  0.0544
  159DOPC  H15R19184   5.680   2.275  15.707  1.1026 -0.2934  0.0255
  159DOPC  H15S19185   5.754   2.286  15.545 -0.4766  1.6429 -1.5023
  159DOPC  C21619186   5.555   2.354  15.551 -0.4287 -0.3941 -0.2401
  159DOPC  H16R19187   5.493   2.424  15.609  0.5044  0.3169 -0.0720
  159DOPC  H16S19188   5.489   2.265  15.551 -1.6201  0.4724 -0.7317
  159DOPC  C21719189   5.569   2.391  15.398 -0.3640  0.3022  0.9456
  159DOPC  H17R19190   5.627   2.311  15.348 -1.5911 -0.7427  1.1700
  159DOPC  H17S19191   5.638   2.479  15.389  0.7607 -0.7579 -1.9549
  159DOPC  C21819192   5.440   2.410  15.322 -0.0005 -0.0496 -0.7146
  159DOPC  H18R19193   5.373   2.482  15.373  0.7534  1.3920 -1.6921
  159DOPC  H18S19194   5.389   2.312  15.314  1.1017 -0.6730 -0.3155
  159DOPC  H18T19195   5.463   2.452  15.222 -0.8114  0.4952 -0.6803
  159DOPC   C3319196   6.154   2.619  16.736  0.5388  0.2420  0.5224
  159DOPC   H3X19197   6.245   2.682  16.744  1.6834 -1.1136 -1.0350
  159DOPC   H3Y19198   6.064   2.662  16.784 -0.7062 -1.9062  0.2534
  159DOPC   C3419199   6.124   2.614  16.582  0.0266  0.4489 -0.1080
  159DOPC   H4X19200   6.127   2.718  16.545  2.9664  0.2964 -0.5372
  159DOPC   H4Y19201   6.019   2.585  16.559 -0.2680  0.6716  0.9046
  159DOPC   C3519202   6.213   2.521  16.507 -0.4236 -0.5344 -0.7384
  159DOPC   H5X19203   6.209   2.418  16.551 -0.5695  0.1370  0.8873
  159DOPC   H5Y19204   6.318   2.555  16.522 -1.0013  1.4232 -0.9688
  159DOPC   C3619205   6.184   2.503  16.358  0.1246  0.3523 -0.3925
  159DOPC   H6X19206   6.076   2.484  16.337  0.1927  0.2969 -0.6961
  159DOPC   H6Y19207   6.207   2.599  16.307  0.8920 -2.1373 -5.3826
  159DOPC   C3719208   6.289   2.416  16.283  0.3658 -0.4729 -0.0303
  159DOPC   H7X19209   6.385   2.443  16.330  0.5688  1.3501 -1.3868
  159DOPC   H7Y19210   6.268   2.307  16.293  0.7266 -0.5347  0.0618
  159DOPC   C3819211   6.302   2.439  16.134  0.1438 -0.0114 -0.5186
  159DOPC   H8X19212   6.204   2.412  16.089  0.0636 -1.9750  0.7318
  159DOPC   H8Y19213   6.373   2.362  16.098 -1.0773 -0.3667 -2.3447
  159DOPC   C3919214   6.338   2.581  16.091 -0.1308  0.1840  0.0900
  159DOPC   H9X19215   6.412   2.623  16.160  1.2350 -0.4978 -0.9079
  159DOPC  C31019216   6.289   2.660  15.995  0.4529 -0.0323 -1.1805
  159DOPC  H10X19217   6.345   2.754  15.980 -0.1826  1.0184  2.1776
  159DOPC  C31119218   6.192   2.619  15.888  0.1576 -0.1217  0.4915
  159DOPC  H11X19219   6.088   2.646  15.916 -1.4577 -2.4395 -2.5076
  159DOPC  H11Y19220   6.179   2.509  15.881 -0.0101 -0.0740 -0.0251
  159DOPC  C31219221   6.225   2.683  15.752  0.5367  0.3886  0.4819
  159DOPC  H12X19222   6.327   2.656  15.716 -0.0581 -0.4973 -0.6081
  159DOPC  H12Y19223   6.227   2.793  15.761 -0.6514  0.6124 -1.3766
  159DOPC  C31319224   6.115   2.643  15.644 -0.0600 -0.6249  0.1748
  159DOPC  H13X19225   6.123   2.533  15.637 -0.9128 -0.6079 -1.8775
  159DOPC  H13Y19226   6.016   2.677  15.680 -0.6276 -0.1018 -1.7678
  159DOPC  C31419227   6.151   2.693  15.503 -0.4478 -0.1791  0.0483
  159DOPC  H14X19228   6.138   2.804  15.504 -0.8063 -0.2137 -0.5183
  159DOPC  H14Y19229   6.259   2.671  15.485 -0.3804  0.1015  0.0969
  159DOPC  C31519230   6.065   2.637  15.389  0.1472 -0.4699  0.4829
  159DOPC  H15X19231   6.123   2.668  15.299 -0.5243  0.3737  0.3331
  159DOPC  H15Y19232   5.967   2.689  15.389 -0.7828 -2.1581 -0.5395
  159DOPC  C31619233   6.032   2.497  15.385  0.4150  0.7290  0.2516
  159DOPC  H16X19234   6.131   2.450  15.366  0.6359  1.7019 -1.1181
  159DOPC  H16Y19235   5.998   2.463  15.485  1.9290 -2.9757 -0.3441
  159DOPC  C31719236   5.933   2.449  15.273 -0.2071  0.2535  0.4402
  159DOPC  H17X19237   5.840   2.505  15.298 -1.4837 -1.6266  0.0697
  159DOPC  H17Y19238   5.961   2.486  15.172 -0.7832  2.1400  0.9281
  159DOPC  C31819239   5.914   2.302  15.276 -0.3489 -0.7893 -0.3748
  159DOPC  H18X19240   5.856   2.273  15.367 -0.4826 -2.8420 -1.0523
  159DOPC  H18Y19241   5.851   2.284  15.186 -0.3339  0.7983 -0.7290
  159DOPC  H18Z19242   6.003   2.239  15.255 -1.1515 -2.0603 -0.1253
  160DOPC     N19243   1.395   6.581  17.762  0.2281 -0.7691  0.1603
  160DOPC   C1219244   1.358   6.555  17.615  0.4732  0.2944 -0.4445
  160DOPC  H12A19245   1.274   6.486  17.613  1.7351 -1.3097 -0.2845
  160DOPC  H12B19246   1.441   6.508  17.564  0.1241  1.2803 -1.9893
  160DOPC   C1319247   1.280   6.653  17.822  0.2894 -0.2089 -0.3001
  160DOPC  H13A19248   1.252   6.747  17.776  0.1525 -0.5070 -0.8286
  160DOPC  H13B19249   1.187   6.600  17.837 -1.5584  2.4573 -1.5065
  160DOPC  H13C19250   1.317   6.682  17.920  2.0071 -0.7151 -0.7670
  160DOPC   C1419251   1.513   6.683  17.766  0.2413  0.1301 -0.1573
  160DOPC  H14A19252   1.516   6.740  17.858  0.0880 -0.1657  0.0322
  160DOPC  H14B19253   1.606   6.630  17.751 -1.3007 -2.7940 -0.0819
  160DOPC  H14C19254   1.502   6.758  17.689 -0.8254  3.5635  3.0739
  160DOPC   C1519255   1.430   6.458  17.838  0.7950 -0.9425 -0.0130
  160DOPC  H15A19256   1.523   6.410  17.812  1.2417  0.3225 -0.8991
  160DOPC  H15B19257   1.339   6.399  17.840 -0.1361  0.3496 -1.7583
  160DOPC  H15C19258   1.450   6.482  17.942  0.2150  1.8426 -0.4480
  160DOPC   C1119259   1.315   6.677  17.528  0.4698 -0.0661  0.4295
  160DOPC  H11A19260   1.280   6.634  17.432 -0.2816  0.1448  0.5959
  160DOPC  H11B19261   1.226   6.722  17.579 -2.1313 -2.7263 -1.4403
  160DOPC     P19262   1.408   6.906  17.475  0.2807  0.0753 -0.1943
  160DOPC   O1319263   1.537   6.969  17.485 -0.3320 -0.4074  1.0539
  160DOPC   O1419264   1.295   6.959  17.561  0.1345 -0.1898 -0.5403
  160DOPC   O1219265   1.428   6.764  17.516  0.0241 -0.3572  0.1110
  160DOPC   O1119266   1.359   6.892  17.324  0.1860 -0.0559  0.7616
  160DOPC    C119267   1.458   6.838  17.237  0.5772 -0.5717  0.7658
  160DOPC    HA19268   1.494   6.736  17.262  0.2260 -0.8103  0.2865
  160DOPC    HB19269   1.544   6.906  17.219  0.0825 -0.4722 -1.5055
  160DOPC    C219270   1.383   6.805  17.101 -1.3787  0.1357  0.0864
  160DOPC    HS19271   1.454   6.748  17.038 -0.4747 -0.1879  1.3669
  160DOPC   O2119272   1.339   6.925  17.038 -0.0489 -0.0571  0.2212
  160DOPC   C2119273   1.429   7.008  16.984  0.2727 -0.5580  0.3369
  160DOPC   O2219274   1.547   6.982  16.979  0.3344  0.4149 -0.0381
  160DOPC   C2219275   1.379   7.132  16.919 -0.4053 -0.4642  0.4829
  160DOPC   H2R19276   1.465   7.200  16.900  0.0814 -1.2064  0.0219
  160DOPC   H2S19277   1.308   7.179  16.991  1.4802 -1.4352  3.0935
  160DOPC    C319278   1.255   6.708  17.119 -0.0314 -0.7158  0.5508
  160DOPC    HX19279   1.171   6.761  17.167 -1.4053  0.7016 -3.0533
  160DOPC    HY19280   1.294   6.622  17.177 -0.9820 -0.7944  1.0904
  160DOPC   O3119281   1.211   6.653  16.989 -0.5677 -0.1887  0.4335
  160DOPC   C3119282   1.112   6.719  16.920  0.1468 -0.1110 -0.3975
  160DOPC   O3219283   1.047   6.809  16.967  0.0766 -0.3785  0.0924
  160DOPC   C3219284   1.110   6.667  16.776  0.1553 -1.0950 -0.6915
  160DOPC   H2X19285   1.217   6.674  16.747  0.7667  0.1505  1.5864
  160DOPC   H2Y19286   1.078   6.561  16.779  1.2105 -1.4474 -1.2861
  160DOPC   C2319287   1.304   7.106  16.789  0.1193 -0.4234  0.5129
  160DOPC   H3R19288   1.263   7.199  16.744 -0.0991 -0.0777  1.3868
  160DOPC   H3S19289   1.220   7.033  16.801 -0.5261  0.2286  0.0557
  160DOPC   C2419290   1.395   7.037  16.682  0.4902  0.4447 -0.3575
  160DOPC   H4R19291   1.427   6.936  16.715  0.9751  0.5558 -0.4859
  160DOPC   H4S19292   1.487   7.099  16.675  0.5155  0.8563  2.4524
  160DOPC   C2519293   1.307   7.042  16.553  0.0373  0.3187  0.5902
  160DOPC   H5R19294   1.253   7.139  16.541  0.2328  0.2218 -1.3997
  160DOPC   H5S19295   1.236   6.956  16.550  2.5145 -1.8459  1.0501
  160DOPC   C2619296   1.392   7.027  16.429 -0.4972 -0.2437 -0.3373
  160DOPC   H6R19297   1.420   6.921  16.413 -2.1642 -0.8706  0.6354
  160DOPC   H6S19298   1.484   7.090  16.429 -0.1527 -0.7383 -0.6953
  160DOPC   C2719299   1.312   7.069  16.307  0.0820 -0.1919  0.1290
  160DOPC   H7R19300   1.284   7.176  16.298 -1.5209 -0.6157 -0.1797
  160DOPC   H7S19301   1.219   7.009  16.312  0.4575 -0.8378 -0.4418
  160DOPC   C2819302   1.384   7.039  16.175 -0.8336  0.4865  0.4356
  160DOPC   H8R19303   1.311   7.041  16.091 -1.7483 -2.3474  1.0343
  160DOPC   H8S19304   1.411   6.931  16.179 -0.5095  0.4652 -1.3193
  160DOPC   C2919305   1.510   7.119  16.146 -0.1492 -0.1816 -0.6118
  160DOPC   H9R19306   1.532   7.184  16.232 -0.5969  0.2995 -0.8554
  160DOPC  C21019307   1.589   7.121  16.030  0.6792 -0.3108 -0.7394
  160DOPC  H10R19308   1.662   7.200  16.005  0.9260 -0.4474 -0.4493
  160DOPC  C21119309   1.558   7.032  15.919  0.0780  0.4519  0.4013
  160DOPC  H11R19310   1.494   6.945  15.946  0.1721  0.0858 -0.5267
  160DOPC  H11S19311   1.649   6.986  15.874 -1.5204 -3.0530  0.3923
  160DOPC  C21219312   1.478   7.109  15.814 -0.0792 -0.9441  0.1847
  160DOPC  H12R19313   1.393   7.156  15.867  1.7276  2.3346  0.4184
  160DOPC  H12S19314   1.430   7.030  15.753  0.2952 -1.7261  0.8798
  160DOPC  C21319315   1.559   7.210  15.735  0.3477 -0.2273  0.1217
  160DOPC  H13R19316   1.669   7.193  15.732  0.1943 -1.1119 -1.4134
  160DOPC  H13S19317   1.540   7.314  15.771  1.1648  0.3761 -1.1247
  160DOPC  C21419318   1.505   7.220  15.584  0.3249 -0.6781 -0.1438
  160DOPC  H14R19319   1.394   7.221  15.583  0.2997 -0.8231 -2.3763
  160DOPC  H14S19320   1.536   7.129  15.528 -0.7823 -1.3199  0.2435
  160DOPC  C21519321   1.560   7.343  15.503 -0.0716 -0.1088 -1.3061
  160DOPC  H15R19322   1.669   7.340  15.481  0.4325  0.1784  0.9689
  160DOPC  H15S19323   1.537   7.435  15.561 -1.2564 -0.8029 -0.6343
  160DOPC  C21619324   1.494   7.353  15.358  0.0624  0.0764  0.0236
  160DOPC  H16R19325   1.534   7.446  15.312 -0.8330  1.1002  1.2221
  160DOPC  H16S19326   1.388   7.371  15.385  0.2715  0.6258  0.5115
  160DOPC  C21719327   1.488   7.216  15.291  0.1580 -1.0117 -0.1338
  160DOPC  H17R19328   1.407   7.154  15.333 -1.5395  0.4848 -1.0646
  160DOPC  H17S19329   1.585   7.163  15.302  0.6124  0.0569  1.2929
  160DOPC  C21819330   1.454   7.231  15.145  0.4069 -0.9893  0.3555
  160DOPC  H18R19331   1.359   7.287  15.133 -0.0121 -1.3409  1.7591
  160DOPC  H18S19332   1.420   7.131  15.108 -1.9279 -0.3220  0.4944
  160DOPC  H18T19333   1.534   7.279  15.086  0.3719  0.2396  1.2624
  160DOPC   C3319334   1.021   6.758  16.687  0.6036  0.1764  0.6986
  160DOPC   H3X19335   1.049   6.865  16.695  1.5557  0.0120 -0.1715
  160DOPC   H3Y19336   0.917   6.738  16.721 -0.2599  1.1217 -1.2243
  160DOPC   C3419337   1.038   6.720  16.546  1.0762  0.2726 -0.1126
  160DOPC   H4X19338   0.993   6.618  16.541 -1.7392  1.4990 -2.9551
  160DOPC   H4Y19339   1.148   6.713  16.531  1.2763 -1.8811  1.7567
  160DOPC   C3519340   0.969   6.819  16.450 -1.2105  0.2454 -0.4000
  160DOPC   H5X19341   1.008   6.918  16.484 -3.7079  0.7735  1.1361
  160DOPC   H5Y19342   0.859   6.815  16.464 -1.2862  1.1096 -0.6951
  160DOPC   C3619343   1.005   6.779  16.309 -0.1932  0.5113  0.4631
  160DOPC   H6X19344   1.115   6.785  16.296  0.3512 -1.5721  3.0531
  160DOPC   H6Y19345   0.983   6.670  16.297  1.6095 -0.1917  2.6709
  160DOPC   C3719346   0.943   6.873  16.199 -0.2293  0.0382  0.1490
  160DOPC   H7X19347   0.836   6.883  16.225  0.0162 -1.0619  1.7350
  160DOPC   H7Y19348   0.996   6.970  16.208 -1.1313  0.7331 -1.5587
  160DOPC   C3819349   0.961   6.825  16.049  0.3626 -0.0858 -0.2065
  160DOPC   H8X19350   0.905   6.730  16.048  0.9112 -0.4065 -1.2929
  160DOPC   H8Y19351   1.066   6.807  16.018  0.0400  1.1355 -2.1699
  160DOPC   C3919352   0.883   6.921  15.956 -0.1925 -0.5658  0.0132
  160DOPC   H9X19353   0.775   6.905  15.939 -0.3984 -0.3770  1.1148
  160DOPC  C31019354   0.944   7.010  15.869  0.4170  0.7791 -0.0101
  160DOPC  H10X19355   0.878   7.081  15.818 -1.4488  0.0415  1.2740
  160DOPC  C31119356   1.091   7.039  15.858 -0.0253  0.3351 -0.3139
  160DOPC  H11X19357   1.134   6.949  15.808 -0.1945  0.5502 -0.8521
  160DOPC  H11Y19358   1.134   7.041  15.960  0.9058 -1.9638 -0.6107
  160DOPC  C31219359   1.125   7.162  15.776 -0.7514 -0.1956 -0.1728
  160DOPC  H12X19360   1.219   7.220  15.788 -0.8981  0.0122 -0.0123
  160DOPC  H12Y19361   1.049   7.239  15.801  1.8655  2.3016  0.6341
  160DOPC  C31319362   1.108   7.146  15.626 -0.0292 -0.9614  0.6871
  160DOPC  H13X19363   1.200   7.096  15.588  1.8527  1.2523  2.0418
  160DOPC  H13Y19364   1.022   7.078  15.608  0.3956 -1.2193 -0.4907
  160DOPC  C31419365   1.090   7.279  15.540  0.1818  0.3697 -0.0006
  160DOPC  H14X19366   1.015   7.343  15.590  0.9221  0.2950  1.2496
  160DOPC  H14Y19367   1.178   7.347  15.548  0.2601  0.3087 -0.2978
  160DOPC  C31519368   1.078   7.244  15.391  0.3056  0.1083  0.1179
  160DOPC  H15X19369   0.991   7.174  15.394  0.3655  0.0506  2.3210
  160DOPC  H15Y19370   1.165   7.190  15.348  0.6194  1.1068 -0.5184
  160DOPC  C31619371   1.047   7.356  15.302 -0.2616 -0.1661 -0.3991
  160DOPC  H16X19372   1.131   7.428  15.289 -1.3128  0.9495 -1.3625
  160DOPC  H16Y19373   1.035   7.320  15.197  0.1083  1.8293 -1.1768
  160DOPC  C31719374   0.920   7.435  15.339  0.0110  0.3465  0.4632
  160DOPC  H17X19375   0.840   7.360  15.323  1.3983 -0.8538 -1.3461
  160DOPC  H17Y19376   0.923   7.452  15.449 -1.4416  0.4851  0.4954
  160DOPC  C31819377   0.919   7.554  15.247  0.0787 -0.0116  0.3974
  160DOPC  H18X19378   0.830   7.619  15.253  1.3160  2.7549 -5.0430
  160DOPC  H18Y19379   1.004   7.624  15.260  1.8640 -1.3127 -2.9287
  160DOPC  H18Z19380   0.922   7.520  15.141  0.6664  0.2239  0.3339
  161DOPC     N19381   3.039   2.050  17.634 -1.2602 -0.3818  0.0450
  161DOPC   C1219382   2.897   2.069  17.584 -0.0473  0.1119  0.1265
  161DOPC  H12A19383   2.826   2.082  17.664 -0.6850 -1.3465 -0.1700
  161DOPC  H12B19384   2.868   1.979  17.532  0.5931  0.0759 -0.1813
  161DOPC   C1319385   3.096   2.170  17.711  0.1521  0.0857 -0.0831
  161DOPC  H13A19386   3.036   2.174  17.801 -1.6913  0.1807 -1.2628
  161DOPC  H13B19387   3.203   2.164  17.716  0.2981  1.7990 -0.6312
  161DOPC  H13C19388   3.074   2.257  17.650  1.0408  0.0813 -0.4174
  161DOPC   C1419389   3.133   2.015  17.528 -0.5397  0.4538 -0.6885
  161DOPC  H14A19390   3.233   2.008  17.568 -0.5399  0.5515 -0.6711
  161DOPC  H14B19391   3.114   1.914  17.496  1.3544 -0.9189  2.1296
  161DOPC  H14C19392   3.141   2.087  17.448 -2.0910  0.3004 -1.0240
  161DOPC   C1519393   3.040   1.945  17.736  0.0231  0.4582 -0.2645
  161DOPC  H15A19394   3.135   1.925  17.783  0.0290  0.5953 -0.2151
  161DOPC  H15B19395   3.015   1.847  17.698  1.9289  1.4259 -4.5155
  161DOPC  H15C19396   2.977   1.974  17.819 -0.9180  0.7501 -1.0646
  161DOPC   C1119397   2.863   2.194  17.501 -0.3835  0.5807 -0.3090
  161DOPC  H11A19398   2.933   2.189  17.415  0.8136 -0.2161  0.6844
  161DOPC  H11B19399   2.762   2.193  17.454  0.4706 -0.6638 -2.3073
  161DOPC     P19400   2.766   2.363  17.670 -0.0545 -0.2596  0.2040
  161DOPC   O1319401   2.815   2.484  17.735 -0.4885 -0.8765  0.4838
  161DOPC   O1419402   2.728   2.246  17.755 -0.0687 -0.3319  0.5566
  161DOPC   O1219403   2.883   2.316  17.571  0.4940  0.5047  0.0167
  161DOPC   O1119404   2.658   2.411  17.565  0.0202  0.4496  0.0562
  161DOPC    C119405   2.656   2.521  17.482  0.0064 -0.3656  0.5808
  161DOPC    HA19406   2.751   2.575  17.499  0.1037 -0.3614  0.0479
  161DOPC    HB19407   2.580   2.596  17.510  0.6591  0.2026  0.8550
  161DOPC    C219408   2.653   2.463  17.337 -0.3395 -0.7259 -0.3444
  161DOPC    HS19409   2.721   2.377  17.322 -0.4367 -0.7346 -0.7542
  161DOPC   O2119410   2.678   2.577  17.253  0.2357  0.2905  0.4968
  161DOPC   C2119411   2.808   2.608  17.237  0.2124  0.0290  0.3748
  161DOPC   O2219412   2.901   2.541  17.270 -0.2494  0.5734  0.6022
  161DOPC   C2219413   2.814   2.749  17.169  0.0619  0.6611  0.8604
  161DOPC   H2R19414   2.909   2.795  17.203  0.2074  1.1595 -0.1777
  161DOPC   H2S19415   2.735   2.823  17.196 -0.4097  0.9919 -1.2072
  161DOPC    C319416   2.513   2.422  17.307 -0.0445 -0.0245  0.3485
  161DOPC    HX19417   2.430   2.493  17.325 -1.3829 -1.4120 -0.0880
  161DOPC    HY19418   2.503   2.332  17.372  1.2488 -1.2049 -1.0102
  161DOPC   O3119419   2.509   2.380  17.174 -0.2801 -0.2272  0.4247
  161DOPC   C3119420   2.398   2.314  17.152  0.1459  0.3594  0.2298
  161DOPC   O3219421   2.294   2.329  17.214 -0.3310 -0.0967  0.4883
  161DOPC   C3219422   2.401   2.214  17.031  0.3293  0.3896 -0.4010
  161DOPC   H2X19423   2.484   2.241  16.962 -0.6072  0.2918 -1.5802
  161DOPC   H2Y19424   2.419   2.116  17.079 -0.8895 -0.1732 -1.0599
  161DOPC   C2319425   2.812   2.736  17.012  0.8668 -0.1622  0.0309
  161DOPC   H3R19426   2.895   2.664  16.994  1.8577  1.1249 -0.7026
  161DOPC   H3S19427   2.834   2.836  16.969 -0.9818  0.7945  1.1753
  161DOPC   C2419428   2.679   2.688  16.946 -0.7494  0.3499 -0.3871
  161DOPC   H4R19429   2.594   2.751  16.979 -0.6248  0.0963  0.4440
  161DOPC   H4S19430   2.664   2.590  16.996  0.4335  0.8693  1.0339
  161DOPC   C2519431   2.682   2.665  16.798  0.4412 -0.0938  0.2710
  161DOPC   H5R19432   2.775   2.605  16.783 -0.2627 -2.1377  3.0954
  161DOPC   H5S19433   2.694   2.756  16.737 -1.3230 -0.1605 -0.2276
  161DOPC   C2619434   2.558   2.586  16.753 -0.6265 -0.0642  0.3164
  161DOPC   H6R19435   2.461   2.634  16.778 -0.1210  0.4023  1.4747
  161DOPC   H6S19436   2.561   2.497  16.820 -1.2510  0.8672  1.6115
  161DOPC   C2719437   2.563   2.534  16.606 -0.3079 -0.4732 -0.6885
  161DOPC   H7R19438   2.652   2.474  16.580 -1.2683 -2.0458 -0.4640
  161DOPC   H7S19439   2.569   2.627  16.546  0.8295 -0.8207 -1.1488
  161DOPC   C2819440   2.428   2.456  16.575 -0.4157  0.4664 -0.1145
  161DOPC   H8R19441   2.340   2.521  16.553 -0.5663  0.3749  0.2219
  161DOPC   H8S19442   2.406   2.386  16.658  0.4586 -0.1851 -0.4231
  161DOPC   C2919443   2.444   2.377  16.446  0.0893  0.2761  0.8725
  161DOPC   H9R19444   2.472   2.273  16.468 -1.1813 -0.2381  0.1564
  161DOPC  C21019445   2.437   2.424  16.316 -0.5635 -0.1568 -0.7524
  161DOPC  H10R19446   2.465   2.354  16.236  0.6312  0.2244 -0.6792
  161DOPC  C21119447   2.399   2.565  16.268 -0.7098 -0.5282  0.5860
  161DOPC  H11R19448   2.359   2.623  16.354  2.7876  0.4372  1.7449
  161DOPC  H11S19449   2.313   2.559  16.198 -0.8550 -0.8995  0.7968
  161DOPC  C21219450   2.515   2.638  16.189  0.1332 -0.5738 -0.1191
  161DOPC  H12R19451   2.613   2.647  16.241 -0.9200  0.0391  1.8832
  161DOPC  H12S19452   2.481   2.738  16.155  0.2961  0.0226  1.3910
  161DOPC  C21319453   2.557   2.561  16.058 -0.3847  0.2487 -0.0781
  161DOPC  H13R19454   2.470   2.496  16.034 -0.6543  0.6944 -0.3206
  161DOPC  H13S19455   2.639   2.486  16.070 -0.5870  0.0654  0.1640
  161DOPC  C21419456   2.579   2.652  15.937 -0.2611 -0.3886 -0.7177
  161DOPC  H14R19457   2.678   2.701  15.947  0.4824 -1.9586  0.2068
  161DOPC  H14S19458   2.494   2.724  15.937 -0.2748 -0.3209 -3.5272
  161DOPC  C21519459   2.570   2.575  15.803 -0.1135 -0.8948  0.2575
  161DOPC  H15R19460   2.464   2.544  15.796  0.2011 -2.0787  0.5948
  161DOPC  H15S19461   2.623   2.478  15.807  0.0610 -0.7560  2.9164
  161DOPC  C21619462   2.611   2.650  15.681 -0.0158 -1.0024  0.7335
  161DOPC  H16R19463   2.656   2.582  15.605  0.8436  1.0806 -0.7322
  161DOPC  H16S19464   2.694   2.722  15.700 -0.8099  0.1355  0.0035
  161DOPC  C21719465   2.494   2.723  15.617  0.2123 -0.6016  0.3187
  161DOPC  H17R19466   2.443   2.782  15.696 -0.2899  1.5013 -1.4406
  161DOPC  H17S19467   2.422   2.646  15.582  0.6315 -0.5438 -0.7024
  161DOPC  C21819468   2.522   2.822  15.499  0.1004  0.3244 -0.0560
  161DOPC  H18R19469   2.586   2.902  15.544  1.2470 -1.3537  1.4132
  161DOPC  H18S19470   2.427   2.854  15.452  0.0459 -1.5057 -1.2865
  161DOPC  H18T19471   2.571   2.772  15.413  2.6919  3.0454 -0.3552
  161DOPC   C3319472   2.274   2.222  16.945  0.7413  0.7596  0.5413
  161DOPC   H3X19473   2.244   2.328  16.932 -0.1662  0.1967 -2.8468
  161DOPC   H3Y19474   2.188   2.185  17.005  1.4792  0.4313  1.4262
  161DOPC   C3419475   2.286   2.146  16.814 -0.2480  0.0256 -0.7318
  161DOPC   H4X19476   2.292   2.037  16.832 -0.9007  0.0676 -0.1980
  161DOPC   H4Y19477   2.374   2.174  16.753 -0.5386 -0.0283 -1.1786
  161DOPC   C3519478   2.159   2.146  16.724 -0.0933 -0.7955 -0.8084
  161DOPC   H5X19479   2.163   2.240  16.665  0.2297 -1.5120 -1.9676
  161DOPC   H5Y19480   2.069   2.153  16.788  0.6612  0.4142  0.1601
  161DOPC   C3619481   2.143   2.025  16.633  0.4430 -0.2116 -0.1766
  161DOPC   H6X19482   2.241   1.992  16.592  1.0439  1.1109  0.1248
  161DOPC   H6Y19483   2.086   1.943  16.680 -1.7129  1.1109 -0.3337
  161DOPC   C3719484   2.063   2.072  16.507 -0.7021  0.5370 -0.1896
  161DOPC   H7X19485   2.005   1.991  16.458  1.5201 -0.4596 -1.3371
  161DOPC   H7Y19486   1.982   2.139  16.542 -0.0124  1.1719  0.2023
  161DOPC   C3819487   2.150   2.141  16.401  0.2171  0.2602  0.0369
  161DOPC   H8X19488   2.225   2.206  16.450  2.5911 -1.0809 -1.6068
  161DOPC   H8Y19489   2.082   2.205  16.341  1.2943 -0.7440 -2.3688
  161DOPC   C3919490   2.225   2.034  16.327 -0.0070 -0.9409 -0.1845
  161DOPC   H9X19491   2.287   1.966  16.386  0.3548 -1.3394 -1.0029
  161DOPC  C31019492   2.212   2.020  16.198 -0.3052 -0.2591 -0.3170
  161DOPC  H10X19493   2.288   1.956  16.152  2.0551  1.1903  1.3573
  161DOPC  C31119494   2.117   2.093  16.105  0.1104 -0.6449  0.1437
  161DOPC  H11X19495   2.023   2.125  16.153  0.0803 -1.1335  0.4145
  161DOPC  H11Y19496   2.087   2.043  16.010  2.4336  0.9403 -1.5475
  161DOPC  C31219497   2.175   2.225  16.055 -0.1931  0.2143 -0.2483
  161DOPC  H12X19498   2.197   2.294  16.139  2.2124 -4.0101  2.9975
  161DOPC  H12Y19499   2.098   2.278  15.995 -0.6607  1.1323  1.1070
  161DOPC  C31319500   2.295   2.207  15.963 -0.2853 -0.4234 -0.4524
  161DOPC  H13X19501   2.383   2.200  16.031  1.1223  1.3850 -1.9530
  161DOPC  H13Y19502   2.289   2.107  15.915  0.6958  0.0375 -1.6181
  161DOPC  C31419503   2.313   2.319  15.858  0.1052 -0.1706  0.0068
  161DOPC  H14X19504   2.280   2.414  15.905 -2.2489 -0.5123 -0.8246
  161DOPC  H14Y19505   2.422   2.322  15.840  0.1942  0.1011  0.5914
  161DOPC  C31519506   2.240   2.286  15.730  0.0910  0.1721  0.4602
  161DOPC  H15X19507   2.135   2.256  15.754 -0.0644  0.6896  0.4286
  161DOPC  H15Y19508   2.294   2.200  15.685  1.0441  0.6910  0.6064
  161DOPC  C31619509   2.247   2.403  15.635  0.0182 -0.2457 -0.2837
  161DOPC  H16X19510   2.219   2.499  15.683 -0.4217  0.3399 -1.6634
  161DOPC  H16Y19511   2.349   2.433  15.603 -1.2545  2.6874 -2.0625
  161DOPC  C31719512   2.161   2.386  15.512 -0.2142  0.6812 -0.2408
  161DOPC  H17X19513   2.223   2.315  15.455 -1.8553  0.6469 -2.0743
  161DOPC  H17Y19514   2.065   2.342  15.546  0.2094  0.7483  1.1069
  161DOPC  C31819515   2.135   2.513  15.445  0.1242  0.0680  0.7384
  161DOPC  H18X19516   2.085   2.495  15.348  2.2212 -4.7324  0.2609
  161DOPC  H18Y19517   2.085   2.589  15.508 -0.0488  0.2980  0.3254
  161DOPC  H18Z19518   2.231   2.566  15.422  1.2281 -1.8090  0.8178
  162DOPC     N19519   0.610   6.063  17.394  0.0940  1.0454 -0.4364
  162DOPC   C1219520   0.562   6.180  17.475  0.7982  0.5508 -0.4687
  162DOPC  H12A19521   0.602   6.173  17.575 -0.5138  0.0641  0.0515
  162DOPC  H12B19522   0.457   6.179  17.502  1.1564  2.5280  1.2714
  162DOPC   C1319523   0.758   6.072  17.355 -0.5234  0.4763  0.1781
  162DOPC  H13A19524   0.770   6.174  17.322  0.0822  1.2018  2.4622
  162DOPC  H13B19525   0.828   6.054  17.435  2.4230 -0.6886 -2.4795
  162DOPC  H13C19526   0.772   5.999  17.277  0.8402  1.1878 -0.2650
  162DOPC   C1419527   0.530   6.046  17.268  0.3250 -0.1662 -0.4206
  162DOPC  H14A19528   0.554   6.132  17.207  1.3637 -0.2946 -0.2123
  162DOPC  H14B19529   0.547   5.951  17.220  0.2775  0.0378 -0.8457
  162DOPC  H14C19530   0.428   6.039  17.301 -0.0182 -0.4129 -1.4859
  162DOPC   C1519531   0.586   5.939  17.485  0.0979 -0.1254  0.7071
  162DOPC  H15A19532   0.605   5.849  17.428 -0.9412  0.1971 -0.1827
  162DOPC  H15B19533   0.480   5.936  17.505 -0.3455 -0.8693 -1.5062
  162DOPC  H15C19534   0.649   5.949  17.572  1.3580 -1.1897 -0.0523
  162DOPC   C1119535   0.577   6.322  17.416 -0.2612  0.2177  0.0213
  162DOPC  H11A19536   0.506   6.338  17.332  3.4172  3.8533 -2.7791
  162DOPC  H11B19537   0.539   6.390  17.495 -2.8558  1.6434 -2.2523
  162DOPC     P19538   0.821   6.416  17.472 -0.1719 -0.0187 -0.1404
  162DOPC   O1319539   0.916   6.309  17.514 -0.1414  0.2216  0.0038
  162DOPC   O1419540   0.758   6.494  17.578  0.5201  0.0423  0.1508
  162DOPC   O1219541   0.713   6.346  17.373  0.2543  0.5250 -0.3775
  162DOPC   O1119542   0.904   6.505  17.384 -1.1621 -0.0547  0.1060
  162DOPC    C119543   0.856   6.579  17.276  0.7256  0.0691  0.3050
  162DOPC    HA19544   0.932   6.651  17.238  0.7585 -1.1772 -2.2305
  162DOPC    HB19545   0.760   6.631  17.299 -0.2751 -1.2903 -0.6471
  162DOPC    C219546   0.842   6.504  17.143  0.1753 -0.2093  0.7922
  162DOPC    HS19547   0.780   6.413  17.141  0.5762 -0.4788 -0.0020
  162DOPC   O2119548   0.976   6.472  17.095 -0.0925  0.0593  0.1202
  162DOPC   C2119549   0.997   6.348  17.067  0.0770  1.1880 -0.0625
  162DOPC   O2219550   0.927   6.248  17.087  0.8954 -0.3019 -0.1367
  162DOPC   C2219551   1.136   6.336  16.996  0.9173  0.4122 -0.2913
  162DOPC   H2R19552   1.215   6.343  17.073  0.1138 -0.0611  0.5931
  162DOPC   H2S19553   1.151   6.429  16.938 -0.7738  0.4613 -0.7164
  162DOPC    C319554   0.776   6.594  17.032  0.2811  0.5043  0.2735
  162DOPC    HX19555   0.835   6.688  17.029  1.0937  0.0018  0.2072
  162DOPC    HY19556   0.673   6.623  17.063  0.6343  1.1227  0.9032
  162DOPC   O3119557   0.777   6.518  16.913 -0.3571  0.1670 -0.0870
  162DOPC   C3119558   0.661   6.490  16.860  0.9361 -0.1599  0.4606
  162DOPC   O3219559   0.552   6.541  16.891  0.2747  0.2819 -0.0774
  162DOPC   C3219560   0.673   6.400  16.731 -0.6227  0.2957  0.0703
  162DOPC   H2X19561   0.735   6.309  16.743 -1.5287 -0.3941 -0.3830
  162DOPC   H2Y19562   0.573   6.365  16.698 -0.0386  1.0222 -2.7221
  162DOPC   C2319563   1.166   6.221  16.895  0.5951  0.1795  0.3993
  162DOPC   H3R19564   1.125   6.127  16.938 -1.0547  0.4829 -0.4108
  162DOPC   H3S19565   1.274   6.200  16.879  0.6377  0.8154 -0.2060
  162DOPC   C2419566   1.105   6.240  16.751  0.5845 -0.7084 -0.4204
  162DOPC   H4R19567   1.001   6.277  16.763  1.3149  1.1957  0.5670
  162DOPC   H4S19568   1.089   6.142  16.703 -0.4508 -0.7597 -0.0030
  162DOPC   C2519569   1.191   6.329  16.659 -0.8060 -0.5744 -0.4043
  162DOPC   H5R19570   1.285   6.277  16.630  1.1050  1.3148  1.9063
  162DOPC   H5S19571   1.233   6.416  16.715 -1.1143  0.1716 -1.3076
  162DOPC   C2619572   1.121   6.375  16.528  0.5150  0.2156  0.5410
  162DOPC   H6R19573   1.155   6.474  16.492 -1.8747  1.1526  0.6288
  162DOPC   H6S19574   1.013   6.397  16.542  0.6004  0.2352  1.1934
  162DOPC   C2719575   1.153   6.270  16.412 -0.6297  0.3153  0.3171
  162DOPC   H7R19576   1.116   6.172  16.450  0.5186 -0.1008  0.3980
  162DOPC   H7S19577   1.262   6.253  16.408 -0.5762  0.5068  0.8617
  162DOPC   C2819578   1.085   6.299  16.283 -0.1898 -0.9230  0.2202
  162DOPC   H8R19579   1.127   6.396  16.247 -0.1384 -1.1451 -0.3173
  162DOPC   H8S19580   0.980   6.321  16.313  0.0086  0.4251 -0.0185
  162DOPC   C2919581   1.094   6.191  16.183 -0.3973  0.3348  0.0745
  162DOPC   H9R19582   1.084   6.095  16.236 -1.1503  0.2981 -0.1184
  162DOPC  C21019583   1.119   6.196  16.055 -0.0405 -0.4766  0.4090
  162DOPC  H10R19584   1.126   6.099  16.005 -1.3663  0.5964 -2.0508
  162DOPC  C21119585   1.139   6.323  15.971 -0.2199 -0.4722 -0.6564
  162DOPC  H11R19586   1.115   6.417  16.024 -1.7355 -1.6984  0.9397
  162DOPC  H11S19587   1.066   6.318  15.887 -1.7034  1.0615  0.4731
  162DOPC  C21219588   1.283   6.324  15.904  0.2279 -0.4636  0.2497
  162DOPC  H12R19589   1.303   6.238  15.837  2.0964 -2.1335  2.7625
  162DOPC  H12S19590   1.362   6.318  15.982 -1.4932  2.2818  2.4233
  162DOPC  C21319591   1.297   6.453  15.818  0.9207  0.0303 -0.1043
  162DOPC  H13R19592   1.403   6.458  15.786  0.7251  0.0603 -0.7534
  162DOPC  H13S19593   1.297   6.544  15.882 -2.9537  0.8149 -0.9641
  162DOPC  C21419594   1.203   6.458  15.697 -0.0119  0.2268 -0.1017
  162DOPC  H14R19595   1.096   6.466  15.725  0.5096  3.2623  1.3675
  162DOPC  H14S19596   1.222   6.361  15.645 -1.8865  0.3991 -1.2100
  162DOPC  C21519597   1.244   6.562  15.586  0.0362  0.4680  0.3880
  162DOPC  H15R19598   1.179   6.544  15.497 -0.3432 -0.5263  0.8487
  162DOPC  H15S19599   1.348   6.544  15.552  0.0475 -1.3533  1.2571
  162DOPC  C21619600   1.225   6.704  15.636 -0.0478 -0.7517  0.2695
  162DOPC  H16R19601   1.281   6.731  15.727  1.6645 -1.5298 -0.5150
  162DOPC  H16S19602   1.120   6.726  15.667 -0.5668 -0.4343 -1.5808
  162DOPC  C21719603   1.232   6.806  15.524  0.1791  0.0858  0.7445
  162DOPC  H17R19604   1.157   6.886  15.544 -1.4113 -1.1133 -0.1704
  162DOPC  H17S19605   1.203   6.757  15.428  0.6187  1.5136 -0.1503
  162DOPC  C21819606   1.368   6.868  15.508  0.0818 -0.3949 -0.3421
  162DOPC  H18R19607   1.399   6.930  15.596 -0.4906  1.4645 -1.4112
  162DOPC  H18S19608   1.365   6.938  15.422  0.8211 -0.6679 -0.5973
  162DOPC  H18T19609   1.452   6.795  15.510  2.1041  1.7050  3.3039
  162DOPC   C3319610   0.716   6.487  16.604 -0.2835 -0.2491  0.3419
  162DOPC   H3X19611   0.823   6.505  16.630 -0.6211  0.1992  1.4654
  162DOPC   H3Y19612   0.667   6.586  16.593  1.3061  0.5694  0.2351
  162DOPC   C3419613   0.710   6.401  16.474  0.8720  0.6068  0.3299
  162DOPC   H4X19614   0.603   6.373  16.469  0.8442  0.5844  0.9842
  162DOPC   H4Y19615   0.775   6.312  16.488  0.7197  0.4354 -0.0280
  162DOPC   C3519616   0.743   6.473  16.344  0.3991  0.2937 -0.1429
  162DOPC   H5X19617   0.846   6.513  16.361  0.4739  0.4710 -0.9708
  162DOPC   H5Y19618   0.679   6.564  16.340  0.1457  0.0733 -1.7614
  162DOPC   C3619619   0.719   6.390  16.216 -0.5064 -0.3491 -0.6685
  162DOPC   H6X19620   0.781   6.299  16.231 -1.3681 -0.7751  0.3904
  162DOPC   H6Y19621   0.613   6.363  16.201 -0.7462  0.1669  0.0183
  162DOPC   C3719622   0.778   6.451  16.090  0.2274  0.6450  1.2460
  162DOPC   H7X19623   0.729   6.543  16.052  0.8850 -0.2774 -2.1286
  162DOPC   H7Y19624   0.886   6.469  16.111  0.0892  1.5359  1.2385
  162DOPC   C3819625   0.761   6.354  15.969 -0.0077  0.8133  0.6382
  162DOPC   H8X19626   0.772   6.247  15.998  0.3874  0.1652 -1.7137
  162DOPC   H8Y19627   0.852   6.371  15.908  0.2164 -0.1609  0.6777
  162DOPC   C3919628   0.636   6.360  15.886  0.5491 -0.5049 -0.4623
  162DOPC   H9X19629   0.549   6.324  15.943 -0.7737  1.0305 -1.4020
  162DOPC  C31019630   0.619   6.423  15.762 -0.0251  0.0649 -0.3917
  162DOPC  H10X19631   0.520   6.433  15.716 -1.2236  1.0875  2.2257
  162DOPC  C31119632   0.732   6.492  15.684  0.6530  0.0610 -0.0266
  162DOPC  H11X19633   0.750   6.448  15.584  3.5282  0.3432  0.2856
  162DOPC  H11Y19634   0.828   6.472  15.736 -1.1986 -1.2662  3.1825
  162DOPC  C31219635   0.719   6.645  15.683 -0.8642 -0.3701 -0.4989
  162DOPC  H12X19636   0.722   6.686  15.786 -1.3869  0.2534 -0.7255
  162DOPC  H12Y19637   0.617   6.670  15.647 -2.2514 -0.3001  3.0472
  162DOPC  C31319638   0.817   6.714  15.595  0.3249 -0.7120  0.4428
  162DOPC  H13X19639   0.912   6.739  15.646 -0.5512  4.0992  0.2535
  162DOPC  H13Y19640   0.838   6.641  15.514 -1.1683 -1.7462  0.9511
  162DOPC  C31419641   0.774   6.852  15.533 -0.0498 -0.8122  0.0101
  162DOPC  H14X19642   0.671   6.840  15.494 -0.5182 -1.3038  1.3454
  162DOPC  H14Y19643   0.756   6.923  15.617  0.9633  0.5935 -0.9183
  162DOPC  C31519644   0.872   6.906  15.425  0.3213 -0.3744  0.2969
  162DOPC  H15X19645   0.972   6.915  15.472  1.3147  1.7521 -1.9756
  162DOPC  H15Y19646   0.849   7.010  15.391 -1.9309 -1.5913 -2.2812
  162DOPC  C31619647   0.883   6.816  15.297 -0.4749  0.0176  0.1665
  162DOPC  H16X19648   0.917   6.719  15.338 -0.4310  0.2634  0.7115
  162DOPC  H16Y19649   0.781   6.803  15.254 -1.4715  1.6222  1.9043
  162DOPC  C31719650   0.982   6.866  15.193  0.0792 -0.3077 -0.3564
  162DOPC  H17X19651   0.967   6.969  15.156  3.5783 -0.1495 -1.6279
  162DOPC  H17Y19652   1.088   6.860  15.226 -0.0459  0.0401  0.1166
  162DOPC  C31819653   0.989   6.795  15.057  0.3037  0.3901  0.1979
  162DOPC  H18X19654   1.024   6.691  15.074  2.6541  0.9246 -0.9641
  162DOPC  H18Y19655   0.888   6.801  15.012 -0.0783 -1.3158  0.7760
  162DOPC  H18Z19656   1.058   6.849  14.988  0.0174  0.3422 -0.1267
  163DOPC     N19657   6.596   4.245  17.890  0.2111  0.2813 -0.2109
  163DOPC   C1219658   6.609   4.388  17.918 -0.6422  0.2186  0.4993
  163DOPC  H12A19659   6.692   4.400  17.986  0.2764 -2.6029  0.0037
  163DOPC  H12B19660   6.520   4.422  17.970 -1.6010 -1.9256  0.3493
  163DOPC   C1319661   6.730   4.193  17.847 -0.2399  0.3233  0.8456
  163DOPC  H13A19662   6.790   4.190  17.937 -1.0414  3.0315  1.5659
  163DOPC  H13B19663   6.722   4.093  17.807 -0.7644 -0.7254  3.3494
  163DOPC  H13C19664   6.771   4.260  17.773  1.9518  0.9800  2.5387
  163DOPC   C1419665   6.497   4.228  17.772  0.2096 -0.0527 -0.4754
  163DOPC  H14A19666   6.471   4.124  17.757 -0.3078  0.1278 -0.8327
  163DOPC  H14B19667   6.405   4.274  17.805  0.0810  0.0411 -0.9623
  163DOPC  H14C19668   6.517   4.274  17.677  1.1210  1.2017  0.2962
  163DOPC   C1519669   6.546   4.170  18.008 -1.0535  0.3512 -0.0174
  163DOPC  H15A19670   6.466   4.234  18.042 -1.5514 -0.1991 -0.1410
  163DOPC  H15B19671   6.624   4.158  18.082 -0.3421 -1.5931 -0.9941
  163DOPC  H15C19672   6.512   4.072  17.976 -1.1515  1.3899 -3.4791
  163DOPC   C1119673   6.628   4.484  17.800  0.1027  0.5573  0.3510
  163DOPC  H11A19674   6.555   4.465  17.718 -0.4793  2.0559  0.4959
  163DOPC  H11B19675   6.598   4.581  17.844 -0.1445  0.0302  1.3627
  163DOPC     P19676   6.790   4.574  17.629 -0.2551 -0.2513  0.0440
  163DOPC   O1319677   6.909   4.664  17.651 -0.2739  0.3715 -0.4570
  163DOPC   O1419678   6.671   4.644  17.582  0.4141 -0.1562 -0.3988
  163DOPC   O1219679   6.753   4.490  17.749 -0.1411 -0.1875  0.2256
  163DOPC   O1119680   6.829   4.467  17.523  0.3165 -0.1774 -0.3361
  163DOPC    C119681   6.731   4.370  17.490 -0.0448  0.6031 -0.3159
  163DOPC    HA19682   6.629   4.415  17.490  0.6838  2.3871  0.7058
  163DOPC    HB19683   6.740   4.285  17.561  1.1105  1.0175  0.0552
  163DOPC    C219684   6.751   4.312  17.349 -0.1211  0.3192 -0.1046
  163DOPC    HS19685   6.666   4.247  17.320  2.0302 -1.6578 -2.4857
  163DOPC   O2119686   6.875   4.235  17.370 -0.0695  0.6327  0.2473
  163DOPC   C2119687   6.893   4.147  17.267  0.0053  0.1239  0.4793
  163DOPC   O2219688   6.807   4.099  17.197  1.0593  0.3302  0.1284
  163DOPC   C2219689   7.043   4.121  17.244 -0.2130 -0.6204  0.1741
  163DOPC   H2R19690   7.061   4.016  17.211 -0.7361  0.2889 -3.3134
  163DOPC   H2S19691   7.087   4.138  17.345 -0.1271  0.6334 -0.0649
  163DOPC    C319692   6.765   4.425  17.248  0.4232  0.0712 -0.5319
  163DOPC    HX19693   6.852   4.481  17.288  0.5493  0.2987 -1.1216
  163DOPC    HY19694   6.686   4.501  17.263  0.9519  0.1476  2.8110
  163DOPC   O3119695   6.783   4.377  17.117  0.0664  0.0775 -0.4282
  163DOPC   C3119696   6.673   4.329  17.058  0.2662 -0.2499  0.1095
  163DOPC   O3219697   6.559   4.315  17.106 -0.1358  0.3038  0.0683
  163DOPC   C3219698   6.703   4.281  16.917  0.4157  0.5045  0.6696
  163DOPC   H2X19699   6.789   4.335  16.870 -0.6926  0.5467 -1.4589
  163DOPC   H2Y19700   6.719   4.171  16.919 -1.1708  0.2684  1.7024
  163DOPC   C2319701   7.110   4.208  17.135 -0.0435  0.3557  0.7009
  163DOPC   H3R19702   7.217   4.195  17.159 -0.9409 -4.2852  3.3114
  163DOPC   H3S19703   7.080   4.315  17.134  0.1679  0.4402 -1.3563
  163DOPC   C2419704   7.076   4.150  16.997  0.0896 -0.0357 -0.0147
  163DOPC   H4R19705   6.969   4.148  16.970  0.5714  1.4628 -2.3319
  163DOPC   H4S19706   7.099   4.041  17.001 -4.4583 -1.2186 -1.1100
  163DOPC   C2519707   7.148   4.221  16.887 -1.0652  0.6570 -0.4901
  163DOPC   H5R19708   7.255   4.194  16.885 -1.1381  0.3220 -2.8635
  163DOPC   H5S19709   7.143   4.332  16.890 -0.6446  0.6674 -0.2270
  163DOPC   C2619710   7.104   4.192  16.742 -0.3915  0.1131 -0.0547
  163DOPC   H6R19711   6.998   4.222  16.724  0.4605  2.7299 -1.1621
  163DOPC   H6S19712   7.107   4.081  16.744 -1.5249  0.0625  2.3467
  163DOPC   C2719713   7.186   4.255  16.631  0.5133 -0.0317  0.0242
  163DOPC   H7R19714   7.289   4.221  16.657  0.6443  0.8454  0.7085
  163DOPC   H7S19715   7.186   4.365  16.652 -2.5869  0.1756 -0.5791
  163DOPC   C2819716   7.139   4.227  16.491 -0.3157 -0.2159  0.1199
  163DOPC   H8R19717   7.200   4.296  16.428  0.3644  0.7401  1.7498
  163DOPC   H8S19718   7.032   4.255  16.489 -0.0402  0.8530 -0.3300
  163DOPC   C2919719   7.165   4.089  16.448  0.7725  0.4250 -0.4542
  163DOPC   H9R19720   7.223   4.024  16.515 -0.0900 -1.2274 -1.2530
  163DOPC  C21019721   7.109   4.036  16.339  0.3775  0.4116  0.1502
  163DOPC  H10R19722   7.114   3.928  16.317  0.7632  0.1555  1.4058
  163DOPC  C21119723   7.019   4.109  16.243 -0.4380 -0.5154  0.7900
  163DOPC  H11R19724   7.041   4.218  16.248  0.6139 -0.6642 -0.0783
  163DOPC  H11S19725   6.912   4.089  16.264 -0.4931 -0.4060  0.6202
  163DOPC  C21219726   7.037   4.064  16.098  0.0429  0.4113 -0.5249
  163DOPC  H12R19727   6.988   4.142  16.038 -0.2572 -0.2959 -1.2126
  163DOPC  H12S19728   6.981   3.970  16.079 -0.1511 -0.0691  1.9897
  163DOPC  C21319729   7.180   4.073  16.053 -0.4730  0.3718 -0.2113
  163DOPC  H13R19730   7.238   3.996  16.109  2.1909  0.6284 -2.4309
  163DOPC  H13S19731   7.224   4.172  16.077 -1.4106  0.7009  0.2386
  163DOPC  C21419732   7.196   4.047  15.909  0.9370 -0.4892  1.2189
  163DOPC  H14R19733   7.134   4.114  15.846  0.2153 -2.2174  0.0157
  163DOPC  H14S19734   7.164   3.946  15.878 -1.7191  0.5519  0.3089
  163DOPC  C21519735   7.346   4.054  15.872  0.5050  0.5543  0.7874
  163DOPC  H15R19736   7.412   3.996  15.941  3.2895  0.0921 -2.0099
  163DOPC  H15S19737   7.374   4.161  15.876 -1.0148  0.9501  1.2642
  163DOPC  C21619738   7.364   4.008  15.722  0.2892 -0.2011 -0.4286
  163DOPC  H16R19739   7.293   4.070  15.663 -0.6250  1.1445  1.9393
  163DOPC  H16S19740   7.347   3.900  15.707  0.9338 -0.1564 -1.6236
  163DOPC  C21719741   7.509   4.027  15.672 -0.1092 -0.6631 -0.2820
  163DOPC  H17R19742   7.582   3.976  15.738 -0.2566 -1.5595 -0.8064
  163DOPC  H17S19743   7.526   4.137  15.681  0.2813 -0.6936 -0.6448
  163DOPC  C21819744   7.523   3.972  15.532 -0.4849  0.7381 -0.8054
  163DOPC  H18R19745   7.463   3.878  15.529 -2.8515  2.1390  0.1516
  163DOPC  H18S19746   7.629   3.946  15.512 -0.2346  1.6520 -0.7024
  163DOPC  H18T19747   7.488   4.047  15.458 -0.2116  0.1068 -1.5918
  163DOPC   C3319748   6.577   4.297  16.829 -0.1744  0.3307 -0.2795
  163DOPC   H3X19749   6.510   4.378  16.864  0.8318  0.4348  1.5452
  163DOPC   H3Y19750   6.509   4.210  16.840 -1.7705  1.3267 -1.8240
  163DOPC   C3419751   6.599   4.328  16.681 -0.0022  0.5421 -0.0459
  163DOPC   H4X19752   6.656   4.423  16.669 -0.0537  0.5544 -0.1883
  163DOPC   H4Y19753   6.501   4.334  16.629  0.1744 -3.9301 -1.2942
  163DOPC   C3519754   6.667   4.209  16.614 -0.0962  0.2407 -0.5128
  163DOPC   H5X19755   6.592   4.131  16.587 -1.0203  0.7994  0.3862
  163DOPC   H5Y19756   6.747   4.164  16.676 -0.2310 -1.3974 -1.4481
  163DOPC   C3619757   6.715   4.257  16.483 -1.0772  0.6562 -0.4650
  163DOPC   H6X19758   6.764   4.356  16.490  1.4292 -0.6315  1.9383
  163DOPC   H6Y19759   6.798   4.187  16.456 -1.6914 -0.7154  1.0387
  163DOPC   C3719760   6.621   4.261  16.359 -0.1732 -0.0713 -0.3713
  163DOPC   H7X19761   6.627   4.164  16.304  0.3060 -0.3905  0.2327
  163DOPC   H7Y19762   6.520   4.271  16.405  0.5817  0.0001  1.3526
  163DOPC   C3819763   6.655   4.376  16.264  0.6343  0.0618  0.6160
  163DOPC   H8X19764   6.759   4.366  16.224 -0.0081  1.0034 -1.4438
  163DOPC   H8Y19765   6.659   4.471  16.321  0.9962  0.5376 -0.1734
  163DOPC   C3919766   6.566   4.381  16.145 -0.3569  0.9922 -0.5466
  163DOPC   H9X19767   6.472   4.438  16.152 -1.5091 -0.9504  0.7096
  163DOPC  C31019768   6.578   4.322  16.027  0.0523  0.0573  0.1122
  163DOPC  H10X19769   6.500   4.359  15.959 -3.2609  0.1349  3.6058
  163DOPC  C31119770   6.679   4.217  15.980  0.6518 -0.1573 -0.4391
  163DOPC  H11X19771   6.630   4.122  15.950  0.4682  0.2182 -1.3797
  163DOPC  H11Y19772   6.760   4.188  16.050 -0.2104  0.6675  0.9503
  163DOPC  C31219773   6.754   4.253  15.849 -0.0052  0.8131  0.9235
  163DOPC  H12X19774   6.682   4.284  15.770  0.2583  0.7338  0.6481
  163DOPC  H12Y19775   6.797   4.159  15.808 -2.2444 -0.2386  0.8210
  163DOPC  C31319776   6.875   4.351  15.864 -0.4772  0.0723  0.0018
  163DOPC  H13X19777   6.879   4.380  15.972 -0.1445  0.9437 -0.2384
  163DOPC  H13Y19778   6.973   4.301  15.849 -1.1357 -1.1806 -0.2355
  163DOPC  C31419779   6.864   4.472  15.776 -0.5734  0.4125 -0.5204
  163DOPC  H14X19780   6.772   4.528  15.802  1.2834  2.3412  2.5905
  163DOPC  H14Y19781   6.946   4.544  15.795 -1.4007  1.7771 -1.9651
  163DOPC  C31519782   6.869   4.432  15.626  0.1249  0.1624  0.2141
  163DOPC  H15X19783   6.794   4.359  15.588 -0.3113  0.7154 -0.0055
  163DOPC  H15Y19784   6.972   4.394  15.607  0.4481  1.0709  0.1062
  163DOPC  C31619785   6.852   4.551  15.528 -0.8196  0.3684  0.0196
  163DOPC  H16X19786   6.745   4.579  15.535 -1.0891 -0.6450  0.1366
  163DOPC  H16Y19787   6.908   4.641  15.561 -1.4355  0.5546  0.5825
  163DOPC  C31719788   6.881   4.519  15.378  0.1470 -0.6647 -0.3326
  163DOPC  H17X19789   6.846   4.609  15.323 -0.3479 -1.1239 -0.7797
  163DOPC  H17Y19790   6.992   4.514  15.369 -0.0072 -2.3065 -1.9958
  163DOPC  C31819791   6.829   4.390  15.314  0.4656  0.0298 -0.7140
  163DOPC  H18X19792   6.887   4.301  15.346  0.9569  0.3694 -0.6396
  163DOPC  H18Y19793   6.723   4.371  15.341  0.9700 -2.3684 -0.2591
  163DOPC  H18Z19794   6.842   4.399  15.204 -0.7304 -1.1004 -0.9688
  164DOPC     N19795   1.733   1.960  18.179  0.0171  0.4342 -0.1165
  164DOPC   C1219796   1.666   1.957  18.035 -0.2838  0.3088 -0.3068
  164DOPC  H12A19797   1.561   1.935  18.042  0.0213 -1.4651 -0.6812
  164DOPC  H12B19798   1.717   1.874  17.989  1.1852  0.4620  0.9417
  164DOPC   C1319799   1.691   1.840  18.252  0.1428  0.2176  0.1099
  164DOPC  H13A19800   1.704   1.850  18.359 -0.7948 -0.9026  0.3409
  164DOPC  H13B19801   1.587   1.822  18.235  0.1087  2.4927 -2.9372
  164DOPC  H13C19802   1.752   1.754  18.228  0.0831 -0.1666  1.2687
  164DOPC   C1419803   1.667   2.069  18.254 -0.1189  0.0250  0.1447
  164DOPC  H14A19804   1.694   2.072  18.358 -0.3451  3.4165  0.2037
  164DOPC  H14B19805   1.694   2.169  18.223 -0.0957  0.6479  2.0795
  164DOPC  H14C19806   1.560   2.056  18.257  0.0085 -0.8874  1.2543
  164DOPC   C1519807   1.884   1.966  18.174 -0.2458  0.0890 -0.2513
  164DOPC  H15A19808   1.920   2.036  18.100 -2.8892  3.7447  1.5991
  164DOPC  H15B19809   1.937   1.873  18.168 -1.5345 -0.6494 -0.5418
  164DOPC  H15C19810   1.912   2.012  18.268 -0.4444  1.5481 -0.8714
  164DOPC   C1119811   1.696   2.085  17.954  0.4377  0.3481  0.1370
  164DOPC  H11A19812   1.631   2.084  17.864 -1.8099  0.5528  1.6603
  164DOPC  H11B19813   1.666   2.176  18.011 -1.6110 -0.4191  0.3907
  164DOPC     P19814   1.906   2.221  17.861 -0.1545  0.5379  0.0388
  164DOPC   O1319815   2.045   2.188  17.854 -0.3348  0.2314  0.0718
  164DOPC   O1419816   1.870   2.337  17.941 -0.0783 -0.1269 -0.5050
  164DOPC   O1219817   1.836   2.092  17.924  0.6405 -0.5411 -0.5825
  164DOPC   O1119818   1.839   2.234  17.720 -0.0869 -0.1187 -0.0718
  164DOPC    C119819   1.818   2.137  17.614 -0.4491  0.3007 -0.2178
  164DOPC    HA19820   1.754   2.058  17.660  0.5599 -1.0799 -1.1145
  164DOPC    HB19821   1.909   2.089  17.571  0.5298  0.8014  1.2291
  164DOPC    C219822   1.723   2.200  17.501 -0.5007  0.3575  0.0960
  164DOPC    HS19823   1.687   2.118  17.435 -1.0824  0.9578 -0.3506
  164DOPC   O2119824   1.799   2.299  17.427  0.4523  0.1163 -0.0019
  164DOPC   C2119825   1.849   2.252  17.317 -0.2468 -0.2564  0.0773
  164DOPC   O2219826   1.839   2.143  17.269  0.2715 -0.1335  0.1161
  164DOPC   C2219827   1.927   2.367  17.249 -0.4107 -0.3338  0.3392
  164DOPC   H2R19828   2.033   2.336  17.243 -0.5457 -0.6375 -0.6232
  164DOPC   H2S19829   1.928   2.453  17.318 -2.5005 -1.4627  1.9215
  164DOPC    C319830   1.605   2.271  17.565 -0.6636 -0.0658 -0.1609
  164DOPC    HX19831   1.642   2.351  17.632 -0.4313 -0.6382  0.3967
  164DOPC    HY19832   1.555   2.199  17.633  2.3144 -1.3707  0.8055
  164DOPC   O3119833   1.521   2.342  17.471  0.2762 -0.3676 -0.4959
  164DOPC   C3119834   1.420   2.285  17.413 -0.3689 -0.3729 -0.0207
  164DOPC   O3219835   1.395   2.169  17.433 -0.1958  0.1199  0.4686
  164DOPC   C3219836   1.333   2.383  17.328 -0.6803  1.0905  0.5068
  164DOPC   H2X19837   1.235   2.376  17.380 -0.7044 -3.0447  0.1871
  164DOPC   H2Y19838   1.377   2.485  17.334  2.8938 -0.2323 -0.1854
  164DOPC   C2319839   1.875   2.405  17.110 -0.7894 -0.4312  0.0216
  164DOPC   H3R19840   1.847   2.315  17.052 -0.1550 -1.0116  0.6013
  164DOPC   H3S19841   1.962   2.444  17.054  1.4194 -2.8557  1.5469
  164DOPC   C2419842   1.760   2.506  17.105  0.1896  0.3010 -0.3727
  164DOPC   H4R19843   1.779   2.589  17.177  0.5439  0.5687 -0.7691
  164DOPC   H4S19844   1.663   2.463  17.138  0.6696  0.3034  1.1275
  164DOPC   C2519845   1.738   2.562  16.965 -0.1971  0.3753  0.3014
  164DOPC   H5R19846   1.741   2.472  16.900  2.1942  0.0430  0.7728
  164DOPC   H5S19847   1.822   2.625  16.927 -0.9348  1.1262 -0.1261
  164DOPC   C2619848   1.605   2.634  16.949  0.6197  0.5922 -0.2668
  164DOPC   H6R19849   1.593   2.692  17.043  0.7678  0.4192 -0.1404
  164DOPC   H6S19850   1.525   2.558  16.943  1.3139 -0.2388  0.6691
  164DOPC   C2719851   1.592   2.725  16.829  0.5396  0.4110  0.5659
  164DOPC   H7R19852   1.680   2.792  16.837  1.3472 -0.7695  2.0796
  164DOPC   H7S19853   1.501   2.789  16.834  1.1867  1.7742 -2.6266
  164DOPC   C2819854   1.591   2.652  16.692 -0.5957  0.1754 -0.2144
  164DOPC   H8R19855   1.499   2.590  16.691 -0.4595 -0.2511  2.9742
  164DOPC   H8S19856   1.668   2.575  16.710 -2.7982 -1.9229  0.8116
  164DOPC   C2919857   1.621   2.740  16.577 -0.3619  0.8768  0.3295
  164DOPC   H9R19858   1.705   2.810  16.589  2.0528 -1.3651 -2.1572
  164DOPC  C21019859   1.556   2.747  16.459 -0.0281 -0.3626 -0.5789
  164DOPC  H10R19860   1.590   2.823  16.387  1.4132  2.3891  2.7117
  164DOPC  C21119861   1.436   2.664  16.410 -0.3284 -0.2360 -0.8332
  164DOPC  H11R19862   1.335   2.706  16.428  1.3168  2.8724  2.1996
  164DOPC  H11S19863   1.442   2.572  16.472  0.1712  0.0526 -0.4510
  164DOPC  C21219864   1.458   2.619  16.269 -0.1733 -0.1106  0.1519
  164DOPC  H12R19865   1.397   2.527  16.257  0.6834 -0.7779  0.7721
  164DOPC  H12S19866   1.557   2.574  16.248 -0.5156 -0.3579 -1.0389
  164DOPC  C21319867   1.424   2.725  16.160 -0.4116  0.2293  0.4930
  164DOPC  H13R19868   1.509   2.794  16.180 -0.3986  0.1102  0.8745
  164DOPC  H13S19869   1.323   2.766  16.181 -1.2591 -1.3543 -0.3160
  164DOPC  C21419870   1.435   2.675  16.010  0.4438  0.1612  0.2713
  164DOPC  H14R19871   1.360   2.594  15.992  0.2619  0.7415 -1.9420
  164DOPC  H14S19872   1.542   2.651  15.995  0.6395  1.4947 -0.5831
  164DOPC  C21519873   1.381   2.778  15.911  0.0334 -0.0377  0.5348
  164DOPC  H15R19874   1.454   2.863  15.910  0.1531 -0.1400  0.5079
  164DOPC  H15S19875   1.278   2.815  15.928  0.8121  1.5086  2.2074
  164DOPC  C21619876   1.374   2.726  15.768  0.7185 -0.2605  0.0770
  164DOPC  H16R19877   1.303   2.643  15.750  0.3886  0.3799 -1.9436
  164DOPC  H16S19878   1.474   2.694  15.733 -0.1243 -2.1215 -0.7447
  164DOPC  C21719879   1.332   2.845  15.676 -0.0596 -0.2594 -0.3917
  164DOPC  H17R19880   1.413   2.921  15.675 -0.0563 -0.2646 -0.4944
  164DOPC  H17S19881   1.237   2.895  15.707  0.4742  1.8312 -1.9756
  164DOPC  C21819882   1.311   2.801  15.524 -0.1543 -0.5690  0.3547
  164DOPC  H18R19883   1.405   2.757  15.486 -0.5239 -0.2563 -0.9915
  164DOPC  H18S19884   1.295   2.896  15.468 -0.8566  0.0256  1.5121
  164DOPC  H18T19885   1.222   2.735  15.521 -0.3381 -0.3212  0.2731
  164DOPC   C3319886   1.318   2.335  17.181 -0.0390  0.1992 -0.2247
  164DOPC   H3X19887   1.241   2.257  17.164  0.0216  0.3748 -1.3930
  164DOPC   H3Y19888   1.408   2.286  17.138 -0.3568  0.8998 -1.7667
  164DOPC   C3419889   1.286   2.455  17.096  0.1918  0.3918 -0.1297
  164DOPC   H4X19890   1.285   2.423  16.990 -0.0325 -3.0981  0.7981
  164DOPC   H4Y19891   1.363   2.533  17.117  0.7794 -0.2686  0.2453
  164DOPC   C3519892   1.145   2.501  17.127 -0.1956  0.1742  0.2868
  164DOPC   H5X19893   1.140   2.544  17.230 -0.9916  0.5268  0.1104
  164DOPC   H5Y19894   1.084   2.409  17.119  2.1830 -1.3631 -1.1698
  164DOPC   C3619895   1.088   2.614  17.024  0.4321  0.4512 -0.5156
  164DOPC   H6X19896   0.999   2.660  17.070  0.8463  0.0978  0.6740
  164DOPC   H6Y19897   1.166   2.693  17.026  1.7988 -0.8551  1.0138
  164DOPC   C3719898   1.059   2.562  16.882  0.3577 -0.4066  0.2969
  164DOPC   H7X19899   1.141   2.489  16.862  0.0249 -0.4565 -0.9709
  164DOPC   H7Y19900   0.962   2.509  16.877  0.7920 -1.1502 -0.4912
  164DOPC   C3819901   1.077   2.670  16.775  0.0801  0.3611  0.4285
  164DOPC   H8X19902   1.076   2.623  16.675  2.7460  0.0123  0.4901
  164DOPC   H8Y19903   1.179   2.714  16.785  0.6637 -1.0948  1.2985
  164DOPC   C3919904   0.974   2.784  16.786 -0.7390 -0.3484  0.5196
  164DOPC   H9X19905   0.970   2.834  16.883 -2.3815  0.4182  0.0919
  164DOPC  C31019906   0.909   2.834  16.683  0.3968 -0.5024 -0.1536
  164DOPC  H10X19907   0.829   2.904  16.710 -0.1594 -1.0509 -0.3439
  164DOPC  C31119908   0.905   2.782  16.535  0.2562  0.4370 -0.3715
  164DOPC  H11X19909   0.801   2.764  16.500 -0.3539 -1.2983  1.9969
  164DOPC  H11Y19910   0.951   2.681  16.524 -0.4231 -0.1355  1.5463
  164DOPC  C31219911   0.984   2.881  16.446 -0.1618 -0.3618 -0.2859
  164DOPC  H12X19912   1.091   2.879  16.479 -0.7051  1.7515  1.9076
  164DOPC  H12Y19913   0.945   2.983  16.464  2.0773  0.2357  1.8009
  164DOPC  C31319914   0.977   2.837  16.301  0.1848 -0.3716  0.3364
  164DOPC  H13X19915   1.059   2.765  16.280 -1.9818 -2.7170 -0.6248
  164DOPC  H13Y19916   0.881   2.782  16.287  0.5789 -0.8088 -0.7801
  164DOPC  C31419917   0.976   2.931  16.180 -0.1296 -0.5895 -0.0836
  164DOPC  H14X19918   1.069   2.991  16.190 -0.6458  0.1118  0.6623
  164DOPC  H14Y19919   0.892   3.003  16.192  0.6515  0.8663 -2.7234
  164DOPC  C31519920   0.954   2.861  16.044 -0.6543 -0.5892  0.3804
  164DOPC  H15X19921   0.853   2.816  16.035 -1.0437  0.3677 -0.1886
  164DOPC  H15Y19922   1.026   2.777  16.027  0.8442  1.1909 -3.0296
  164DOPC  C31619923   0.967   2.961  15.924  0.1023 -0.4183 -0.3351
  164DOPC  H16X19924   0.920   3.060  15.941  1.6318  0.7216 -2.3061
  164DOPC  H16Y19925   1.077   2.980  15.919 -0.3031  2.4522  0.0578
  164DOPC  C31719926   0.923   2.893  15.788  0.3705 -0.2035  0.9112
  164DOPC  H17X19927   0.989   2.806  15.773  0.9304  0.4071 -0.4114
  164DOPC  H17Y19928   0.815   2.866  15.792  0.1088  0.5089 -0.3513
  164DOPC  C31819929   0.948   2.979  15.668 -0.1219  0.3778 -0.2525
  164DOPC  H18X19930   0.915   3.083  15.693 -1.3166  0.1102 -0.6299
  164DOPC  H18Y19931   1.058   2.983  15.649  0.2276 -0.2857  1.4674
  164DOPC  H18Z19932   0.893   2.952  15.575  0.8345 -0.5840 -0.5554
  165DOPC     N19933   4.815   0.350  17.348  0.0354  0.3792  0.5180
  165DOPC   C1219934   4.765   0.360  17.204  0.0996 -0.0971  0.1075
  165DOPC  H12A19935   4.669   0.410  17.198 -1.1281 -2.3201 -0.2779
  165DOPC  H12B19936   4.732   0.260  17.178  0.1903  0.3199 -1.7834
  165DOPC   C1319937   4.699   0.323  17.438 -0.2516 -0.0515  0.0502
  165DOPC  H13A19938   4.722   0.292  17.539 -2.2129  1.0501  0.9076
  165DOPC  H13B19939   4.639   0.413  17.437 -1.1700 -0.6373  0.4865
  165DOPC  H13C19940   4.634   0.243  17.405 -1.1684  0.3054  0.9401
  165DOPC   C1419941   4.898   0.468  17.395  0.3523  0.0015 -0.7689
  165DOPC  H14A19942   5.000   0.442  17.369  0.4004 -2.5093  1.4746
  165DOPC  H14B19943   4.855   0.554  17.346 -0.6939 -0.4414 -0.6497
  165DOPC  H14C19944   4.891   0.476  17.502 -1.3410  1.8575 -0.9749
  165DOPC   C1519945   4.915   0.237  17.363  0.7078  0.0733  0.2431
  165DOPC  H15A19946   4.979   0.247  17.450  0.9754 -0.9233  0.1811
  165DOPC  H15B19947   4.985   0.242  17.281  1.0593 -0.5252  0.5000
  165DOPC  H15C19948   4.856   0.146  17.371  1.0941 -0.0856  1.7622
  165DOPC   C1119949   4.873   0.422  17.111 -0.2477  0.6924 -0.0852
  165DOPC  H11A19950   4.970   0.367  17.112  0.3246  1.6131  2.1166
  165DOPC  H11B19951   4.851   0.405  17.003  0.7544  0.1822 -0.2237
  165DOPC     P19952   4.777   0.649  17.062  0.3651 -0.2588 -0.4074
  165DOPC   O1319953   4.778   0.786  17.120  0.2220  0.5080  0.0919
  165DOPC   O1419954   4.647   0.582  17.080  0.8523 -0.1482 -0.4086
  165DOPC   O1219955   4.882   0.564  17.138  0.2819 -0.0863  0.3590
  165DOPC   O1119956   4.813   0.658  16.910 -0.1051 -0.0342  0.2062
  165DOPC    C119957   4.944   0.714  16.886 -0.6490  0.1045 -0.2520
  165DOPC    HA19958   5.025   0.648  16.921  0.7919  2.1844  0.5119
  165DOPC    HB19959   4.953   0.818  16.923 -1.2754 -0.2715  1.0057
  165DOPC    C219960   4.972   0.713  16.736 -0.5745 -0.2802  0.8092
  165DOPC    HS19961   5.080   0.740  16.727 -0.5976 -0.2191  0.7182
  165DOPC   O2119962   4.887   0.798  16.664  0.4821 -0.2107 -0.7448
  165DOPC   C2119963   4.910   0.931  16.674 -0.1696  0.1919  0.2556
  165DOPC   O2219964   4.994   0.983  16.748 -0.2097 -0.1748 -0.3997
  165DOPC   C2219965   4.833   1.010  16.564 -0.2179 -0.2959 -0.2411
  165DOPC   H2R19966   4.823   1.114  16.601 -2.0653 -0.0311 -1.3822
  165DOPC   H2S19967   4.731   0.968  16.550  0.6952 -2.2559 -1.3657
  165DOPC    C319968   4.962   0.582  16.678 -0.2138  0.7145  0.8195
  165DOPC    HX19969   4.870   0.529  16.710  0.2106 -0.0440  0.8205
  165DOPC    HY19970   5.053   0.523  16.704 -0.1132  0.1811 -0.6491
  165DOPC   O3119971   4.969   0.590  16.530 -0.5693  0.1199  0.2723
  165DOPC   C3119972   4.848   0.584  16.472  0.0994  0.4443 -0.0261
  165DOPC   O3219973   4.738   0.578  16.523  0.3254  0.1930  0.1736
  165DOPC   C3219974   4.863   0.581  16.319  0.2918 -0.5723  0.6016
  165DOPC   H2X19975   4.909   0.676  16.287 -1.8058  0.2445 -0.1853
  165DOPC   H2Y19976   4.924   0.491  16.293  0.0564 -0.6999  0.4880
  165DOPC   C2319977   4.905   0.991  16.431 -0.3008 -0.0612  0.3413
  165DOPC   H3R19978   4.831   1.031  16.359 -2.5117 -0.8010  2.0835
  165DOPC   H3S19979   4.909   0.884  16.401 -0.2278 -0.4459  1.6501
  165DOPC   C2419980   5.036   1.059  16.402  0.7419 -0.5192 -0.1367
  165DOPC   H4R19981   5.099   1.021  16.485 -1.1806  0.6116  1.9598
  165DOPC   H4S19982   5.043   1.164  16.439  1.0491 -0.3382 -0.6951
  165DOPC   C2519983   5.099   1.048  16.267  0.0147 -0.1840 -0.0228
  165DOPC   H5R19984   5.099   0.941  16.238 -0.9956  0.1065 -1.2087
  165DOPC   H5S19985   5.205   1.078  16.283 -0.8102  1.1434  4.0260
  165DOPC   C2619986   5.039   1.141  16.163 -0.0499  0.3177 -0.1219
  165DOPC   H6R19987   5.022   1.241  16.208  1.0255  0.5459 -0.2086
  165DOPC   H6S19988   4.938   1.098  16.144 -0.4939  0.8571  0.9236
  165DOPC   C2719989   5.128   1.152  16.040 -0.1316 -0.5009 -0.0054
  165DOPC   H7R19990   5.186   1.057  16.041  0.8538  0.0841  1.9777
  165DOPC   H7S19991   5.205   1.229  16.060  0.2924 -0.4660 -1.6162
  165DOPC   C2819992   5.070   1.209  15.912 -0.0718  0.0527 -0.6868
  165DOPC   H8R19993   5.147   1.221  15.833  0.2685  0.7072 -0.2637
  165DOPC   H8S19994   5.033   1.312  15.931 -2.4932 -0.3230 -2.8467
  165DOPC   C2919995   4.957   1.128  15.850 -0.6406  0.9296  0.6597
  165DOPC   H9R19996   4.889   1.086  15.926 -0.0326  1.1318  1.3240
  165DOPC  C21019997   4.921   1.126  15.718  0.1668 -0.0921 -0.4577
  165DOPC  H10R19998   4.836   1.067  15.682  0.7672 -1.6360  0.5534
  165DOPC  C21119999   4.995   1.198  15.605  0.6011 -0.7797  0.4352
  165DOPC  H11R20000   5.104   1.210  15.623  1.4506  1.3683 -4.4564
  165DOPC  H11S20001   4.956   1.302  15.596 -0.5902 -1.3611 -1.5674
  165DOPC  C21220002   4.981   1.131  15.468  0.4247 -0.3235  0.3678
  165DOPC  H12R20003   4.873   1.132  15.442  0.9301  1.7886 -1.9945
  165DOPC  H12S20004   5.027   1.030  15.472 -0.0797 -0.5754 -0.1234
  165DOPC  C21320005   5.061   1.208  15.365  0.0054  0.4693 -0.1525
  165DOPC  H13R20006   5.167   1.198  15.396 -0.3517  1.2674  1.4581
  165DOPC  H13S20007   5.045   1.318  15.360  1.7074  0.6953 -4.2619
  165DOPC  C21420008   5.045   1.169  15.219  0.5694  0.9234 -0.6066
  165DOPC  H14R20009   4.954   1.214  15.174  0.0282  0.4405 -0.0078
  165DOPC  H14S20010   5.033   1.059  15.219 -1.3078  1.1048 -1.0014
  165DOPC  C21520011   5.157   1.198  15.126 -0.0389 -0.6633  0.1656
  165DOPC  H15R20012   5.254   1.150  15.153  0.1945 -0.3654 -0.1257
  165DOPC  H15S20013   5.175   1.308  15.128 -1.9116 -0.3296  0.3833
  165DOPC  C21620014   5.138   1.141  14.982 -0.0507 -0.1006 -0.8253
  165DOPC  H16R20015   5.078   1.222  14.935 -0.4958 -0.5724 -1.0823
  165DOPC  H16S20016   5.080   1.046  14.981 -0.1984 -0.0217 -2.2294
  165DOPC  C21720017   5.265   1.115  14.895  0.2993 -0.3056  0.5032
  165DOPC  H17R20018   5.249   1.051  14.806 -2.5801  0.5140  0.3051
  165DOPC  H17S20019   5.347   1.068  14.953  1.3283 -0.0065 -0.6886
  165DOPC  C21820020   5.322   1.250  14.843  0.5040  0.1531  0.2916
  165DOPC  H18R20021   5.374   1.300  14.928  0.6013 -1.1514  1.0304
  165DOPC  H18S20022   5.235   1.306  14.800  1.5366 -0.1535 -2.3428
  165DOPC  H18T20023   5.403   1.221  14.774  0.8378 -0.4813  0.9328
  165DOPC   C3320024   4.726   0.575  16.246 -0.6174  0.0685  0.2965
  165DOPC   H3X20025   4.648   0.643  16.285 -1.4075 -3.3485  5.7089
  165DOPC   H3Y20026   4.687   0.473  16.261 -0.3216 -0.2054 -0.7266
  165DOPC   C3420027   4.752   0.620  16.102  0.0131 -0.6551  0.0538
  165DOPC   H4X20028   4.799   0.720  16.096 -0.6801 -0.2564  1.0264
  165DOPC   H4Y20029   4.653   0.629  16.052  0.0157  1.0517  0.2918
  165DOPC   C3520030   4.836   0.514  16.029 -0.1526 -0.7263 -0.4621
  165DOPC   H5X20031   4.798   0.411  16.042 -2.3491  0.1331  0.5566
  165DOPC   H5Y20032   4.937   0.515  16.074 -0.1175  0.2793 -0.5300
  165DOPC   C3620033   4.858   0.548  15.888  0.6685 -0.2035  0.7619
  165DOPC   H6X20034   4.887   0.655  15.880  0.5569 -0.2909 -1.2780
  165DOPC   H6Y20035   4.933   0.483  15.840 -0.4339 -0.2022 -1.0436
  165DOPC   C3720036   4.719   0.535  15.806 -0.2658  0.4986 -0.0977
  165DOPC   H7X20037   4.652   0.618  15.837 -2.3631  0.2951 -3.5807
  165DOPC   H7Y20038   4.670   0.441  15.837 -0.1886  0.5736  0.2615
  165DOPC   C3820039   4.736   0.542  15.655  0.6677  0.3823  0.0091
  165DOPC   H8X20040   4.640   0.527  15.603 -1.3003  1.4499  3.0802
  165DOPC   H8Y20041   4.800   0.459  15.616  1.0610  1.2812 -1.3510
  165DOPC   C3920042   4.790   0.675  15.621  0.3783  0.2403 -0.5658
  165DOPC   H9X20043   4.900   0.673  15.629  0.3527  1.6478  0.3065
  165DOPC  C31020044   4.731   0.795  15.605 -0.2694 -0.3479 -0.3693
  165DOPC  H10X20045   4.791   0.885  15.585 -1.0294 -0.0560 -1.4349
  165DOPC  C31120046   4.578   0.807  15.602 -0.4369 -0.4166 -0.0746
  165DOPC  H11X20047   4.529   0.709  15.614  1.5865 -1.7214 -1.8033
  165DOPC  H11Y20048   4.553   0.841  15.500 -1.7572 -0.8952  0.0764
  165DOPC  C31220049   4.521   0.923  15.693 -0.3146 -0.4664  0.1126
  165DOPC  H12X20050   4.417   0.945  15.660  0.4510  2.3680 -0.6998
  165DOPC  H12Y20051   4.581   1.013  15.671  1.6143 -1.4085  1.2474
  165DOPC  C31320052   4.536   0.895  15.841 -0.2042  0.0725 -0.6673
  165DOPC  H13X20053   4.497   0.793  15.862  1.9756 -0.7450 -0.2975
  165DOPC  H13Y20054   4.644   0.882  15.863 -0.6998 -2.1535  0.9215
  165DOPC  C31420055   4.479   1.000  15.944  0.1504  0.2413  0.0124
  165DOPC  H14X20056   4.518   1.094  15.900 -1.5084  0.8815 -0.1314
  165DOPC  H14Y20057   4.369   0.991  15.944 -0.0026  1.5264 -2.1278
  165DOPC  C31520058   4.529   0.997  16.090  0.0791 -0.3815 -0.2744
  165DOPC  H15X20059   4.508   1.101  16.120 -1.5289 -0.5919 -0.5742
  165DOPC  H15Y20060   4.638   0.972  16.095  0.5473  1.5607  0.0906
  165DOPC  C31620061   4.443   0.900  16.180 -0.3938  0.0265 -0.6693
  165DOPC  H16X20062   4.335   0.923  16.173 -0.4025 -0.0380 -0.7396
  165DOPC  H16Y20063   4.453   0.803  16.128  0.8285  0.8776 -2.0910
  165DOPC  C31720064   4.497   0.885  16.329  0.2339  0.3017  0.6734
  165DOPC  H17X20065   4.607   0.870  16.324  0.3564  1.4951 -1.0231
  165DOPC  H17Y20066   4.476   0.980  16.382  0.9709  0.6087  0.4263
  165DOPC  C31820067   4.426   0.765  16.391 -0.3467  0.4385  0.6237
  165DOPC  H18X20068   4.475   0.735  16.486 -0.1962  2.5744  1.2738
  165DOPC  H18Y20069   4.320   0.776  16.420 -0.3711 -1.2310  1.2933
  165DOPC  H18Z20070   4.439   0.680  16.320  0.2914  0.7090  0.4107
  166DOPC     N20071   5.780   3.863  17.563  0.4162  0.0201 -0.2671
  166DOPC   C1220072   5.869   3.758  17.502 -0.0882  0.9140 -0.0655
  166DOPC  H12A20073   5.968   3.802  17.500  0.4189  0.0805  2.6233
  166DOPC  H12B20074   5.835   3.733  17.403 -1.9937  1.9682  0.2858
  166DOPC   C1320075   5.828   3.892  17.700  0.7684 -0.0334 -0.5718
  166DOPC  H13A20076   5.824   3.805  17.763  0.6344 -0.4283 -1.1192
  166DOPC  H13B20077   5.932   3.919  17.691  0.8466  0.1177  0.6573
  166DOPC  H13C20078   5.782   3.984  17.734  0.0005 -1.2600  1.9734
  166DOPC   C1420079   5.634   3.841  17.556 -0.1657  0.2606 -0.2257
  166DOPC  H14A20080   5.587   3.933  17.587 -0.7585  0.2246 -0.9936
  166DOPC  H14B20081   5.607   3.836  17.452 -1.3815  0.1006  0.0802
  166DOPC  H14C20082   5.604   3.758  17.619 -0.8576  0.0986 -0.7584
  166DOPC   C1520083   5.804   3.986  17.478  0.1332  0.2332  0.6196
  166DOPC  H15A20084   5.744   4.063  17.526 -1.0518 -1.6555  2.3345
  166DOPC  H15B20085   5.766   3.976  17.377  0.9812 -1.8546  0.4608
  166DOPC  H15C20086   5.908   4.014  17.484  0.0940  0.5812 -0.1741
  166DOPC   C1120087   5.884   3.625  17.573 -0.4663 -0.4239 -0.2780
  166DOPC  H11A20088   5.784   3.588  17.605  0.5129 -3.4915 -0.4272
  166DOPC  H11B20089   5.923   3.537  17.517  0.3794 -1.4524  1.8005
  166DOPC     P20090   6.123   3.676  17.692 -0.2126  0.2176  0.3521
  166DOPC   O1320091   6.186   3.575  17.779  0.4919  0.4814 -0.0904
  166DOPC   O1420092   6.125   3.816  17.728 -0.0141  0.3854  0.1049
  166DOPC   O1220093   5.968   3.635  17.684  0.0906 -0.1473 -0.0397
  166DOPC   O1120094   6.192   3.645  17.544 -0.6707 -0.0923 -0.9812
  166DOPC    C120095   6.327   3.696  17.529  0.1294  0.3780 -0.1663
  166DOPC    HA20096   6.398   3.628  17.581 -0.3863  0.0826  0.1532
  166DOPC    HB20097   6.335   3.802  17.562 -1.6602  1.0674 -1.7497
  166DOPC    C220098   6.369   3.703  17.377  0.5563 -0.3833  0.2808
  166DOPC    HS20099   6.321   3.795  17.338 -1.5560 -0.9135  1.4814
  166DOPC   O2120100   6.335   3.590  17.307  0.1523 -0.3109  0.9500
  166DOPC   C2120101   6.211   3.588  17.249 -0.3726  1.0279 -0.2989
  166DOPC   O2220102   6.131   3.679  17.268 -0.1554 -0.2721  0.2752
  166DOPC   C2220103   6.191   3.460  17.174 -0.4423  0.2535 -0.2022
  166DOPC   H2R20104   6.090   3.416  17.190 -0.6267  0.3284 -1.0895
  166DOPC   H2S20105   6.260   3.391  17.226 -2.3563 -2.0191 -0.4721
  166DOPC    C320106   6.522   3.727  17.371 -0.1707 -0.1585 -0.6695
  166DOPC    HX20107   6.576   3.633  17.395 -0.3054  0.1648  1.0077
  166DOPC    HY20108   6.550   3.809  17.441 -0.4755 -0.5360 -0.0992
  166DOPC   O3120109   6.560   3.754  17.232  0.3910 -0.0936  0.4118
  166DOPC   C3120110   6.538   3.878  17.178  0.0020  0.2098 -0.3718
  166DOPC   O3220111   6.487   3.968  17.235  0.2365  0.4498 -0.4570
  166DOPC   C3220112   6.571   3.879  17.033  0.0641 -0.2753  0.9685
  166DOPC   H2X20113   6.636   3.966  17.008 -0.5407 -0.5399 -1.9323
  166DOPC   H2Y20114   6.610   3.781  16.999 -0.7621 -0.1287 -0.4828
  166DOPC   C2320115   6.224   3.460  17.021  0.1888  0.5399  0.5295
  166DOPC   H3R20116   6.267   3.359  17.002  2.4971  1.8730 -1.8067
  166DOPC   H3S20117   6.306   3.533  17.010 -0.1287  0.6004 -1.7742
  166DOPC   C2420118   6.106   3.471  16.927  0.8214 -0.1153  0.2442
  166DOPC   H4R20119   6.074   3.572  16.892 -0.9109 -0.6613  0.1397
  166DOPC   H4S20120   6.012   3.432  16.973 -1.3915  2.0107 -2.0875
  166DOPC   C2520121   6.140   3.380  16.807  0.4935 -0.0011 -0.6878
  166DOPC   H5R20122   6.048   3.354  16.749 -0.5791  1.5166  0.2562
  166DOPC   H5S20123   6.164   3.283  16.853  1.0195 -0.0782 -1.1094
  166DOPC   C2620124   6.252   3.427  16.721  0.1796  0.1057  0.4882
  166DOPC   H6R20125   6.354   3.399  16.755  1.5203  2.5416 -1.2078
  166DOPC   H6S20126   6.244   3.537  16.706  0.0455 -0.1942 -2.0955
  166DOPC   C2720127   6.223   3.353  16.584  0.2911  0.1760 -0.7032
  166DOPC   H7R20128   6.128   3.391  16.541 -0.0331 -1.0668 -1.1420
  166DOPC   H7S20129   6.208   3.245  16.603 -0.4823  0.5873  1.1966
  166DOPC   C2820130   6.332   3.382  16.473  0.0094  0.6300  0.3210
  166DOPC   H8R20131   6.290   3.334  16.382 -1.6594  0.0787  1.3421
  166DOPC   H8S20132   6.430   3.336  16.502  0.8778  1.9855 -0.3703
  166DOPC   C2920133   6.349   3.525  16.440 -0.0854 -0.6402  0.7033
  166DOPC   H9R20134   6.317   3.601  16.512 -2.0714 -0.1232 -0.6416
  166DOPC  C21020135   6.378   3.578  16.316  0.1914  0.8883  0.4083
  166DOPC  H10R20136   6.373   3.688  16.311 -1.4689  0.7934 -0.8995
  166DOPC  C21120137   6.418   3.501  16.193 -0.0618 -0.2978 -0.2010
  166DOPC  H11R20138   6.443   3.396  16.218  2.7752 -0.1380 -1.8714
  166DOPC  H11S20139   6.504   3.550  16.142 -1.8200 -0.7424 -3.9170
  166DOPC  C21220140   6.306   3.481  16.089  0.1504 -0.0708 -0.0561
  166DOPC  H12R20141   6.221   3.426  16.134 -0.9771 -0.3987 -2.4368
  166DOPC  H12S20142   6.344   3.406  16.016 -0.8037  1.1815 -1.9113
  166DOPC  C21320143   6.243   3.611  16.036 -0.2904  0.1281  0.6530
  166DOPC  H13R20144   6.317   3.693  16.028 -1.9091  1.6258  0.3784
  166DOPC  H13S20145   6.178   3.646  16.119  0.1177  0.7408  0.7273
  166DOPC  C21420146   6.165   3.584  15.903  0.3176 -0.6789  0.1652
  166DOPC  H14R20147   6.106   3.669  15.862  0.0505 -0.0828  1.7062
  166DOPC  H14S20148   6.095   3.504  15.934  1.1268 -1.4167  0.1316
  166DOPC  C21520149   6.261   3.526  15.795 -0.3497 -0.3126  0.4244
  166DOPC  H15R20150   6.301   3.427  15.827 -1.3473 -0.6149  0.7625
  166DOPC  H15S20151   6.345   3.597  15.781 -3.4227  3.4680 -0.2773
  166DOPC  C21620152   6.208   3.520  15.654  0.2373 -0.5770 -0.1444
  166DOPC  H16R20153   6.196   3.624  15.617 -2.2570  0.3403  2.8142
  166DOPC  H16S20154   6.107   3.474  15.656  0.4853 -1.0966  0.7916
  166DOPC  C21720155   6.307   3.461  15.555  0.3974  0.1358  0.1952
  166DOPC  H17R20156   6.302   3.355  15.588  0.9622  0.7144  2.2907
  166DOPC  H17S20157   6.408   3.507  15.566  0.5188  0.2348 -1.1788
  166DOPC  C21820158   6.268   3.466  15.406  0.7407 -0.3644  0.9217
  166DOPC  H18R20159   6.274   3.572  15.372 -0.3084 -0.1890  1.2186
  166DOPC  H18S20160   6.168   3.417  15.402  2.0319 -3.0703 -0.6078
  166DOPC  H18T20161   6.324   3.400  15.337 -0.1245 -0.2287  0.0672
  166DOPC   C3320162   6.443   3.903  16.942 -0.3907  0.7599 -0.1978
  166DOPC   H3X20163   6.400   4.003  16.964  2.7156  2.1848 -0.0058
  166DOPC   H3Y20164   6.364   3.833  16.976 -0.1680  1.1469  1.2199
  166DOPC   C3420165   6.477   3.879  16.793 -0.9488 -0.5090 -0.2933
  166DOPC   H4X20166   6.501   3.772  16.774 -1.3098 -0.7121  0.3898
  166DOPC   H4Y20167   6.572   3.935  16.774 -0.4682 -0.8889  0.9488
  166DOPC   C3520168   6.372   3.936  16.703 -0.2862 -0.3158 -0.2040
  166DOPC   H5X20169   6.353   4.045  16.710 -1.2665 -0.5775  2.2222
  166DOPC   H5Y20170   6.277   3.885  16.730  0.6948 -2.8259 -1.1576
  166DOPC   C3620171   6.405   3.918  16.554 -0.1205  0.8903 -0.4374
  166DOPC   H6X20172   6.513   3.942  16.542  0.5207 -0.5898  1.8025
  166DOPC   H6Y20173   6.380   3.813  16.525  0.6123  0.6479 -0.2095
  166DOPC   C3720174   6.329   4.013  16.462 -0.2738 -0.2390  0.3550
  166DOPC   H7X20175   6.221   4.007  16.489 -0.4724  0.8152 -0.1513
  166DOPC   H7Y20176   6.363   4.117  16.479  1.0945 -0.3909 -1.1750
  166DOPC   C3820177   6.359   3.984  16.309 -0.8669 -0.1701 -1.0391
  166DOPC   H8X20178   6.331   3.877  16.300  0.9360 -0.9818  1.9107
  166DOPC   H8Y20179   6.467   4.003  16.291 -0.3531 -1.8277  0.1236
  166DOPC   C3920180   6.269   4.075  16.228  0.2221  0.5724 -0.3961
  166DOPC   H9X20181   6.209   4.142  16.291 -2.0831 -1.2313 -0.5358
  166DOPC  C31020182   6.259   4.083  16.099 -0.4355 -0.0180 -0.4266
  166DOPC  H10X20183   6.198   4.159  16.049  0.1381  0.1746 -0.8411
  166DOPC  C31120184   6.328   4.005  15.990  0.1364  0.0833  0.5167
  166DOPC  H11X20185   6.389   3.923  16.032 -1.2257 -0.9089  0.6323
  166DOPC  H11Y20186   6.395   4.075  15.936 -0.1776  0.1856  0.2514
  166DOPC  C31220187   6.233   3.941  15.881 -0.0600 -0.6315  0.1778
  166DOPC  H12X20188   6.158   3.882  15.936  1.6653 -1.7698  1.4242
  166DOPC  H12Y20189   6.294   3.862  15.831 -0.5969 -2.6801  2.5929
  166DOPC  C31320190   6.162   4.046  15.788  0.7363  0.0148 -0.3159
  166DOPC  H13X20191   6.065   4.007  15.749  0.3339  1.0835 -0.4299
  166DOPC  H13Y20192   6.131   4.138  15.844  0.0954  0.0203 -0.6668
  166DOPC  C31420193   6.245   4.084  15.661 -0.1231  0.1131 -0.1746
  166DOPC  H14X20194   6.186   4.153  15.598  0.1202  1.6671  1.2482
  166DOPC  H14Y20195   6.339   4.136  15.689  0.1087 -0.1790 -0.4014
  166DOPC  C31520196   6.293   3.956  15.587 -0.2370 -0.3815 -0.0386
  166DOPC  H15X20197   6.206   3.889  15.567 -0.8798  0.4847 -0.2151
  166DOPC  H15Y20198   6.364   3.892  15.643 -2.1639 -2.3191  0.3590
  166DOPC  C31620199   6.353   3.984  15.450  0.2807  0.0164 -0.4017
  166DOPC  H16X20200   6.375   3.891  15.393  2.9844 -0.0231  0.5386
  166DOPC  H16Y20201   6.278   4.042  15.393  0.3402  2.2663  1.6454
  166DOPC  C31720202   6.474   4.085  15.451 -0.0710  0.0764 -0.2144
  166DOPC  H17X20203   6.440   4.188  15.472  3.5356  1.6950 -1.5011
  166DOPC  H17Y20204   6.549   4.068  15.531 -0.3900  1.7917  0.4914
  166DOPC  C31820205   6.548   4.089  15.315 -0.2985  0.3497 -0.4717
  166DOPC  H18X20206   6.574   3.989  15.274 -0.9176  0.2936 -0.7513
  166DOPC  H18Y20207   6.485   4.139  15.238 -1.0804 -2.4367 -1.8007
  166DOPC  H18Z20208   6.645   4.143  15.320  1.2764 -2.3612  0.0781
  167DOPC     N20209   6.663   2.904  17.782 -0.6308  0.2636 -0.2864
  167DOPC   C1220210   6.568   2.934  17.667  0.3612  0.2946  0.3387
  167DOPC  H12A20211   6.572   2.846  17.605  1.6550 -0.4832  1.4760
  167DOPC  H12B20212   6.621   3.002  17.601  3.2773  0.5303  2.7064
  167DOPC   C1320213   6.590   2.814  17.877 -0.2469 -0.4202 -0.0840
  167DOPC  H13A20214   6.545   2.739  17.814 -1.4293  1.0723 -1.1001
  167DOPC  H13B20215   6.664   2.765  17.938  0.5127  1.4716  0.5811
  167DOPC  H13C20216   6.517   2.860  17.942  1.5112  0.6072  1.2567
  167DOPC   C1420217   6.701   3.034  17.853 -0.2736 -0.6802 -0.2747
  167DOPC  H14A20218   6.612   3.092  17.873  0.0991 -0.1622 -0.0963
  167DOPC  H14B20219   6.744   3.011  17.949 -1.4784  1.7509  0.9315
  167DOPC  H14C20220   6.767   3.103  17.802  0.6306  0.7809  2.6713
  167DOPC   C1520221   6.792   2.838  17.733 -0.5635 -0.2988  0.0312
  167DOPC  H15A20222   6.856   2.814  17.817 -0.3379  0.2665  0.0260
  167DOPC  H15B20223   6.837   2.918  17.676  1.3782 -0.7706  0.8226
  167DOPC  H15C20224   6.766   2.752  17.673 -0.0362 -0.6878  0.3517
  167DOPC   C1120225   6.422   2.976  17.705  0.2080  0.1609 -0.1176
  167DOPC  H11A20226   6.356   2.968  17.615  1.1339 -1.4487 -0.7045
  167DOPC  H11B20227   6.383   2.914  17.789 -0.0754  2.1460  1.2782
  167DOPC     P20228   6.443   3.233  17.666 -0.2048  0.2452 -0.2164
  167DOPC   O1320229   6.515   3.332  17.750 -0.0720  0.3199  0.1301
  167DOPC   O1420230   6.305   3.266  17.619  0.0682 -0.6395 -0.3684
  167DOPC   O1220231   6.425   3.108  17.754  0.0793  0.4123 -0.2178
  167DOPC   O1120232   6.532   3.197  17.538 -0.1598 -0.1845  0.2213
  167DOPC    C120233   6.543   3.293  17.437  0.0754  0.4161  0.3000
  167DOPC    HA20234   6.635   3.353  17.453  0.2827  0.1240  0.2060
  167DOPC    HB20235   6.450   3.355  17.430  0.0569  0.4179  0.5519
  167DOPC    C220236   6.548   3.230  17.299  0.2905 -0.1874 -0.1468
  167DOPC    HS20237   6.637   3.163  17.305 -0.6744 -1.4536  0.6694
  167DOPC   O2120238   6.538   3.322  17.190 -0.2121 -0.7854  0.1023
  167DOPC   C2120239   6.642   3.399  17.167 -0.4836 -0.4156  0.6146
  167DOPC   O2220240   6.752   3.388  17.217  0.9912  0.1241  0.0307
  167DOPC   C2220241   6.611   3.497  17.057 -0.2046  0.5839 -0.4032
  167DOPC   H2R20242   6.687   3.577  17.051  0.2293  0.5651  2.8524
  167DOPC   H2S20243   6.514   3.542  17.090 -0.6408 -0.4081 -0.2878
  167DOPC    C320244   6.430   3.132  17.274 -0.5041  0.2229  0.6156
  167DOPC    HX20245   6.329   3.176  17.263 -0.2557  0.6004 -0.2550
  167DOPC    HY20246   6.419   3.065  17.363 -0.8569  0.3670  0.6846
  167DOPC   O3120247   6.446   3.031  17.161 -0.3542  0.5276 -0.1203
  167DOPC   C3120248   6.359   3.043  17.061 -0.3739 -0.3313 -0.3977
  167DOPC   O3220249   6.267   3.124  17.053  0.2476  0.6858 -0.3341
  167DOPC   C3220250   6.406   2.946  16.955  0.2191  0.2182  0.2963
  167DOPC   H2X20251   6.516   2.958  16.949  0.0813  1.2688 -0.4662
  167DOPC   H2Y20252   6.373   2.841  16.973 -0.1172 -0.3345 -2.9045
  167DOPC   C2320253   6.598   3.423  16.924  0.3131  0.3288  0.9475
  167DOPC   H3R20254   6.588   3.501  16.846  3.1301  1.5438  1.6520
  167DOPC   H3S20255   6.502   3.368  16.921  0.2914  0.3391  1.3152
  167DOPC   C2420256   6.712   3.342  16.877  0.3186  0.6576 -0.3112
  167DOPC   H4R20257   6.754   3.271  16.950  2.4912  2.3175  0.1753
  167DOPC   H4S20258   6.792   3.416  16.851  2.7608 -1.5271  0.5742
  167DOPC   C2520259   6.681   3.247  16.768 -0.5595  0.3508 -0.1954
  167DOPC   H5R20260   6.632   3.310  16.690 -0.4742  0.1044 -0.4512
  167DOPC   H5S20261   6.603   3.178  16.808  0.3440  0.1086  1.2155
  167DOPC   C2620262   6.806   3.175  16.714  0.0135 -0.0596  0.1944
  167DOPC   H6R20263   6.834   3.096  16.787  1.2629 -1.6557 -1.9013
  167DOPC   H6S20264   6.891   3.246  16.704 -1.0150  1.0803 -0.7358
  167DOPC   C2720265   6.789   3.103  16.579  0.0574 -0.1944 -0.7879
  167DOPC   H7R20266   6.713   3.023  16.595  1.5307 -1.3458  0.8508
  167DOPC   H7S20267   6.886   3.054  16.560 -0.0040 -0.4313 -0.4995
  167DOPC   C2820268   6.752   3.195  16.456  0.1361 -0.2269  0.2375
  167DOPC   H8R20269   6.834   3.269  16.446  1.4729 -1.4254  1.8008
  167DOPC   H8S20270   6.653   3.243  16.475  0.5022  0.2109  1.0824
  167DOPC   C2920271   6.745   3.112  16.329  0.0705 -0.2447 -0.3537
  167DOPC   H9R20272   6.706   3.010  16.340  1.1048 -0.7206 -0.9248
  167DOPC  C21020273   6.787   3.153  16.213 -0.2042 -0.3064  0.1595
  167DOPC  H10R20274   6.790   3.081  16.130 -0.8537 -1.5861  1.2001
  167DOPC  C21120275   6.841   3.295  16.179  0.7020 -0.4235 -0.2526
  167DOPC  H11R20276   6.952   3.299  16.188  0.6538 -2.3431  2.2183
  167DOPC  H11S20277   6.816   3.359  16.267  1.7428  0.7565 -0.7787
  167DOPC  C21220278   6.785   3.370  16.052 -0.4351  0.1182 -0.3712
  167DOPC  H12R20279   6.675   3.373  16.067 -0.1713  0.8469  1.6891
  167DOPC  H12S20280   6.828   3.472  16.050  2.0830 -0.8095  1.3465
  167DOPC  C21320281   6.823   3.301  15.929 -0.4995 -0.3641  0.1792
  167DOPC  H13R20282   6.783   3.198  15.925 -3.3395  0.6768 -0.3251
  167DOPC  H13S20283   6.934   3.302  15.931 -0.3936  1.2697 -2.3656
  167DOPC  C21420284   6.799   3.394  15.811 -0.4874  1.0835 -0.3391
  167DOPC  H14R20285   6.844   3.495  15.826  2.0213 -0.1028  0.5897
  167DOPC  H14S20286   6.692   3.419  15.790 -0.9169 -0.9048 -0.6602
  167DOPC  C21520287   6.859   3.332  15.683 -0.6576  1.1097  0.0569
  167DOPC  H15R20288   6.969   3.331  15.698 -0.3327  0.1801 -1.9969
  167DOPC  H15S20289   6.846   3.396  15.593  2.3716  1.3928 -0.2676
  167DOPC  C21620290   6.809   3.196  15.635 -0.1418 -0.5634  0.2202
  167DOPC  H16R20291   6.705   3.202  15.596  0.3419 -0.2368 -1.0732
  167DOPC  H16S20292   6.809   3.123  15.718  0.1745  0.8529  1.5174
  167DOPC  C21720293   6.908   3.156  15.520  0.2449  0.2485 -0.3931
  167DOPC  H17R20294   7.005   3.120  15.561 -0.1968 -0.8950 -0.3170
  167DOPC  H17S20295   6.925   3.237  15.446 -0.4422  1.5225  0.7949
  167DOPC  C21820296   6.856   3.027  15.460  0.2907  0.5329  1.0824
  167DOPC  H18R20297   6.936   2.974  15.404  0.4439  0.9968  0.8604
  167DOPC  H18S20298   6.774   3.059  15.392  1.5489  1.2817 -0.1304
  167DOPC  H18T20299   6.808   2.969  15.542  0.2159 -0.0038  0.6687
  167DOPC   C3320300   6.350   2.987  16.809 -0.1284  0.2131 -0.0243
  167DOPC   H3X20301   6.365   3.096  16.792  1.2696  0.2377  1.1618
  167DOPC   H3Y20302   6.242   2.960  16.801 -0.2223  0.2921  0.8216
  167DOPC   C3420303   6.420   2.919  16.688  0.2496 -0.4599  0.4165
  167DOPC   H4X20304   6.385   2.815  16.698 -0.1771 -0.4469 -0.8343
  167DOPC   H4Y20305   6.528   2.941  16.705 -0.1501  1.2368  0.9996
  167DOPC   C3520306   6.372   2.985  16.554 -0.2269 -0.4243  0.1951
  167DOPC   H5X20307   6.414   3.088  16.545 -0.1176 -0.5808 -1.2082
  167DOPC   H5Y20308   6.263   3.001  16.565 -0.3552  0.1902 -1.6420
  167DOPC   C3620309   6.377   2.883  16.442  0.1573 -0.4667  0.6127
  167DOPC   H6X20310   6.483   2.860  16.421 -0.4764 -2.6501 -0.5115
  167DOPC   H6Y20311   6.340   2.784  16.477  1.8141 -1.7280 -1.0216
  167DOPC   C3720312   6.314   2.937  16.313 -0.3266 -0.1147  0.7602
  167DOPC   H7X20313   6.286   2.851  16.248 -1.8733  0.9732 -0.0801
  167DOPC   H7Y20314   6.212   2.972  16.341 -1.6419 -2.8243 -0.2378
  167DOPC   C3820315   6.396   3.038  16.238 -0.6043 -0.4754  1.1166
  167DOPC   H8X20316   6.485   2.984  16.199 -0.1811  0.4825  0.7290
  167DOPC   H8Y20317   6.428   3.125  16.299 -1.2896  0.9421 -0.4593
  167DOPC   C3920318   6.324   3.114  16.135 -0.1004 -0.3575  0.6306
  167DOPC   H9X20319   6.220   3.139  16.164  0.3766  0.5863  1.6221
  167DOPC  C31020320   6.358   3.132  16.004 -0.7537  0.4935  0.4657
  167DOPC  H10X20321   6.301   3.193  15.931  0.8385  0.4143 -0.9030
  167DOPC  C31120322   6.487   3.105  15.940 -1.3160 -0.6078  0.2907
  167DOPC  H11X20323   6.555   3.056  16.013 -1.2930  0.2142  0.8312
  167DOPC  H11Y20324   6.533   3.204  15.917  0.8852 -1.3563  1.2479
  167DOPC  C31220325   6.493   3.013  15.819 -0.1179  0.3482  0.0755
  167DOPC  H12X20326   6.422   2.929  15.835 -1.2978  1.2309 -0.3881
  167DOPC  H12Y20327   6.597   2.979  15.800 -0.6491 -1.1653 -0.3230
  167DOPC  C31320328   6.441   3.080  15.689  0.4707  0.0708 -0.5289
  167DOPC  H13X20329   6.334   3.104  15.705  0.0605 -1.6934 -0.3488
  167DOPC  H13Y20330   6.495   3.172  15.659  0.0117  0.5871  0.2010
  167DOPC  C31420331   6.431   2.991  15.563 -0.0130 -0.0323  0.3148
  167DOPC  H14X20332   6.531   2.953  15.532 -0.9341 -2.7744  0.4265
  167DOPC  H14Y20333   6.375   2.901  15.593  1.3819 -0.8101  0.6801
  167DOPC  C31520334   6.363   3.068  15.451  0.0898  0.4051  0.1261
  167DOPC  H15X20335   6.413   3.167  15.443 -1.5975  1.2252 -0.6933
  167DOPC  H15Y20336   6.260   3.092  15.486  0.5557  2.7706  0.0058
  167DOPC  C31620337   6.366   2.982  15.322  0.4223 -0.0655  0.2019
  167DOPC  H16X20338   6.474   2.987  15.296  0.3563  2.3009  0.1725
  167DOPC  H16Y20339   6.322   2.882  15.340  2.2197 -1.4271 -2.3974
  167DOPC  C31720340   6.275   3.049  15.216  0.8946 -0.1434 -0.2610
  167DOPC  H17X20341   6.177   3.058  15.269  0.6658 -2.2060 -0.2418
  167DOPC  H17Y20342   6.302   3.155  15.197 -0.4836  0.4084  0.6561
  167DOPC  C31820343   6.266   2.968  15.087 -0.0092  0.3752 -0.6897
  167DOPC  H18X20344   6.229   2.865  15.110 -0.1811  0.1501 -1.9240
  167DOPC  H18Y20345   6.195   3.019  15.018 -0.0098  1.4320  0.0732
  167DOPC  H18Z20346   6.366   2.960  15.040 -0.3126  0.8504 -1.4351
  168DOPC     N20347   2.055   1.375  17.925  0.1284 -0.4666 -0.2713
  168DOPC   C1220348   1.949   1.455  17.839 -0.5916 -1.1506 -0.6576
  168DOPC  H12A20349   1.941   1.559  17.868 -1.7833 -1.2055 -0.7378
  168DOPC  H12B20350   1.851   1.423  17.869 -1.6949  2.5561  0.1753
  168DOPC   C1320351   2.185   1.448  17.914 -0.5010  0.2138 -0.2073
  168DOPC  H13A20352   2.170   1.551  17.943 -0.5433 -0.1058  0.9305
  168DOPC  H13B20353   2.269   1.405  17.967 -1.1176 -1.3172 -0.4329
  168DOPC  H13C20354   2.222   1.447  17.812 -0.4719 -2.0384 -0.2233
  168DOPC   C1420355   2.070   1.230  17.886 -0.4220 -0.7577 -0.6189
  168DOPC  H14A20356   1.975   1.184  17.863  0.0651 -1.4792 -1.2167
  168DOPC  H14B20357   2.132   1.216  17.799 -1.2168 -0.8748 -1.1734
  168DOPC  H14C20358   2.113   1.186  17.975  0.9709 -0.6899 -1.2316
  168DOPC   C1520359   2.021   1.378  18.073 -0.6761  0.6262  0.5560
  168DOPC  H15A20360   1.945   1.304  18.094 -0.3556 -0.3849 -1.6422
  168DOPC  H15B20361   1.998   1.479  18.105  0.3927  0.4442  2.0311
  168DOPC  H15C20362   2.114   1.358  18.124  1.5650  2.7616 -2.4164
  168DOPC   C1120363   1.947   1.453  17.684 -0.8149 -0.1373 -0.6768
  168DOPC  H11A20364   1.869   1.521  17.644 -3.6835 -2.4930  0.4676
  168DOPC  H11B20365   2.043   1.494  17.648 -0.4803 -2.3164 -2.5056
  168DOPC     P20366   1.787   1.261  17.626 -0.1291 -0.0747  0.3867
  168DOPC   O1320367   1.706   1.322  17.733 -0.0150  0.2271  0.1050
  168DOPC   O1420368   1.794   1.116  17.617  0.3668 -0.3308 -0.4974
  168DOPC   O1220369   1.936   1.324  17.636 -0.9682  0.4005 -0.2053
  168DOPC   O1120370   1.733   1.309  17.480 -0.3021  0.2641 -0.5294
  168DOPC    C120371   1.825   1.324  17.372  0.1258 -0.1195 -0.4653
  168DOPC    HA20372   1.889   1.234  17.355  3.6179  1.6197  2.1834
  168DOPC    HB20373   1.900   1.404  17.389  1.0341 -0.9894 -0.2957
  168DOPC    C220374   1.750   1.363  17.242  0.6290 -0.0899 -0.9832
  168DOPC    HS20375   1.700   1.456  17.278  1.5276 -0.9260  2.9338
  168DOPC   O2120376   1.658   1.261  17.201  0.1801 -0.5517  0.3716
  168DOPC   C2120377   1.562   1.303  17.114  0.2295  0.0413  0.2683
  168DOPC   O2220378   1.521   1.418  17.100 -0.1783  0.3975 -0.3976
  168DOPC   C2220379   1.516   1.184  17.024  0.5294 -0.3057  0.3558
  168DOPC   H2R20380   1.457   1.113  17.086 -2.8084  1.4921 -0.5230
  168DOPC   H2S20381   1.607   1.143  16.976 -0.0050  1.9000 -2.8437
  168DOPC    C320382   1.857   1.393  17.135 -0.5865  0.9872  0.6330
  168DOPC    HX20383   1.925   1.306  17.121  0.6471  2.0493 -0.3223
  168DOPC    HY20384   1.916   1.476  17.179  1.3221 -0.2611  0.5494
  168DOPC   O3120385   1.798   1.421  17.005  0.3956  0.2053  0.0993
  168DOPC   C3120386   1.755   1.550  16.979 -0.1189 -0.0597  0.0264
  168DOPC   O3220387   1.756   1.642  17.055  0.5815  0.3281 -0.2980
  168DOPC   C3220388   1.727   1.563  16.830 -0.2876  0.0188 -0.0730
  168DOPC   H2X20389   1.685   1.467  16.793  1.7775 -0.0851 -2.4524
  168DOPC   H2Y20390   1.653   1.645  16.820  0.0209  0.2062 -0.8763
  168DOPC   C2320391   1.406   1.221  16.914 -0.6489 -0.7050 -0.0852
  168DOPC   H3R20392   1.323   1.278  16.960 -0.9412  0.7608 -2.2583
  168DOPC   H3S20393   1.352   1.137  16.866  0.6076 -0.8620 -1.2792
  168DOPC   C2420394   1.471   1.308  16.801  0.1506  0.7286  0.2036
  168DOPC   H4R20395   1.564   1.261  16.763 -0.5851 -0.6063 -0.0288
  168DOPC   H4S20396   1.496   1.406  16.847 -0.3131  0.0314  2.0240
  168DOPC   C2520397   1.380   1.321  16.677  0.7304 -0.0232  0.5660
  168DOPC   H5R20398   1.300   1.383  16.723  0.7369  0.4228 -0.0198
  168DOPC   H5S20399   1.352   1.222  16.638  1.7763  0.0524 -0.4153
  168DOPC   C2620400   1.440   1.415  16.569  0.2454  0.4204 -0.2507
  168DOPC   H6R20401   1.522   1.364  16.513 -0.9791  0.1594 -1.8836
  168DOPC   H6S20402   1.493   1.502  16.615  1.9727 -0.5527 -0.2970
  168DOPC   C2720403   1.340   1.461  16.464  0.0946  0.3994  0.4796
  168DOPC   H7R20404   1.256   1.498  16.526 -0.1591  2.7793 -1.1372
  168DOPC   H7S20405   1.307   1.369  16.410  1.4441 -1.6898  3.0005
  168DOPC   C2820406   1.391   1.570  16.365 -0.3884 -0.4557  0.6029
  168DOPC   H8R20407   1.447   1.638  16.432 -0.0124  1.5476 -1.6243
  168DOPC   H8S20408   1.303   1.619  16.318  0.9284 -0.1923 -1.7450
  168DOPC   C2920409   1.496   1.524  16.269 -0.4168 -0.0465 -0.7427
  168DOPC   H9R20410   1.596   1.510  16.313  0.1894 -1.2065 -2.4277
  168DOPC  C21020411   1.478   1.511  16.139 -0.0881  0.5054  0.0515
  168DOPC  H10R20412   1.560   1.472  16.077 -0.9138 -0.4939 -0.4493
  168DOPC  C21120413   1.351   1.524  16.057  0.7381 -0.5649 -0.5134
  168DOPC  H11R20414   1.259   1.510  16.118  2.3314  0.0057  2.1536
  168DOPC  H11S20415   1.358   1.443  15.982  0.5257 -0.3761 -0.7388
  168DOPC  C21220416   1.324   1.656  15.974 -0.3230  0.4158 -0.0381
  168DOPC  H12R20417   1.290   1.735  16.044 -0.7662 -2.4184  3.2186
  168DOPC  H12S20418   1.240   1.630  15.907 -0.4414  1.0490 -0.1407
  168DOPC  C21320419   1.446   1.708  15.898 -0.0095 -0.3486  0.2628
  168DOPC  H13R20420   1.496   1.627  15.841  0.2402 -0.6249  0.8665
  168DOPC  H13S20421   1.523   1.734  15.973  1.1075 -1.9029 -0.2975
  168DOPC  C21420422   1.415   1.837  15.815 -0.3103  0.2629  0.1068
  168DOPC  H14R20423   1.500   1.909  15.817 -1.2136  1.4251 -1.1492
  168DOPC  H14S20424   1.323   1.891  15.847 -0.7830 -0.2573 -0.3355
  168DOPC  C21520425   1.382   1.798  15.664 -0.1467 -0.1061 -0.3295
  168DOPC  H15R20426   1.296   1.728  15.673 -0.0232 -0.1149  0.9518
  168DOPC  H15S20427   1.460   1.740  15.611  1.3509  0.5679  1.0520
  168DOPC  C21620428   1.350   1.922  15.587  0.1324 -0.5325  0.3410
  168DOPC  H16R20429   1.440   1.986  15.570  0.6436 -1.0222  1.1346
  168DOPC  H16S20430   1.286   1.988  15.649 -0.2379  0.2663 -0.8430
  168DOPC  C21720431   1.286   1.907  15.447  0.6513  0.4485 -0.2134
  168DOPC  H17R20432   1.210   1.827  15.462 -1.2167  1.8829 -1.5547
  168DOPC  H17S20433   1.374   1.879  15.385 -0.6073  2.7273 -3.2997
  168DOPC  C21820434   1.216   2.036  15.400  0.6165 -0.2884 -0.4774
  168DOPC  H18R20435   1.178   2.021  15.297  1.3557 -1.1350 -0.6466
  168DOPC  H18S20436   1.292   2.117  15.397  0.6282 -0.3161 -1.3812
  168DOPC  H18T20437   1.131   2.076  15.457  0.7867 -1.0708  0.3470
  168DOPC   C3320438   1.841   1.615  16.740 -0.7879 -0.2101  0.6089
  168DOPC   H3X20439   1.924   1.542  16.738 -0.2524  0.2401  3.1670
  168DOPC   H3Y20440   1.885   1.709  16.779  2.2024 -0.6503 -1.3880
  168DOPC   C3420441   1.787   1.634  16.596 -0.2729 -0.1133 -0.1270
  168DOPC   H4X20442   1.719   1.722  16.597  0.9375  0.9108 -2.2067
  168DOPC   H4Y20443   1.750   1.540  16.551  0.6368 -0.5491  0.0155
  168DOPC   C3520444   1.899   1.680  16.502  0.5934  0.5040  0.4169
  168DOPC   H5X20445   1.976   1.600  16.505 -0.4462 -0.4923  1.1814
  168DOPC   H5Y20446   1.927   1.782  16.538  0.4404  0.1054  1.6772
  168DOPC   C3620447   1.851   1.691  16.350 -0.9072 -0.2910  0.7558
  168DOPC   H6X20448   1.825   1.597  16.297  1.0813 -1.7403  2.2156
  168DOPC   H6Y20449   1.771   1.767  16.349  1.3242  2.2565 -1.8424
  168DOPC   C3720450   1.961   1.757  16.264  0.0735 -0.0384 -0.0084
  168DOPC   H7X20451   1.981   1.864  16.287 -1.3075  0.3923 -0.6683
  168DOPC   H7Y20452   2.059   1.707  16.276  0.9951  0.9096 -2.9087
  168DOPC   C3820453   1.942   1.742  16.109 -0.0189 -0.0953 -0.2489
  168DOPC   H8X20454   1.940   1.633  16.086 -0.8474  0.3452 -2.4490
  168DOPC   H8Y20455   2.026   1.787  16.052 -0.5866  0.4254 -0.6844
  168DOPC   C3920456   1.817   1.806  16.066  1.0798  0.3760  0.0348
  168DOPC   H9X20457   1.727   1.790  16.128  0.4716  0.4948 -0.8027
  168DOPC  C31020458   1.804   1.878  15.950 -0.1153  0.4313  0.2584
  168DOPC  H10X20459   1.706   1.928  15.940 -0.7283 -0.6221  0.7661
  168DOPC  C31120460   1.897   1.916  15.842 -0.0670  0.0863  0.2738
  168DOPC  H11X20461   1.999   1.873  15.852 -0.6047 -1.8747 -1.7386
  168DOPC  H11Y20462   1.904   2.026  15.832 -0.9099 -0.0656 -4.6174
  168DOPC  C31220463   1.848   1.865  15.706  0.0154 -0.2017  0.2804
  168DOPC  H12X20464   1.756   1.918  15.673 -0.1674 -0.6234  0.1011
  168DOPC  H12Y20465   1.847   1.754  15.707  0.7927 -0.2195 -0.1413
  168DOPC  C31320466   1.956   1.908  15.603  0.3528  0.2359 -0.3139
  168DOPC  H13X20467   1.966   2.019  15.603 -0.5878  0.3379 -1.6600
  168DOPC  H13Y20468   2.046   1.855  15.639 -0.7108 -1.1302  0.3887
  168DOPC  C31420469   1.926   1.857  15.461 -0.0976  0.6859  0.3886
  168DOPC  H14X20470   1.923   1.746  15.455  0.0709  0.7633 -1.8822
  168DOPC  H14Y20471   1.825   1.890  15.431  0.7205  0.5660 -2.8677
  168DOPC  C31520472   2.022   1.911  15.364 -0.2104 -0.1559  0.0228
  168DOPC  H15X20473   2.020   1.846  15.273 -0.4598 -0.4553  0.2379
  168DOPC  H15Y20474   2.122   1.894  15.409  0.6396 -1.2037 -2.1140
  168DOPC  C31620475   2.008   2.055  15.314  1.0561  0.0112  0.3895
  168DOPC  H16X20476   1.926   2.040  15.241  1.0469  2.2812 -0.1631
  168DOPC  H16Y20477   1.980   2.124  15.397  1.6162  1.3885 -0.5261
  168DOPC  C31720478   2.136   2.097  15.252 -0.1667 -0.4718 -0.2404
  168DOPC  H17X20479   2.208   2.118  15.334  0.2589 -1.2615 -0.3948
  168DOPC  H17Y20480   2.176   2.013  15.190 -1.4806 -2.1150  1.0378
  168DOPC  C31820481   2.116   2.218  15.159 -0.0282  0.5083 -0.4969
  168DOPC  H18X20482   2.088   2.307  15.218 -1.4619 -0.8730  1.0355
  168DOPC  H18Y20483   2.202   2.239  15.093 -0.3913 -0.3134 -1.2547
  168DOPC  H18Z20484   2.030   2.180  15.099  0.0628 -2.8343  1.2415
  169DOPC     N20485   1.104   2.527  17.863 -0.2542  0.2453 -0.3397
  169DOPC   C1220486   1.153   2.460  17.739  0.3752 -0.4319 -0.0267
  169DOPC  H12A20487   1.212   2.529  17.681 -0.6045  1.4753  1.1673
  169DOPC  H12B20488   1.070   2.439  17.673 -0.7899  0.0790  1.2330
  169DOPC   C1320489   0.980   2.613  17.831  0.0939 -0.1944  0.1339
  169DOPC  H13A20490   0.944   2.663  17.919  0.1391  1.8520 -0.9361
  169DOPC  H13B20491   0.997   2.684  17.751  1.5081 -0.7176 -0.0638
  169DOPC  H13C20492   0.897   2.547  17.811  0.5939 -1.6595  2.5195
  169DOPC   C1420493   1.209   2.610  17.935  0.5206  0.9593 -0.4607
  169DOPC  H14A20494   1.169   2.649  18.027 -1.0336 -0.7874 -0.3426
  169DOPC  H14B20495   1.289   2.544  17.963  1.4455  2.4945  0.6934
  169DOPC  H14C20496   1.242   2.689  17.869 -0.2296  0.6476 -1.2379
  169DOPC   C1520497   1.050   2.432  17.959 -0.3060 -0.5194  0.2285
  169DOPC  H15A20498   0.974   2.368  17.919 -0.1690 -0.7236  0.2931
  169DOPC  H15B20499   1.008   2.474  18.049  1.7612  0.7683  0.6794
  169DOPC  H15C20500   1.128   2.364  17.989 -0.7694 -0.7423  0.9435
  169DOPC   C1120501   1.235   2.331  17.754 -0.8310  1.0255 -0.9937
  169DOPC  H11A20502   1.297   2.304  17.665  1.8175  1.2552  0.6579
  169DOPC  H11B20503   1.305   2.353  17.837 -1.4227 -0.5519 -0.0381
  169DOPC     P20504   1.072   2.136  17.712  0.2894  0.0298  0.0040
  169DOPC   O1320505   0.938   2.140  17.775 -0.4112  0.1341 -0.1118
  169DOPC   O1420506   1.135   2.006  17.678 -0.5576 -0.2115  0.0344
  169DOPC   O1220507   1.167   2.218  17.800  0.5272 -0.1505 -0.5421
  169DOPC   O1120508   1.071   2.232  17.585  0.7595 -0.1830  0.0882
  169DOPC    C120509   1.042   2.160  17.462 -0.0438 -0.5362  0.5695
  169DOPC    HA20510   0.986   2.065  17.473 -0.5222 -0.2414  0.6918
  169DOPC    HB20511   1.140   2.132  17.417  0.8367  2.2273  0.5730
  169DOPC    C220512   0.964   2.245  17.352  0.5850 -0.6435 -0.2168
  169DOPC    HS20513   1.020   2.334  17.317 -2.8020  0.9563 -2.0265
  169DOPC   O2120514   0.836   2.293  17.407 -0.0749  0.4752 -0.3640
  169DOPC   C2120515   0.843   2.405  17.488  0.6002  0.1452  0.2497
  169DOPC   O2220516   0.947   2.466  17.517  0.4829  0.2301  0.1460
  169DOPC   C2220517   0.712   2.455  17.532  0.1640 -0.1360 -0.7543
  169DOPC   H2R20518   0.720   2.475  17.641 -1.7618 -1.8733 -0.2396
  169DOPC   H2S20519   0.632   2.379  17.524  0.5476 -0.5201 -0.9528
  169DOPC    C320520   0.926   2.161  17.227  0.3528 -0.4225  0.0155
  169DOPC    HX20521   0.852   2.234  17.186  0.3940  1.0306  2.3543
  169DOPC    HY20522   0.858   2.078  17.255 -0.5251 -0.3373 -1.7045
  169DOPC   O3120523   1.034   2.121  17.147  0.1751  0.4878 -0.0089
  169DOPC   C3120524   1.006   2.047  17.041  0.2467 -0.1403  0.2848
  169DOPC   O3220525   0.891   2.018  17.004 -0.1193 -0.0123 -0.2779
  169DOPC   C3220526   1.132   1.998  16.979 -0.5286 -0.4788  0.2268
  169DOPC   H2X20527   1.215   2.066  17.008 -1.0068 -0.7013  2.2850
  169DOPC   H2Y20528   1.163   1.895  17.009 -0.0445 -0.8584 -1.4566
  169DOPC   C2320529   0.672   2.588  17.472  0.2848 -1.0041 -0.7644
  169DOPC   H3R20530   0.744   2.664  17.508  0.7741 -2.1735  0.8385
  169DOPC   H3S20531   0.569   2.616  17.504  1.1220  0.5740  0.7176
  169DOPC   C2420532   0.688   2.586  17.322  0.8602 -0.4030 -0.0007
  169DOPC   H4R20533   0.673   2.488  17.274 -0.1102 -0.8003  1.0649
  169DOPC   H4S20534   0.790   2.618  17.293  0.3234  1.2365 -0.2192
  169DOPC   C2520535   0.592   2.692  17.259  0.4026  0.4195 -0.2892
  169DOPC   H5R20536   0.599   2.796  17.298 -2.2167  0.6407 -0.2212
  169DOPC   H5S20537   0.490   2.661  17.292  1.3673 -0.0078  2.5672
  169DOPC   C2620538   0.570   2.692  17.109 -0.3988 -0.2439  0.0491
  169DOPC   H6R20539   0.518   2.597  17.083 -0.3763 -0.1843 -0.2228
  169DOPC   H6S20540   0.671   2.698  17.065 -0.4114  0.5274  0.1088
  169DOPC   C2720541   0.507   2.821  17.051 -0.2670 -0.3425 -0.2822
  169DOPC   H7R20542   0.554   2.906  17.104 -0.5066  0.0070 -0.6216
  169DOPC   H7S20543   0.399   2.820  17.077  0.1975  0.0756  1.7988
  169DOPC   C2820544   0.548   2.858  16.902  0.7259 -0.1802 -0.1017
  169DOPC   H8R20545   0.657   2.882  16.903  0.4568  1.4019  2.8276
  169DOPC   H8S20546   0.500   2.956  16.883  2.2506  0.8258  1.0195
  169DOPC   C2920547   0.510   2.770  16.786  0.1005  0.3147 -0.0443
  169DOPC   H9R20548   0.520   2.661  16.803 -0.3069 -0.1535 -2.4804
  169DOPC  C21020549   0.471   2.803  16.666  0.7191 -0.5195  1.3387
  169DOPC  H10R20550   0.426   2.725  16.603  1.1378 -1.5365  2.2553
  169DOPC  C21120551   0.459   2.937  16.606  0.2303 -0.2350 -0.2908
  169DOPC  H11R20552   0.509   3.017  16.665  2.2618  0.1864 -2.4317
  169DOPC  H11S20553   0.353   2.969  16.592  0.5862  0.7166 -0.9036
  169DOPC  C21220554   0.524   2.936  16.469 -0.7501  0.3221 -0.1314
  169DOPC  H12R20555   0.476   2.851  16.415  0.2088 -0.4413  0.1805
  169DOPC  H12S20556   0.633   2.913  16.473 -0.7120  0.4998 -0.1383
  169DOPC  C21320557   0.492   3.053  16.371 -0.0389 -0.4511 -0.2278
  169DOPC  H13R20558   0.548   3.144  16.399 -1.9367  0.2314  1.6593
  169DOPC  H13S20559   0.384   3.079  16.377  0.6634  3.4710 -2.0613
  169DOPC  C21420560   0.532   3.022  16.229  0.1889  0.5688 -0.4145
  169DOPC  H14R20561   0.490   2.926  16.193  2.8632 -0.9853  0.3013
  169DOPC  H14S20562   0.643   3.016  16.224  0.1178 -0.4860 -0.9771
  169DOPC  C21520563   0.499   3.143  16.135  0.2531  0.0704  0.6516
  169DOPC  H15R20564   0.556   3.231  16.173  2.2176 -0.4885 -0.8256
  169DOPC  H15S20565   0.394   3.178  16.145 -0.0341 -0.9816  1.4177
  169DOPC  C21620566   0.527   3.132  15.982 -0.2534 -0.1555  0.0772
  169DOPC  H16R20567   0.631   3.094  15.975  0.0625  0.6069  0.4922
  169DOPC  H16S20568   0.519   3.223  15.920  0.1747 -1.8697 -2.6424
  169DOPC  C21720569   0.441   3.019  15.925  0.3405 -0.5489  0.2406
  169DOPC  H17R20570   0.343   3.069  15.936  1.1492  1.6448 -1.6548
  169DOPC  H17S20571   0.456   2.927  15.985  3.7010 -0.3025 -0.0131
  169DOPC  C21820572   0.481   2.976  15.778  0.1930  0.2747 -0.5300
  169DOPC  H18R20573   0.580   2.925  15.782 -0.1181 -0.3300  3.1614
  169DOPC  H18S20574   0.488   3.056  15.702  0.4363 -2.4747 -3.5904
  169DOPC  H18T20575   0.409   2.897  15.748  0.7029 -1.2977  2.0259
  169DOPC   C3320576   1.135   1.996  16.824  0.3468 -0.4497  0.3332
  169DOPC   H3X20577   1.043   1.958  16.775 -1.4235  2.2582  1.3439
  169DOPC   H3Y20578   1.223   1.936  16.792  2.9102  1.8282  2.5278
  169DOPC   C3420579   1.155   2.141  16.773  0.8443 -0.3198  0.1658
  169DOPC   H4X20580   1.263   2.165  16.783  0.7252  0.2011  0.2412
  169DOPC   H4Y20581   1.100   2.215  16.834  2.1588 -0.8233  2.0498
  169DOPC   C3520582   1.115   2.161  16.624 -0.1746 -0.2343 -0.3752
  169DOPC   H5X20583   1.010   2.129  16.610  0.1966 -1.7332  0.0499
  169DOPC   H5Y20584   1.174   2.094  16.558  1.3061 -1.0527  1.6482
  169DOPC   C3620585   1.122   2.305  16.577  0.1939 -0.2675 -0.3602
  169DOPC   H6X20586   1.074   2.374  16.650 -1.8447 -2.4300  0.4450
  169DOPC   H6Y20587   1.227   2.338  16.564  0.2203  0.1477  0.7922
  169DOPC   C3720588   1.044   2.311  16.453 -0.0681  1.0470 -0.0393
  169DOPC   H7X20589   1.084   2.233  16.385  0.2284 -0.5097  1.8459
  169DOPC   H7Y20590   0.937   2.284  16.463  0.8297 -3.3872 -0.3114
  169DOPC   C3820591   1.078   2.438  16.366 -0.0620  0.0041 -0.3610
  169DOPC   H8X20592   1.183   2.436  16.329  0.6983 -3.1085  1.5209
  169DOPC   H8Y20593   1.067   2.513  16.447  1.9545  0.5230 -0.5070
  169DOPC   C3920594   0.971   2.481  16.269 -0.4083  0.0200  0.0326
  169DOPC   H9X20595   0.874   2.514  16.310 -0.5375 -0.6714  0.3015
  169DOPC  C31020596   0.991   2.488  16.136  0.8048  0.4594  0.2821
  169DOPC  H10X20597   0.909   2.526  16.075 -0.8117  0.0841  2.1197
  169DOPC  C31120598   1.115   2.457  16.054  0.0571  0.2733  1.1929
  169DOPC  H11X20599   1.214   2.480  16.100  1.2681  1.1048 -1.5777
  169DOPC  H11Y20600   1.131   2.523  15.966  0.1896 -0.6635  0.5034
  169DOPC  C31220601   1.122   2.307  16.017  0.1417 -0.0139 -0.0965
  169DOPC  H12X20602   1.103   2.256  16.114  0.8338 -0.2074 -0.0551
  169DOPC  H12Y20603   1.226   2.302  15.978  0.4615 -2.4475  0.8494
  169DOPC  C31320604   1.013   2.263  15.919 -0.1404 -0.1152 -0.3099
  169DOPC  H13X20605   1.006   2.152  15.919 -0.7791 -0.0997  0.9925
  169DOPC  H13Y20606   0.912   2.296  15.952 -0.4154  0.0430 -1.2806
  169DOPC  C31420607   1.042   2.287  15.774  0.1200 -0.6621  0.1938
  169DOPC  H14X20608   1.128   2.226  15.739 -1.2890 -3.7807  1.7320
  169DOPC  H14Y20609   0.952   2.242  15.727  0.5064  0.1363 -1.3789
  169DOPC  C31520610   1.045   2.439  15.729  0.2150  0.2841  0.0930
  169DOPC  H15X20611   1.148   2.475  15.748  0.0169  0.4695  0.8905
  169DOPC  H15Y20612   0.977   2.493  15.798  1.0632  0.3230  0.9144
  169DOPC  C31620613   0.999   2.462  15.588  0.0875  0.1532 -0.2467
  169DOPC  H16X20614   0.895   2.423  15.583  0.1321 -0.1280  0.8022
  169DOPC  H16Y20615   0.990   2.571  15.567  0.6450 -0.1778 -2.4374
  169DOPC  C31720616   1.094   2.408  15.482  0.1611  0.4953  0.0932
  169DOPC  H17X20617   1.182   2.476  15.481  0.2302  0.4865  2.1741
  169DOPC  H17Y20618   1.131   2.305  15.500  0.1585  0.5515  0.4254
  169DOPC  C31820619   1.024   2.415  15.345  0.3521  0.4422  0.0529
  169DOPC  H18X20620   0.963   2.506  15.328 -2.7396 -1.5792 -0.3141
  169DOPC  H18Y20621   1.099   2.414  15.263  0.4509  2.3166  0.0779
  169DOPC  H18Z20622   0.957   2.328  15.333 -0.5285  1.1722 -0.4985
  170DOPC     N20623   6.308   0.748  18.062 -0.3114 -0.1547 -0.6064
  170DOPC   C1220624   6.302   0.831  17.937  0.8114 -0.6490 -1.1815
  170DOPC  H12A20625   6.253   0.923  17.962  0.5133 -1.0262 -0.3431
  170DOPC  H12B20626   6.240   0.787  17.860 -0.0780  1.1082 -1.5209
  170DOPC   C1320627   6.173   0.686  18.085 -0.3308  0.1432 -0.5978
  170DOPC  H13A20628   6.102   0.753  18.130  1.2814  1.1194  0.5922
  170DOPC  H13B20629   6.133   0.638  17.997 -2.2491 -1.3575  0.9900
  170DOPC  H13C20630   6.184   0.599  18.148  0.4394 -0.9927 -2.2367
  170DOPC   C1420631   6.340   0.831  18.185  0.1906  0.2028  0.5504
  170DOPC  H14A20632   6.267   0.908  18.204  0.8808  1.6159 -2.1013
  170DOPC  H14B20633   6.341   0.764  18.271 -0.2811  3.0582  2.9284
  170DOPC  H14C20634   6.434   0.883  18.189  0.5595 -0.3806 -0.2918
  170DOPC   C1520635   6.413   0.644  18.053 -0.2718 -0.0730 -0.5409
  170DOPC  H15A20636   6.405   0.586  17.962 -0.7395  0.3865 -0.7961
  170DOPC  H15B20637   6.417   0.575  18.135 -1.7968 -0.8415 -1.0704
  170DOPC  H15C20638   6.505   0.697  18.033  0.0388  0.6733  2.4631
  170DOPC   C1120639   6.432   0.869  17.864  0.2116 -0.1555 -0.0367
  170DOPC  H11A20640   6.411   0.947  17.789 -1.0707  1.1331  1.5680
  170DOPC  H11B20641   6.515   0.913  17.923 -0.0674 -1.0104  1.0448
  170DOPC     P20642   6.413   0.698  17.657  0.0513  0.0290  0.3189
  170DOPC   O1320643   6.262   0.699  17.664  0.4543 -0.1418 -0.4455
  170DOPC   O1420644   6.473   0.562  17.650  0.3071  0.1516 -0.1292
  170DOPC   O1220645   6.475   0.754  17.795  1.0017  0.2521 -0.2992
  170DOPC   O1120646   6.461   0.800  17.550 -0.2277 -0.6510  0.5070
  170DOPC    C120647   6.607   0.820  17.535  0.4670 -0.3013 -0.1387
  170DOPC    HA20648   6.661   0.725  17.515 -0.5346 -0.5428 -1.8773
  170DOPC    HB20649   6.660   0.850  17.628  0.1890  1.2438 -0.4492
  170DOPC    C220650   6.633   0.920  17.410 -0.1040 -0.2585  0.0524
  170DOPC    HS20651   6.733   0.960  17.437  0.9030 -2.6409  0.0670
  170DOPC   O2120652   6.533   1.020  17.388 -0.2919 -0.8753 -0.1130
  170DOPC   C2120653   6.513   1.106  17.490 -0.1623 -0.8232 -0.1141
  170DOPC   O2220654   6.586   1.107  17.593  0.1135 -0.6775  0.1468
  170DOPC   C2220655   6.387   1.189  17.474  0.0288  0.2100 -0.6207
  170DOPC   H2R20656   6.351   1.219  17.574 -1.6409  0.1914 -1.1768
  170DOPC   H2S20657   6.304   1.123  17.438 -0.4359 -0.5658  1.7011
  170DOPC    C320658   6.650   0.842  17.276  0.2452  0.1767 -0.2669
  170DOPC    HX20659   6.548   0.823  17.236 -0.2304  1.7157  0.1366
  170DOPC    HY20660   6.708   0.752  17.306 -3.2353 -1.5952  1.8096
  170DOPC   O3120661   6.726   0.925  17.184  0.2069 -0.1644 -0.3763
  170DOPC   C3120662   6.861   0.919  17.199 -0.1800  0.0279 -0.4712
  170DOPC   O3220663   6.920   0.830  17.256  0.5819 -0.0369  0.2334
  170DOPC   C3220664   6.927   1.048  17.126 -0.1429 -0.5641 -0.0712
  170DOPC   H2X20665   6.925   1.137  17.193  3.4751  1.1684 -1.9759
  170DOPC   H2Y20666   7.035   1.033  17.106  0.1167 -1.3077  1.7025
  170DOPC   C2320667   6.402   1.314  17.382  0.2252 -0.0874  0.4086
  170DOPC   H3R20668   6.454   1.277  17.291 -0.9336 -1.1441  0.1546
  170DOPC   H3S20669   6.466   1.393  17.425  1.3321 -1.0858  0.6525
  170DOPC   C2420670   6.265   1.382  17.360  0.7544  0.0847 -0.2129
  170DOPC   H4R20671   6.226   1.389  17.463 -0.8656 -0.6223 -0.7454
  170DOPC   H4S20672   6.205   1.307  17.304  1.1736 -0.2859 -0.1763
  170DOPC   C2520673   6.264   1.513  17.272  0.4824  0.9178  0.8766
  170DOPC   H5R20674   6.337   1.587  17.310  0.7722  1.0565  0.0849
  170DOPC   H5S20675   6.161   1.548  17.295 -0.3016  0.3964 -1.5452
  170DOPC   C2620676   6.276   1.487  17.122  0.4909 -0.2173  0.2801
  170DOPC   H6R20677   6.381   1.466  17.091  1.4362  2.4436  1.4137
  170DOPC   H6S20678   6.249   1.587  17.082 -0.4969 -0.2015  0.9518
  170DOPC   C2720679   6.190   1.380  17.053  0.0008  0.2369 -0.3078
  170DOPC   H7R20680   6.101   1.354  17.115  0.6946 -1.8728 -0.0999
  170DOPC   H7S20681   6.248   1.287  17.069 -2.1046 -0.7274  2.8137
  170DOPC   C2820682   6.159   1.423  16.913  0.4259  0.4346  0.2799
  170DOPC   H8R20683   6.249   1.436  16.848 -0.1326  2.1829 -0.2115
  170DOPC   H8S20684   6.106   1.520  16.901  0.2591  0.2133 -0.9749
  170DOPC   C2920685   6.058   1.321  16.864 -0.4041 -0.1360  0.2052
  170DOPC   H9R20686   5.981   1.309  16.941 -0.3948  1.8924  0.6030
  170DOPC  C21020687   6.060   1.246  16.749  0.2062  0.3151  0.2740
  170DOPC  H10R20688   5.982   1.171  16.729 -1.2145  1.9010 -0.4012
  170DOPC  C21120689   6.157   1.261  16.630 -0.9528  0.0539  0.4579
  170DOPC  H11R20690   6.240   1.189  16.641 -1.5692 -0.6819  0.3686
  170DOPC  H11S20691   6.207   1.360  16.643  0.3185 -0.6196  0.8405
  170DOPC  C21220692   6.080   1.241  16.498 -0.1138  0.1752 -0.1859
  170DOPC  H12R20693   5.987   1.301  16.490 -1.3546 -1.6793 -0.2482
  170DOPC  H12S20694   6.052   1.135  16.482 -0.4134 -0.0435  1.5763
  170DOPC  C21320695   6.178   1.263  16.378 -0.0811 -0.3245 -0.0460
  170DOPC  H13R20696   6.265   1.195  16.391 -0.4876 -0.6062  1.4523
  170DOPC  H13S20697   6.202   1.371  16.371 -0.8063 -0.0312  1.5192
  170DOPC  C21420698   6.108   1.221  16.251 -0.6113 -0.4038  0.3015
  170DOPC  H14R20699   6.006   1.264  16.246 -0.6576 -0.5653 -0.2357
  170DOPC  H14S20700   6.101   1.112  16.233  1.2922 -0.9036  2.2592
  170DOPC  C21520701   6.177   1.268  16.121 -0.8390 -0.2240 -0.2656
  170DOPC  H15R20702   6.281   1.229  16.123 -0.3845  0.2064 -4.7497
  170DOPC  H15S20703   6.187   1.379  16.122 -2.1891 -0.0748 -1.2295
  170DOPC  C21620704   6.115   1.208  15.988  0.5004  0.2558 -0.5325
  170DOPC  H16R20705   6.005   1.206  16.001  0.6628  1.0423  1.2255
  170DOPC  H16S20706   6.164   1.109  15.975  1.3546  0.9823 -4.0685
  170DOPC  C21720707   6.150   1.290  15.864  0.2192 -0.3204 -0.2773
  170DOPC  H17R20708   6.121   1.397  15.871 -0.8895 -0.6525  0.6792
  170DOPC  H17S20709   6.089   1.248  15.781  0.1400  2.2127 -1.6168
  170DOPC  C21820710   6.298   1.299  15.831 -0.0822 -0.0633 -0.3446
  170DOPC  H18R20711   6.351   1.298  15.929  1.8737 -0.5471 -1.3436
  170DOPC  H18S20712   6.337   1.394  15.789  2.3324  0.1853  2.0984
  170DOPC  H18T20713   6.329   1.205  15.782  1.1966 -0.1124  0.5005
  170DOPC   C3320714   6.848   1.070  16.993  0.0241 -0.4955 -0.0299
  170DOPC   H3X20715   6.889   1.165  16.954 -0.0884  1.0286  3.1963
  170DOPC   H3Y20716   6.739   1.089  17.004 -0.5586 -1.0664 -3.5551
  170DOPC   C3420717   6.879   0.975  16.876  0.0165 -0.4362 -0.3331
  170DOPC   H4X20718   6.855   0.874  16.915  0.4096 -0.6182 -0.5527
  170DOPC   H4Y20719   6.990   0.986  16.869  0.3366 -0.9938  2.5579
  170DOPC   C3520720   6.826   1.035  16.745 -0.3573 -0.1464 -0.0006
  170DOPC   H5X20721   6.853   1.142  16.731  0.1692 -0.2358  0.3138
  170DOPC   H5Y20722   6.716   1.023  16.749 -0.2009 -1.2327  2.7277
  170DOPC   C3620723   6.879   0.965  16.614 -0.0596 -1.0122 -0.5303
  170DOPC   H6X20724   6.989   0.956  16.625  0.2523  2.0470 -0.3930
  170DOPC   H6Y20725   6.833   0.864  16.603 -1.5964 -0.6831  1.9096
  170DOPC   C3720726   6.863   1.051  16.485  0.1190 -0.0908 -0.1192
  170DOPC   H7X20727   6.755   1.062  16.462  0.0991 -1.3665 -0.7449
  170DOPC   H7Y20728   6.901   1.154  16.498 -0.9795  0.2093  0.9426
  170DOPC   C3820729   6.936   0.990  16.373  0.4038  0.2376  0.4118
  170DOPC   H8X20730   6.894   0.889  16.355 -1.7027  0.9244  1.1734
  170DOPC   H8Y20731   7.043   0.978  16.399  0.2657 -4.6696 -0.2497
  170DOPC   C3920732   6.933   1.076  16.251  0.1696  0.3203  0.8160
  170DOPC   H9X20733   6.923   1.182  16.280 -1.9293 -0.1274  1.9235
  170DOPC  C31020734   6.895   1.039  16.129 -0.5612 -0.0380 -0.2211
  170DOPC  H10X20735   6.885   1.114  16.048  0.1099 -0.7536 -0.9847
  170DOPC  C31120736   6.876   0.893  16.084 -0.1433  0.2213  0.0761
  170DOPC  H11X20737   6.768   0.867  16.095 -0.0516  0.5330  2.0724
  170DOPC  H11Y20738   6.930   0.817  16.145  1.7911  1.5723  0.1420
  170DOPC  C31220739   6.910   0.877  15.933 -0.2222  0.6877  0.2337
  170DOPC  H12X20740   6.906   0.770  15.901  1.6347  0.7829 -0.4524
  170DOPC  H12Y20741   7.020   0.893  15.928  0.2202 -2.1976 -2.4182
  170DOPC  C31320742   6.817   0.956  15.839 -0.4617 -0.7490  0.2941
  170DOPC  H13X20743   6.711   0.948  15.870 -0.0049 -1.1850  1.8364
  170DOPC  H13Y20744   6.838   1.064  15.842  0.5631 -0.9546  0.8180
  170DOPC  C31420745   6.827   0.907  15.695  0.2744  0.1010  0.4235
  170DOPC  H14X20746   6.922   0.959  15.670 -1.2978  2.7756 -0.3473
  170DOPC  H14Y20747   6.837   0.797  15.689 -0.0083  0.0036  1.4767
  170DOPC  C31520748   6.704   0.943  15.599 -0.4644  0.4131 -0.2216
  170DOPC  H15X20749   6.681   1.051  15.612  0.2954  0.8550 -2.2441
  170DOPC  H15Y20750   6.613   0.893  15.637 -1.4455  1.0228 -1.6842
  170DOPC  C31620751   6.732   0.898  15.458 -0.6927 -0.2351  0.0258
  170DOPC  H16X20752   6.814   0.965  15.427 -2.4587  2.6025  1.0787
  170DOPC  H16Y20753   6.758   0.791  15.470  0.9481  0.0820 -0.4427
  170DOPC  C31720754   6.620   0.929  15.351 -0.3445 -0.3072  0.4812
  170DOPC  H17X20755   6.524   0.883  15.385 -1.4183  0.7430 -0.9787
  170DOPC  H17Y20756   6.617   1.038  15.330  0.8658 -0.1245  1.1920
  170DOPC  C31820757   6.662   0.872  15.209  0.6443  0.3641  0.0669
  170DOPC  H18X20758   6.752   0.929  15.177  1.1656 -0.7710 -0.5681
  170DOPC  H18Y20759   6.688   0.764  15.209 -1.3708 -0.2027 -1.4282
  170DOPC  H18Z20760   6.578   0.888  15.138  1.7481 -0.2127 -1.4207
  171DOPC     N20761   3.391   4.813  11.782 -0.1117 -0.3752 -0.3656
  171DOPC   C1220762   3.320   4.821  11.917 -0.5661  0.0273  0.0225
  171DOPC  H12A20763   3.225   4.770  11.910 -1.0998  1.0283 -0.3730
  171DOPC  H12B20764   3.291   4.922  11.943 -3.0116 -0.7234  0.4818
  171DOPC   C1320765   3.306   4.870  11.673 -0.5752  0.6251 -0.1029
  171DOPC  H13A20766   3.338   4.852  11.572 -1.5773 -0.3060 -0.2670
  171DOPC  H13B20767   3.209   4.823  11.684  0.9951 -3.8024 -2.8731
  171DOPC  H13C20768   3.304   4.978  11.683  1.9607  0.6062  1.5987
  171DOPC   C1420769   3.415   4.672  11.750 -0.7780 -0.1193  0.5563
  171DOPC  H14A20770   3.450   4.658  11.649 -2.9495 -1.7694 -0.0387
  171DOPC  H14B20771   3.486   4.626  11.817 -0.6220 -0.4260  0.1859
  171DOPC  H14C20772   3.317   4.626  11.750  0.2094 -2.5460 -2.3710
  171DOPC   C1520773   3.522   4.885  11.797 -0.3042 -0.5528  0.1527
  171DOPC  H15A20774   3.519   4.993  11.801  0.9037 -0.5269  0.5819
  171DOPC  H15B20775   3.591   4.855  11.719  0.2096 -0.7679  0.6866
  171DOPC  H15C20776   3.568   4.854  11.890  0.1226  2.2288  0.9526
  171DOPC   C1120777   3.385   4.771  12.041 -1.3274 -0.1969 -0.7588
  171DOPC  H11A20778   3.298   4.764  12.110 -2.8850 -2.2724 -2.7919
  171DOPC  H11B20779   3.423   4.666  12.034  1.0129  0.5486 -0.2057
  171DOPC     P20780   3.571   4.821  12.218 -0.2012 -0.1616 -0.1275
  171DOPC   O1320781   3.629   4.945  12.271 -0.2649  0.0348 -0.2687
  171DOPC   O1420782   3.668   4.721  12.169  0.1335 -0.2121  0.5795
  171DOPC   O1220783   3.479   4.867  12.094 -0.0015 -0.0468 -0.4443
  171DOPC   O1120784   3.469   4.754  12.321 -0.1479  0.0177 -0.3676
  171DOPC    C120785   3.374   4.836  12.395  0.5381 -0.3172 -0.0029
  171DOPC    HA20786   3.276   4.785  12.397 -0.6642  1.8361 -0.7831
  171DOPC    HB20787   3.354   4.934  12.347 -3.6128 -1.4954 -1.0843
  171DOPC    C220788   3.424   4.858  12.539 -0.0893  0.2141 -0.4784
  171DOPC    HS20789   3.505   4.932  12.520 -0.8705  1.2777  0.2353
  171DOPC   O2120790   3.470   4.739  12.608 -0.0193  0.5586  0.8121
  171DOPC   C2120791   3.576   4.750  12.680 -0.6692  1.1904  0.0603
  171DOPC   O2220792   3.631   4.850  12.722 -0.0343 -0.5137 -0.0333
  171DOPC   C2220793   3.628   4.607  12.708 -0.4803 -0.1071 -0.0372
  171DOPC   H2R20794   3.649   4.560  12.609  1.7067  1.2237 -0.2889
  171DOPC   H2S20795   3.551   4.553  12.766 -0.3001  0.7421  1.0298
  171DOPC    C320796   3.311   4.917  12.629  0.4276  0.0703 -0.1993
  171DOPC    HX20797   3.231   4.839  12.627  2.8100 -2.4940 -1.5548
  171DOPC    HY20798   3.258   5.004  12.585 -1.2744  0.4118  2.2561
  171DOPC   O3120799   3.359   4.939  12.760  0.0128  0.1450  0.6837
  171DOPC   C3120800   3.428   5.052  12.779 -0.2819 -0.4390 -0.3234
  171DOPC   O3220801   3.462   5.136  12.695  0.4580  0.7309 -0.2692
  171DOPC   C3220802   3.450   5.069  12.928 -0.4121  0.4395  0.3895
  171DOPC   H2X20803   3.347   5.069  12.970 -0.7636  1.9791 -0.4319
  171DOPC   H2Y20804   3.496   4.973  12.961 -0.1619  0.3026 -0.3398
  171DOPC   C2320805   3.764   4.613  12.796  0.1666  0.1709 -0.0428
  171DOPC   H3R20806   3.845   4.671  12.747  0.6530 -0.2763  0.2268
  171DOPC   H3S20807   3.798   4.508  12.808 -1.0422 -0.3760 -1.1335
  171DOPC   C2420808   3.756   4.673  12.932  0.3229  0.0139 -0.0975
  171DOPC   H4R20809   3.756   4.784  12.935 -0.7863  0.0727  4.0787
  171DOPC   H4S20810   3.853   4.644  12.978 -0.4801 -0.0682  1.6113
  171DOPC   C2520811   3.630   4.619  13.015 -0.0883 -0.1647  0.2356
  171DOPC   H5R20812   3.617   4.510  13.004  1.5736 -0.3631  0.0550
  171DOPC   H5S20813   3.541   4.672  12.974  0.9592  0.7580 -0.9460
  171DOPC   C2620814   3.645   4.659  13.163  0.3962  0.6942 -0.5811
  171DOPC   H6R20815   3.549   4.623  13.207  0.4438 -0.3212 -1.2686
  171DOPC   H6S20816   3.635   4.769  13.167  1.8156  0.8131  0.7096
  171DOPC   C2720817   3.776   4.609  13.239 -0.4906  0.1347 -0.4607
  171DOPC   H7R20818   3.863   4.673  13.216 -0.3989  1.3418  2.7547
  171DOPC   H7S20819   3.787   4.501  13.214 -0.8218  0.1483 -0.6760
  171DOPC   C2820820   3.753   4.618  13.393  0.0588  0.2252  0.4096
  171DOPC   H8R20821   3.803   4.536  13.447  0.9264  1.2940  1.2591
  171DOPC   H8S20822   3.644   4.599  13.404  0.5232 -2.0614  1.6030
  171DOPC   C2920823   3.783   4.745  13.463 -0.8931 -0.5172  0.6660
  171DOPC   H9R20824   3.769   4.833  13.399 -0.1550 -1.0589 -0.2520
  171DOPC  C21020825   3.845   4.765  13.582 -0.0607 -0.0616  0.5564
  171DOPC  H10R20826   3.863   4.870  13.608 -1.0054  0.6380 -1.4432
  171DOPC  C21120827   3.886   4.652  13.679  0.1976 -0.1230 -0.1200
  171DOPC  H11R20828   3.983   4.607  13.650  0.1881 -1.6331  1.9322
  171DOPC  H11S20829   3.818   4.566  13.663 -0.9529  0.7353 -0.0057
  171DOPC  C21220830   3.887   4.694  13.823 -0.2119 -0.2535  0.2099
  171DOPC  H12R20831   3.944   4.787  13.842 -0.5842 -0.4631  2.8197
  171DOPC  H12S20832   3.938   4.609  13.874 -1.5726 -0.5581  1.1226
  171DOPC  C21320833   3.745   4.714  13.881 -0.4393 -0.1317 -0.6715
  171DOPC  H13R20834   3.706   4.610  13.873 -3.4903  0.9683 -1.4761
  171DOPC  H13S20835   3.693   4.783  13.811 -1.1319 -0.6551 -0.6780
  171DOPC  C21420836   3.747   4.764  14.025 -0.3295 -0.2739  0.4356
  171DOPC  H14R20837   3.647   4.775  14.072  1.0477 -1.2028  3.8742
  171DOPC  H14S20838   3.811   4.855  14.030 -1.3246  0.6440 -2.1069
  171DOPC  C21520839   3.821   4.654  14.112  0.0816  0.0544 -0.6142
  171DOPC  H15R20840   3.928   4.648  14.082  0.0330 -2.8993 -0.4863
  171DOPC  H15S20841   3.768   4.558  14.091  0.1621  0.3148 -2.1689
  171DOPC  C21620842   3.805   4.685  14.269  0.8188  0.4569 -0.4872
  171DOPC  H16R20843   3.697   4.686  14.295  0.9738 -1.3805  0.4163
  171DOPC  H16S20844   3.863   4.777  14.290  1.0845 -0.1378  1.5600
  171DOPC  C21720845   3.868   4.583  14.362  0.4811  0.9134 -0.4230
  171DOPC  H17R20846   3.979   4.588  14.368  0.4698  0.5942  0.0726
  171DOPC  H17S20847   3.836   4.483  14.326 -2.7853  1.9062 -0.6513
  171DOPC  C21820848   3.819   4.599  14.501  0.4859  0.4787  0.2020
  171DOPC  H18R20849   3.859   4.694  14.543  1.1101  1.6232 -2.7492
  171DOPC  H18S20850   3.849   4.510  14.560  0.4023  0.1094 -0.3116
  171DOPC  H18T20851   3.709   4.606  14.493  0.5055  2.1810  0.9626
  171DOPC   C3320852   3.532   5.194  12.962 -0.5388 -0.6912 -0.2042
  171DOPC   H3X20853   3.466   5.282  12.943 -0.8677 -0.9263 -0.1616
  171DOPC   H3Y20854   3.628   5.202  12.907 -0.7413 -0.7056 -0.5640
  171DOPC   C3420855   3.561   5.201  13.115  0.4449 -0.3060 -0.2173
  171DOPC   H4X20856   3.464   5.209  13.168  0.5429 -0.3445 -0.0325
  171DOPC   H4Y20857   3.620   5.293  13.130 -0.5998  0.3983 -0.3247
  171DOPC   C3520858   3.647   5.090  13.169  0.3324  0.2656  0.5538
  171DOPC   H5X20859   3.734   5.094  13.100  0.3219 -1.4808  0.3825
  171DOPC   H5Y20860   3.594   4.993  13.161 -1.1339  1.1806 -1.6458
  171DOPC   C3620861   3.701   5.094  13.313 -0.0878 -0.4461  0.1180
  171DOPC   H6X20862   3.774   5.011  13.328  1.7834  1.1410  0.2452
  171DOPC   H6Y20863   3.746   5.195  13.313  0.4360 -0.6416  1.9146
  171DOPC   C3720864   3.576   5.082  13.408 -0.0671 -0.2460  0.0747
  171DOPC   H7X20865   3.498   5.147  13.362 -0.4016 -0.4321  0.3742
  171DOPC   H7Y20866   3.530   4.981  13.406 -0.6738 -0.1292  3.2914
  171DOPC   C3820867   3.603   5.122  13.552  0.0281 -0.1874  0.7607
  171DOPC   H8X20868   3.651   5.222  13.545 -0.1033 -0.1507  0.3594
  171DOPC   H8Y20869   3.674   5.052  13.601 -1.8149 -2.3123  0.5577
  171DOPC   C3920870   3.474   5.148  13.629  0.1384  0.1523  0.6004
  171DOPC   H9X20871   3.386   5.173  13.567 -0.6972 -0.7849  1.3699
  171DOPC  C31020872   3.440   5.115  13.757  0.0676 -0.1663  0.1410
  171DOPC  H10X20873   3.353   5.167  13.799  0.1017  1.2626 -1.4058
  171DOPC  C31120874   3.527   5.049  13.862 -0.6541 -0.1953  0.1724
  171DOPC  H11X20875   3.619   5.017  13.808 -1.6378 -0.5769 -1.3398
  171DOPC  H11Y20876   3.483   4.949  13.886 -0.6872 -0.7155 -1.8828
  171DOPC  C31220877   3.569   5.143  13.986 -0.0821  0.4115 -0.4141
  171DOPC  H12X20878   3.614   5.234  13.942 -0.4549  0.1225 -1.4408
  171DOPC  H12Y20879   3.643   5.099  14.057 -0.8559 -1.2201 -0.5683
  171DOPC  C31320880   3.454   5.190  14.075 -0.1526  0.2363  0.6173
  171DOPC  H13X20881   3.498   5.272  14.136  0.1359  0.5030  0.0639
  171DOPC  H13Y20882   3.383   5.242  14.007  1.8045  0.0488 -1.7413
  171DOPC  C31420883   3.381   5.073  14.143  0.1747 -0.3424  0.0322
  171DOPC  H14X20884   3.289   5.114  14.189 -0.0504  1.2053 -1.6558
  171DOPC  H14Y20885   3.353   5.010  14.055  0.5164  0.3492 -0.5848
  171DOPC  C31520886   3.464   4.990  14.243 -0.2270  0.2222 -0.5209
  171DOPC  H15X20887   3.555   4.955  14.189 -0.6776  3.5925 -3.8908
  171DOPC  H15Y20888   3.410   4.899  14.277  1.8107 -1.1436 -0.7269
  171DOPC  C31620889   3.515   5.066  14.362 -0.1026 -0.5580 -0.0013
  171DOPC  H16X20890   3.599   5.138  14.349 -2.1217  1.6397 -2.0243
  171DOPC  H16Y20891   3.431   5.130  14.396  0.6250 -0.1556  1.0754
  171DOPC  C31720892   3.533   4.969  14.474  0.2482 -0.5683 -0.3447
  171DOPC  H17X20893   3.446   4.902  14.488 -0.1149  0.0423  0.4513
  171DOPC  H17Y20894   3.600   4.886  14.442  0.9998 -1.3950  2.9845
  171DOPC  C31820895   3.584   5.028  14.603  0.4936  0.2857 -0.2613
  171DOPC  H18X20896   3.576   4.947  14.677  0.7162  0.3506 -0.1676
  171DOPC  H18Y20897   3.686   5.072  14.598  0.2668  1.7320  4.0332
  171DOPC  H18Z20898   3.517   5.109  14.640 -1.7030 -1.5383 -0.0249
  172DOPC     N20899   3.113   0.042  11.800 -0.5946 -0.0475  0.1633
  172DOPC   C1220900   3.053   0.050  11.938 -1.0793 -0.0899  0.5252
  172DOPC  H12A20901   2.975   0.125  11.935 -1.3121 -0.1488  2.8840
  172DOPC  H12B20902   3.133   0.084  12.003 -0.8562 -0.5007  0.4741
  172DOPC   C1320903   3.230  -0.058  11.800  0.4876  0.0595  0.5211
  172DOPC  H13A20904   3.268  -0.063  11.699  0.4326  1.3278  0.4149
  172DOPC  H13B20905   3.307  -0.036  11.872  1.6330 -0.8970 -0.3833
  172DOPC  H13C20906   3.197  -0.154  11.835 -0.8635  1.3334  3.0756
  172DOPC   C1420907   3.165   0.180  11.770 -0.1912 -0.2656 -0.0073
  172DOPC  H14A20908   3.233   0.172  11.687  1.6812 -0.7298  1.4954
  172DOPC  H14B20909   3.093   0.255  11.741  0.3327  0.7020  1.0610
  172DOPC  H14C20910   3.224   0.218  11.853 -3.2856  2.4567  1.1737
  172DOPC   C1520911   3.021  -0.009  11.691 -0.6408  0.2767 -0.5751
  172DOPC  H15A20912   2.950   0.066  11.659  0.8230  0.7905 -2.8076
  172DOPC  H15B20913   2.975  -0.101  11.722 -0.4548  0.8248  1.4789
  172DOPC  H15C20914   3.084  -0.028  11.606 -1.9337 -1.9003 -1.1173
  172DOPC   C1120915   2.996  -0.075  11.999  0.5546  0.3720  0.7917
  172DOPC  H11A20916   3.071  -0.157  11.997 -0.0103 -0.1372 -0.0940
  172DOPC  H11B20917   2.977  -0.060  12.107  1.8425  0.5032  1.0231
  172DOPC     P20918   2.745  -0.037  11.941  0.0133 -0.1026  0.3075
  172DOPC   O1320919   2.659  -0.069  11.827  0.2451 -0.2110 -0.5064
  172DOPC   O1420920   2.771   0.106  11.965  0.9873 -0.2127 -0.1665
  172DOPC   O1220921   2.875  -0.124  11.931 -0.6600  0.1614  0.4722
  172DOPC   O1120922   2.673  -0.103  12.066 -0.1695 -0.0897  0.6193
  172DOPC    C120923   2.680  -0.240  12.099  0.0546  0.6175 -0.5475
  172DOPC    HA20924   2.706  -0.312  12.018 -1.9804 -3.2235  1.8999
  172DOPC    HB20925   2.579  -0.275  12.128  0.6559 -0.1451  0.7393
  172DOPC    C220926   2.777  -0.275  12.219  0.1034 -0.3595  0.3744
  172DOPC    HS20927   2.881  -0.264  12.181 -0.8535  2.2360 -1.8247
  172DOPC   O2120928   2.747  -0.409  12.251 -0.0695  0.4539 -0.1228
  172DOPC   C2120929   2.845  -0.475  12.317 -0.1181  0.2135  0.2135
  172DOPC   O2220930   2.954  -0.436  12.342  0.1389 -0.5161  0.0183
  172DOPC   C2220931   2.796  -0.615  12.358  0.0254 -0.3093 -0.1494
  172DOPC   H2R20932   2.896  -0.662  12.367  1.5199  2.1112 -2.4123
  172DOPC   H2S20933   2.747  -0.660  12.269 -2.4124  0.5315  0.6910
  172DOPC    C320934   2.747  -0.169  12.330  0.5555  0.0140 -0.4570
  172DOPC    HX20935   2.637  -0.179  12.341  0.5195  0.0585 -0.7729
  172DOPC    HY20936   2.765  -0.067  12.290  0.8203 -1.2417 -3.8637
  172DOPC   O3120937   2.808  -0.192  12.455 -0.1469 -0.6367  0.5036
  172DOPC   C3120938   2.934  -0.139  12.465 -0.4957  0.0440  0.2923
  172DOPC   O3220939   3.001  -0.095  12.375  0.6072 -0.3134  0.8339
  172DOPC   C3220940   2.978  -0.157  12.615  0.0297 -0.0418  0.9851
  172DOPC   H2X20941   2.907  -0.100  12.678 -0.9878  0.0227 -0.1829
  172DOPC   H2Y20942   2.968  -0.266  12.635  0.8306 -0.4204 -0.4957
  172DOPC   C2320943   2.699  -0.621  12.481  0.7181 -0.4823 -0.2784
  172DOPC   H3R20944   2.601  -0.580  12.450  1.1822 -1.4035 -3.2675
  172DOPC   H3S20945   2.752  -0.575  12.567 -1.1994 -0.5776  1.0140
  172DOPC   C2420946   2.680  -0.765  12.533 -0.2296 -0.2212  0.1196
  172DOPC   H4R20947   2.778  -0.805  12.566  0.1264  1.1180  0.7430
  172DOPC   H4S20948   2.653  -0.830  12.446  0.3375  1.5361 -1.4352
  172DOPC   C2520949   2.577  -0.781  12.655 -0.1156 -0.4225  0.2824
  172DOPC   H5R20950   2.473  -0.767  12.619  0.0951  0.2537 -0.0833
  172DOPC   H5S20951   2.610  -0.698  12.721  1.3894  1.5120 -2.6641
  172DOPC   C2620952   2.575  -0.919  12.729  0.3322 -0.5943 -0.2619
  172DOPC   H6R20953   2.513  -0.898  12.818 -0.4609 -0.1972 -0.8921
  172DOPC   H6S20954   2.678  -0.941  12.764  0.5355  0.4138 -0.1736
  172DOPC   C2720955   2.516  -1.037  12.651  0.2814  0.0159 -0.4088
  172DOPC   H7R20956   2.584  -1.051  12.564 -2.4916 -0.3340 -2.6712
  172DOPC   H7S20957   2.424  -1.001  12.601  0.0597 -0.1479 -0.1219
  172DOPC   C2820958   2.498  -1.160  12.736 -0.0261  0.8467  0.0921
  172DOPC   H8R20959   2.468  -1.137  12.840 -1.1041 -0.5648  0.1241
  172DOPC   H8S20960   2.601  -1.199  12.747 -0.4289 -0.3228 -0.1325
  172DOPC   C2920961   2.396  -1.265  12.687 -0.8510 -0.1958  0.5064
  172DOPC   H9R20962   2.431  -1.337  12.611  1.3360  0.9217  0.3697
  172DOPC  C21020963   2.270  -1.281  12.722  0.9467 -0.0657 -0.0972
  172DOPC  H10R20964   2.219  -1.376  12.703 -0.7867  0.9440 -0.7704
  172DOPC  C21120965   2.187  -1.186  12.811 -0.2526 -0.3830  0.1130
  172DOPC  H11R20966   2.097  -1.153  12.755 -0.1463 -0.4254 -0.0842
  172DOPC  H11S20967   2.236  -1.092  12.845 -1.7885  0.0480  1.2238
  172DOPC  C21220968   2.140  -1.250  12.946 -0.0476  0.4565 -0.4226
  172DOPC  H12R20969   2.079  -1.341  12.927  1.0658 -0.7903  1.5812
  172DOPC  H12S20970   2.077  -1.174  12.995 -1.6107  0.5744 -2.4515
  172DOPC  C21320971   2.261  -1.277  13.042  0.0947 -0.2091  0.4094
  172DOPC  H13R20972   2.315  -1.181  13.055  0.6499 -0.7973  3.0867
  172DOPC  H13S20973   2.333  -1.348  12.996  0.6871  0.8539 -0.3511
  172DOPC  C21420974   2.226  -1.315  13.185 -0.1912 -0.2534 -0.3567
  172DOPC  H14R20975   2.169  -1.410  13.193 -0.5246 -0.0616 -0.4210
  172DOPC  H14S20976   2.146  -1.249  13.223 -1.9840 -2.7494  0.4907
  172DOPC  C21520977   2.351  -1.335  13.278  0.3296  0.3168 -0.1020
  172DOPC  H15R20978   2.423  -1.253  13.257  1.5733 -0.4820  0.8529
  172DOPC  H15S20979   2.405  -1.426  13.244 -1.4969 -0.7945 -0.1798
  172DOPC  C21620980   2.323  -1.331  13.428  0.0159  0.0618  0.1683
  172DOPC  H16R20981   2.413  -1.371  13.479 -0.9589 -0.6184  1.4135
  172DOPC  H16S20982   2.236  -1.399  13.441 -1.3515  1.4903 -1.1293
  172DOPC  C21720983   2.283  -1.194  13.495 -0.4311  0.4634  0.5863
  172DOPC  H17R20984   2.192  -1.147  13.453  1.3649  2.4559 -1.2952
  172DOPC  H17S20985   2.363  -1.118  13.484 -3.2787  4.2178  3.1488
  172DOPC  C21820986   2.266  -1.212  13.643 -0.0638 -0.5423  0.0214
  172DOPC  H18R20987   2.219  -1.119  13.683 -1.7228 -0.0627 -2.7253
  172DOPC  H18S20988   2.366  -1.234  13.685 -0.3902 -1.8194  0.1634
  172DOPC  H18T20989   2.203  -1.302  13.660 -1.2156  0.1416 -0.4348
  172DOPC   C3320990   3.123  -0.127  12.637 -0.0228 -0.0221 -0.8181
  172DOPC   H3X20991   3.137  -0.020  12.613 -3.8316  0.7447 -0.3331
  172DOPC   H3Y20992   3.178  -0.187  12.561 -0.3116  1.1911 -2.0213
  172DOPC   C3420993   3.166  -0.172  12.778  0.4256  0.2736 -0.3069
  172DOPC   H4X20994   3.275  -0.154  12.790  0.7080 -0.9522 -0.8394
  172DOPC   H4Y20995   3.158  -0.282  12.789  1.3040  0.4026  2.1235
  172DOPC   C3520996   3.096  -0.098  12.894  0.4830 -0.2352  0.2638
  172DOPC   H5X20997   2.985  -0.103  12.898  0.3008  2.3513 -0.2087
  172DOPC   H5Y20998   3.111   0.011  12.882 -2.5285  0.1406 -0.8401
  172DOPC   C3620999   3.146  -0.140  13.032 -0.2807 -0.5917  0.4078
  172DOPC   H6X21000   3.253  -0.112  13.041 -0.7005  2.2754 -1.7573
  172DOPC   H6Y21001   3.089  -0.068  13.095 -1.0272  1.2666 -2.2042
  172DOPC   C3721002   3.114  -0.280  13.065  0.5166  0.4200  0.1582
  172DOPC   H7X21003   3.004  -0.293  13.056  0.3573 -0.0424  2.3181
  172DOPC   H7Y21004   3.163  -0.355  13.000 -0.6451  2.5754 -3.5057
  172DOPC   C3821005   3.154  -0.316  13.208  0.0345 -0.2130 -0.6301
  172DOPC   H8X21006   3.129  -0.423  13.226  1.4329 -0.4271  0.1364
  172DOPC   H8Y21007   3.089  -0.264  13.281  1.8444  0.9453  0.2119
  172DOPC   C3921008   3.300  -0.294  13.228 -0.1019  0.8798 -0.3496
  172DOPC   H9X21009   3.360  -0.257  13.144  1.1774 -1.1646 -0.3837
  172DOPC  C31021010   3.368  -0.336  13.339  0.0797  0.1744  0.7054
  172DOPC  H10X21011   3.477  -0.320  13.350  0.1815 -0.4012  0.5447
  172DOPC  C31121012   3.315  -0.390  13.467  0.3456  0.8329  0.3722
  172DOPC  H11X21013   3.389  -0.463  13.507 -0.5063  0.1939  0.8277
  172DOPC  H11Y21014   3.222  -0.448  13.450  1.5408 -1.4072  1.0626
  172DOPC  C31221015   3.282  -0.290  13.583  0.1078 -0.1190  0.2096
  172DOPC  H12X21016   3.181  -0.245  13.566  0.5446  0.4413 -1.0394
  172DOPC  H12Y21017   3.354  -0.205  13.581 -1.0684  0.9213 -2.1873
  172DOPC  C31321018   3.285  -0.359  13.717 -0.5842 -0.0950 -0.2577
  172DOPC  H13X21019   3.204  -0.435  13.728 -1.0717  0.3025 -1.0136
  172DOPC  H13Y21020   3.385  -0.405  13.736 -1.5450 -1.8717  0.7888
  172DOPC  C31421021   3.278  -0.257  13.823  0.7306 -0.3274  0.6871
  172DOPC  H14X21022   3.352  -0.178  13.797 -1.7676  1.4472 -1.5038
  172DOPC  H14Y21023   3.175  -0.216  13.818  0.6049 -0.8162 -3.0125
  172DOPC  C31521024   3.299  -0.309  13.964 -0.5147 -0.1536  0.1218
  172DOPC  H15X21025   3.407  -0.336  13.968 -0.9013 -1.7026  1.8066
  172DOPC  H15Y21026   3.244  -0.399  14.000  1.1850 -1.0377  0.6120
  172DOPC  C31621027   3.270  -0.191  14.062  0.4893  0.6951  0.3053
  172DOPC  H16X21028   3.313  -0.098  14.020  2.3102 -0.5075 -0.6537
  172DOPC  H16Y21029   3.159  -0.184  14.058  0.3964 -0.5892  0.0270
  172DOPC  C31721030   3.328  -0.213  14.200  0.0982 -0.0709 -0.2744
  172DOPC  H17X21031   3.434  -0.244  14.196 -0.4282 -2.3011  1.2321
  172DOPC  H17Y21032   3.308  -0.112  14.243  0.5733 -0.8223  1.8037
  172DOPC  C31821033   3.263  -0.325  14.283 -0.0006 -0.4583 -0.5315
  172DOPC  H18X21034   3.302  -0.340  14.386 -0.1742 -0.7651 -0.5091
  172DOPC  H18Y21035   3.153  -0.305  14.287  0.2725  1.3581 -1.0927
  172DOPC  H18Z21036   3.277  -0.421  14.229 -0.3090  0.0726 -1.5856
  173DOPC     N21037   1.578   5.634  12.357 -0.0860 -0.0807  0.0933
  173DOPC   C1221038   1.431   5.595  12.367 -0.4951  0.0855  0.5724
  173DOPC  H12A21039   1.369   5.672  12.322  1.1182  0.7741 -0.5730
  173DOPC  H12B21040   1.408   5.600  12.472  0.2857  0.6534  0.7263
  173DOPC   C1321041   1.605   5.757  12.431 -0.0722  0.1590 -0.0210
  173DOPC  H13A21042   1.691   5.810  12.394 -1.5831  3.4533  0.7936
  173DOPC  H13B21043   1.517   5.820  12.435 -2.1810 -2.6213  2.3580
  173DOPC  H13C21044   1.633   5.737  12.534  3.1860 -0.5145 -0.9347
  173DOPC   C1421045   1.606   5.660  12.207  0.1789  0.4544 -0.4976
  173DOPC  H14A21046   1.700   5.710  12.192 -0.7328  2.3108 -0.3500
  173DOPC  H14B21047   1.614   5.568  12.152 -0.2602 -0.4868  0.9509
  173DOPC  H14C21048   1.526   5.716  12.160 -0.9520 -2.0479 -1.7578
  173DOPC   C1521049   1.662   5.526  12.412  0.1381  0.1782  0.1822
  173DOPC  H15A21050   1.765   5.555  12.400 -0.3497  2.0453  0.1140
  173DOPC  H15B21051   1.644   5.427  12.373  1.2597  0.4940 -1.2180
  173DOPC  H15C21052   1.652   5.514  12.519  2.8742  0.5602  0.5398
  173DOPC   C1121053   1.390   5.457  12.313  0.7714 -0.3468  0.4310
  173DOPC  H11A21054   1.279   5.450  12.323  0.4714  2.6483  0.2468
  173DOPC  H11B21055   1.422   5.451  12.207  2.4806 -0.6076  0.9314
  173DOPC     P21056   1.457   5.207  12.352  0.2366  0.3519 -0.2252
  173DOPC   O1321057   1.573   5.184  12.267 -0.1582 -0.5389 -0.2546
  173DOPC   O1421058   1.325   5.173  12.303 -0.6368  0.2257  0.4003
  173DOPC   O1221059   1.450   5.356  12.391 -0.1266  0.3635 -0.5340
  173DOPC   O1121060   1.486   5.136  12.496 -0.1603  0.4118  0.7732
  173DOPC    C121061   1.532   5.220  12.604 -0.4512 -0.1412 -0.6057
  173DOPC    HA21062   1.470   5.310  12.622 -1.0623 -0.9092  1.3605
  173DOPC    HB21063   1.633   5.262  12.583  0.2531 -0.7420  1.3765
  173DOPC    C221064   1.539   5.142  12.734 -0.1075 -0.1543  0.0127
  173DOPC    HS21065   1.559   5.217  12.814  0.9728  0.2708 -0.6271
  173DOPC   O2121066   1.640   5.035  12.731  0.2709  0.5951  0.2238
  173DOPC   C2121067   1.762   5.080  12.749  0.1259  0.4315 -0.4007
  173DOPC   O2221068   1.798   5.194  12.764  0.1812 -0.0003  0.3922
  173DOPC   C2221069   1.864   4.972  12.733  0.5808 -0.2432 -0.0673
  173DOPC   H2R21070   1.898   4.971  12.627  1.4885 -0.3808  0.2132
  173DOPC   H2S21071   1.819   4.872  12.753  2.4634 -0.8629  1.4718
  173DOPC    C321072   1.397   5.087  12.769  0.7542 -0.4723 -0.0513
  173DOPC    HX21073   1.349   5.018  12.696  0.7208 -1.1893  0.6327
  173DOPC    HY21074   1.338   5.181  12.763 -0.8322 -1.3655  0.6815
  173DOPC   O3121075   1.388   5.045  12.908  0.2909 -0.1739 -0.0065
  173DOPC   C3121076   1.426   4.916  12.929  0.5048  0.3268  0.0500
  173DOPC   O3221077   1.451   4.833  12.844 -0.5746 -0.8270  0.0902
  173DOPC   C3221078   1.417   4.884  13.078 -0.0940 -0.1883  0.5331
  173DOPC   H2X21079   1.314   4.850  13.100  1.0520 -2.2966  3.2603
  173DOPC   H2Y21080   1.473   4.791  13.106  2.2226  1.1917  0.7773
  173DOPC   C2321081   1.986   5.000  12.824 -0.5281  0.8056 -0.1502
  173DOPC   H3R21082   2.027   5.102  12.803  0.4867  0.1207 -1.7165
  173DOPC   H3S21083   2.074   4.935  12.803 -0.9105  0.3867 -0.4750
  173DOPC   C2421084   1.951   4.992  12.971  0.5397 -0.1815 -0.7499
  173DOPC   H4R21085   1.918   4.890  12.998 -1.6783  1.1704  2.1607
  173DOPC   H4S21086   1.868   5.062  12.993  2.5673  2.2887 -0.4905
  173DOPC   C2521087   2.066   5.036  13.061  0.4044  0.0816  0.5162
  173DOPC   H5R21088   2.082   5.144  13.040 -2.7913  0.5589 -0.0715
  173DOPC   H5S21089   2.155   4.980  13.026 -0.7466 -1.0868 -0.6505
  173DOPC   C2621090   2.055   5.030  13.211 -0.0384 -0.2244  0.3259
  173DOPC   H6R21091   1.993   4.943  13.238  2.3125 -1.4480  2.1582
  173DOPC   H6S21092   2.009   5.122  13.254  1.9989  1.2645 -0.4915
  173DOPC   C2721093   2.189   5.006  13.278 -0.6992  0.3074  0.5299
  173DOPC   H7R21094   2.254   5.093  13.257  0.9010 -1.4128 -2.3457
  173DOPC   H7S21095   2.246   4.915  13.246  1.3973  2.2754 -1.7670
  173DOPC   C2821096   2.164   4.996  13.431  0.3474 -0.7093 -0.4309
  173DOPC   H8R21097   2.107   4.901  13.442 -0.1652 -0.2368  1.6240
  173DOPC   H8S21098   2.102   5.084  13.459  0.2992 -1.2766  1.4037
  173DOPC   C2921099   2.286   4.975  13.520 -0.0813 -0.4254 -0.6658
  173DOPC   H9R21100   2.349   4.892  13.484 -1.0431 -1.2581 -0.4824
  173DOPC  C21021101   2.312   5.029  13.642  0.4416 -0.5506  0.1097
  173DOPC  H10R21102   2.404   4.991  13.688  2.4597  1.5956 -1.8802
  173DOPC  C21121103   2.221   5.127  13.713  0.8064 -0.3456 -0.1347
  173DOPC  H11R21104   2.111   5.113  13.703 -0.2003  2.3634  4.3265
  173DOPC  H11S21105   2.235   5.230  13.674 -0.8090 -0.7126 -1.8086
  173DOPC  C21221106   2.232   5.126  13.875  0.1803 -0.2240  0.2218
  173DOPC  H12R21107   2.335   5.161  13.896  0.2380 -0.6679  0.7038
  173DOPC  H12S21108   2.214   5.027  13.922 -1.6828 -0.0462 -0.0471
  173DOPC  C21321109   2.137   5.230  13.939  0.1921  0.3511  0.3420
  173DOPC  H13R21110   2.037   5.194  13.908 -0.2243  0.3082  1.6964
  173DOPC  H13S21111   2.150   5.330  13.892 -2.8768 -0.0152 -1.5363
  173DOPC  C21421112   2.149   5.250  14.090 -0.2481  0.5539 -0.2122
  173DOPC  H14R21113   2.103   5.346  14.121  2.2319  2.0100 -0.7826
  173DOPC  H14S21114   2.257   5.270  14.107  0.1858 -0.9604 -1.0097
  173DOPC  C21521115   2.108   5.131  14.181  0.0739 -0.5177  0.4362
  173DOPC  H15R21116   2.163   5.039  14.151  1.5744  0.5498 -0.1918
  173DOPC  H15S21117   2.004   5.099  14.158  1.0723 -2.5531 -1.7602
  173DOPC  C21621118   2.124   5.158  14.331 -0.0564  0.9102  0.6800
  173DOPC  H16R21119   2.081   5.069  14.382 -0.5066  1.2229  0.8567
  173DOPC  H16S21120   2.060   5.245  14.358 -0.6211  1.0339 -0.9782
  173DOPC  C21721121   2.266   5.179  14.375  0.8532 -0.2207 -0.2662
  173DOPC  H17R21122   2.288   5.282  14.341 -0.8698 -0.0186 -0.8569
  173DOPC  H17S21123   2.339   5.113  14.323  0.8132 -0.7228  0.2966
  173DOPC  C21821124   2.275   5.171  14.527  0.0189  0.3633 -0.3088
  173DOPC  H18R21125   2.379   5.209  14.543  0.5397  0.1753 -2.7903
  173DOPC  H18S21126   2.269   5.065  14.561 -0.9804  0.4111 -0.3329
  173DOPC  H18T21127   2.205   5.247  14.567 -0.2028  0.2294 -0.4463
  173DOPC   C3321128   1.477   4.996  13.162  0.1206 -0.1516  1.1175
  173DOPC   H3X21129   1.445   4.969  13.265 -1.0855 -1.2318  0.4826
  173DOPC   H3Y21130   1.435   5.095  13.135 -0.1947 -0.3990  0.6864
  173DOPC   C3421131   1.628   4.989  13.151 -0.3099  0.3480  0.2206
  173DOPC   H4X21132   1.665   5.045  13.063 -1.1672  1.7431  0.7063
  173DOPC   H4Y21133   1.656   4.883  13.134  0.9758  1.1272 -3.5218
  173DOPC   C3521134   1.705   5.046  13.276  0.3375  0.4822  0.6569
  173DOPC   H5X21135   1.816   5.054  13.265  0.3364  1.2056  1.0977
  173DOPC   H5Y21136   1.693   4.985  13.368  1.3160  0.0687  0.5215
  173DOPC   C3621137   1.667   5.189  13.318  0.7619  0.5686 -0.7575
  173DOPC   H6X21138   1.561   5.203  13.349  1.0272 -0.4558  0.7195
  173DOPC   H6Y21139   1.728   5.212  13.407 -0.7325 -0.8943  0.7247
  173DOPC   C3721140   1.706   5.288  13.213  0.1472 -0.1797 -0.2232
  173DOPC   H7X21141   1.788   5.239  13.156 -0.5661  0.0186 -1.4571
  173DOPC   H7Y21142   1.612   5.310  13.159 -1.0085 -0.3176  1.6256
  173DOPC   C3821143   1.749   5.434  13.261 -0.0073 -0.1144  0.6010
  173DOPC   H8X21144   1.669   5.488  13.316  0.3979  0.5126  0.5767
  173DOPC   H8Y21145   1.775   5.482  13.165 -1.9330 -3.1692 -1.6582
  173DOPC   C3921146   1.867   5.447  13.349 -0.3376  1.1731  0.4141
  173DOPC   H9X21147   1.954   5.389  13.316 -0.9310  0.3969  0.1909
  173DOPC  C31021148   1.884   5.508  13.467 -0.5956 -0.1648 -0.6376
  173DOPC  H10X21149   1.984   5.504  13.512  0.1896  0.9980 -2.1603
  173DOPC  C31121150   1.774   5.564  13.549 -0.6670 -0.5505  0.3444
  173DOPC  H11X21151   1.676   5.529  13.510 -1.7639  2.8853 -0.3047
  173DOPC  H11Y21152   1.778   5.674  13.535  0.0873 -0.4955  0.9195
  173DOPC  C31221153   1.790   5.537  13.703  0.4451  0.0635 -0.0575
  173DOPC  H12X21154   1.830   5.438  13.735  1.0905 -0.7588 -3.1017
  173DOPC  H12Y21155   1.690   5.555  13.747  1.3395  1.5421  1.5290
  173DOPC  C31321156   1.885   5.635  13.777 -0.2975 -0.2171  0.5102
  173DOPC  H13X21157   1.987   5.627  13.735 -1.5601 -2.7468 -2.5538
  173DOPC  H13Y21158   1.845   5.738  13.760 -2.3528 -1.1725 -0.9162
  173DOPC  C31421159   1.897   5.603  13.932 -0.1301  0.4879 -0.1771
  173DOPC  H14X21160   1.794   5.614  13.973 -0.2818 -0.6750 -0.2149
  173DOPC  H14Y21161   1.941   5.502  13.948  1.3694  1.4169  2.3198
  173DOPC  C31521162   1.997   5.701  13.998  0.6182 -0.0553  0.2735
  173DOPC  H15X21163   1.954   5.803  13.989 -0.4047 -0.1702  2.9197
  173DOPC  H15Y21164   2.085   5.693  13.931 -1.3331 -1.7202 -2.2958
  173DOPC  C31621165   2.038   5.656  14.134 -0.4381  0.0255  0.1574
  173DOPC  H16X21166   1.976   5.711  14.208 -0.5152 -0.5045  0.4925
  173DOPC  H16Y21167   2.016   5.547  14.138 -2.5709  0.4419  1.5309
  173DOPC  C31721168   2.186   5.670  14.178 -0.2609 -0.2231 -0.2533
  173DOPC  H17X21169   2.248   5.616  14.102 -0.4261 -0.5692 -0.1433
  173DOPC  H17Y21170   2.213   5.778  14.180 -2.1197  0.2764 -0.8259
  173DOPC  C31821171   2.215   5.601  14.312  0.7208 -0.5417  1.0271
  173DOPC  H18X21172   2.322   5.581  14.334  1.1439 -0.2622 -0.6510
  173DOPC  H18Y21173   2.181   5.666  14.396  0.1529 -0.9445  1.1114
  173DOPC  H18Z21174   2.158   5.506  14.318  1.1469 -1.1398 -2.2166
  174DOPC     N21175   4.341   4.534  11.774 -0.2344  0.0637  0.2831
  174DOPC   C1221176   4.411   4.585  11.897 -0.7104  0.4337 -0.6948
  174DOPC  H12A21177   4.343   4.637  11.963  3.0084  4.3009  0.5313
  174DOPC  H12B21178   4.474   4.666  11.865 -0.5610 -0.1170 -1.8523
  174DOPC   C1321179   4.275   4.406  11.805  0.4200  0.2202  0.2632
  174DOPC  H13A21180   4.179   4.419  11.852  0.3471  0.0425  0.1614
  174DOPC  H13B21181   4.246   4.356  11.714 -0.5300  1.1024  0.0583
  174DOPC  H13C21182   4.334   4.353  11.878  3.1164  2.4403 -0.1325
  174DOPC   C1421183   4.445   4.489  11.667 -0.9669 -0.4997 -0.6406
  174DOPC  H14A21184   4.526   4.432  11.711 -0.6003 -0.6474 -1.5000
  174DOPC  H14B21185   4.394   4.434  11.590 -2.8497  0.4015 -0.1088
  174DOPC  H14C21186   4.490   4.579  11.628  2.4339 -1.8508 -0.2346
  174DOPC   C1521187   4.239   4.631  11.725  0.0194  0.3359 -0.5654
  174DOPC  H15A21188   4.278   4.730  11.706  0.3314  0.5708  1.1463
  174DOPC  H15B21189   4.170   4.664  11.802  2.3167  3.4497  0.3450
  174DOPC  H15C21190   4.183   4.597  11.639  2.9504  0.7580 -2.7992
  174DOPC   C1121191   4.517   4.490  11.976 -0.2962 -0.9132 -0.1871
  174DOPC  H11A21192   4.612   4.477  11.920  0.8816  0.8806  1.2726
  174DOPC  H11B21193   4.549   4.552  12.062  1.9993 -1.3677 -0.6532
  174DOPC     P21194   4.538   4.244  12.084  0.6074  0.0593 -0.2257
  174DOPC   O1321195   4.640   4.199  11.994  0.6747  0.0332 -0.5859
  174DOPC   O1421196   4.429   4.148  12.124 -0.3765 -0.3325  0.1221
  174DOPC   O1221197   4.459   4.369  12.029  0.3663  0.7157 -0.1050
  174DOPC   O1121198   4.599   4.302  12.219 -0.2794  0.6283  0.0793
  174DOPC    C121199   4.527   4.401  12.295 -0.2127  0.6008  0.3222
  174DOPC    HA21200   4.419   4.394  12.272 -0.1824 -0.4125  0.4611
  174DOPC    HB21201   4.561   4.501  12.260 -0.1121  0.5342  0.2273
  174DOPC    C221202   4.548   4.385  12.448 -0.3543 -0.2954  0.1579
  174DOPC    HS21203   4.653   4.406  12.475 -0.2525 -1.6514  0.9300
  174DOPC   O2121204   4.506   4.248  12.484 -0.4978  0.3915 -0.0312
  174DOPC   C2121205   4.576   4.200  12.586 -0.1224  0.5168 -0.2919
  174DOPC   O2221206   4.669   4.247  12.648 -0.4745 -0.2971 -0.1900
  174DOPC   C2221207   4.505   4.076  12.634 -0.6271  0.1726 -0.2035
  174DOPC   H2R21208   4.581   4.011  12.683 -1.6671 -0.4043  0.6832
  174DOPC   H2S21209   4.490   4.017  12.541  2.7005 -0.8443 -0.2569
  174DOPC    C321210   4.454   4.491  12.524 -0.1364  0.4003  0.2280
  174DOPC    HX21211   4.352   4.454  12.499  0.0879 -4.6433  4.8404
  174DOPC    HY21212   4.460   4.593  12.482  1.1817  0.8848  1.4796
  174DOPC   O3121213   4.475   4.488  12.666 -0.0958 -0.3100  0.7783
  174DOPC   C3121214   4.535   4.595  12.721 -0.2091 -0.0267 -0.3555
  174DOPC   O3221215   4.586   4.686  12.665  0.0930  0.8349 -0.2462
  174DOPC   C3221216   4.527   4.571  12.879  0.6794  0.5720  0.3967
  174DOPC   H2X21217   4.456   4.647  12.918  1.5398  1.1078  0.9402
  174DOPC   H2Y21218   4.490   4.467  12.893  1.4815  0.1539 -0.4910
  174DOPC   C2321219   4.372   4.087  12.702 -0.3727 -0.3462  0.1318
  174DOPC   H3R21220   4.323   3.990  12.725 -2.4790  0.4179 -0.8123
  174DOPC   H3S21221   4.287   4.126  12.642  0.0422 -1.8738 -1.5601
  174DOPC   C2421222   4.373   4.162  12.839  0.8108  0.1884  0.5072
  174DOPC   H4R21223   4.277   4.130  12.886 -0.5820  2.3666 -0.6680
  174DOPC   H4S21224   4.364   4.270  12.815 -1.8163  0.6570  2.9641
  174DOPC   C2521225   4.483   4.132  12.935  0.0993 -0.5657  0.0766
  174DOPC   H5R21226   4.570   4.188  12.894  1.7898 -3.2573 -0.2833
  174DOPC   H5S21227   4.505   4.023  12.943 -2.0550 -0.9543  1.6172
  174DOPC   C2621228   4.445   4.177  13.078  0.0261 -0.0502  0.0526
  174DOPC   H6R21229   4.340   4.150  13.105 -0.8002  1.8814 -1.0455
  174DOPC   H6S21230   4.460   4.286  13.093  2.1708 -0.3690  0.5382
  174DOPC   C2721231   4.541   4.113  13.175  0.4474  0.6237 -0.2292
  174DOPC   H7R21232   4.644   4.131  13.136  1.0807 -0.1065  1.0407
  174DOPC   H7S21233   4.521   4.007  13.200 -0.6140  0.6394 -0.9266
  174DOPC   C2821234   4.542   4.190  13.308  0.3402 -0.5502  0.1303
  174DOPC   H8R21235   4.561   4.299  13.291  2.7928 -0.4846  2.4862
  174DOPC   H8S21236   4.634   4.166  13.367  0.8557  1.2986  0.1542
  174DOPC   C2921237   4.407   4.176  13.384  0.7035  0.1495 -0.4151
  174DOPC   H9R21238   4.311   4.172  13.331  0.2047 -0.6779  0.5069
  174DOPC  C21021239   4.406   4.148  13.515  0.1505 -0.4878 -0.1072
  174DOPC  H10R21240   4.313   4.115  13.563  0.3318 -1.2036 -0.2358
  174DOPC  C21121241   4.526   4.154  13.613 -0.0752 -0.4021  0.6206
  174DOPC  H11R21242   4.614   4.216  13.588  0.7239 -1.7381 -0.0279
  174DOPC  H11S21243   4.564   4.050  13.621 -1.2079 -1.1089 -1.8833
  174DOPC  C21221244   4.488   4.189  13.761  0.4480  0.6261  0.0303
  174DOPC  H12R21245   4.421   4.277  13.767  1.1907  1.2111 -0.0238
  174DOPC  H12S21246   4.586   4.213  13.809  0.7336 -1.0458  0.3390
  174DOPC  C21321247   4.434   4.072  13.832  0.1248  0.2369 -0.6509
  174DOPC  H13R21248   4.506   3.988  13.825  0.6960  0.8143 -2.0836
  174DOPC  H13S21249   4.336   4.044  13.788 -0.8108  1.1996  0.7129
  174DOPC  C21421250   4.418   4.100  13.982 -0.3431 -0.3112  0.5271
  174DOPC  H14R21251   4.344   4.026  14.020  0.9304 -2.2528 -0.6446
  174DOPC  H14S21252   4.378   4.204  13.982  3.4740  1.3701  2.5736
  174DOPC  C21521253   4.549   4.116  14.069  0.3382 -0.9195  0.5061
  174DOPC  H15R21254   4.612   4.197  14.028 -1.1279  0.4146  0.8031
  174DOPC  H15S21255   4.604   4.019  14.073  2.8618  0.4890  2.4799
  174DOPC  C21621256   4.519   4.157  14.214 -0.1048  0.3003  0.2143
  174DOPC  H16R21257   4.448   4.242  14.211 -1.9834 -1.2228 -1.0379
  174DOPC  H16S21258   4.610   4.188  14.269 -0.3915 -0.9471  1.4657
  174DOPC  C21721259   4.457   4.046  14.292 -0.6132 -0.0999 -0.1145
  174DOPC  H17R21260   4.519   3.955  14.304 -0.9565 -0.4496 -0.9637
  174DOPC  H17S21261   4.359   4.024  14.243  0.2386 -2.6295 -0.8187
  174DOPC  C21821262   4.436   4.097  14.436  0.5259  0.3018 -0.5720
  174DOPC  H18R21263   4.532   4.138  14.475 -0.8978  3.1817  0.1547
  174DOPC  H18S21264   4.387   4.018  14.498  0.0189  1.1003  0.0650
  174DOPC  H18T21265   4.367   4.184  14.440  0.0130 -0.0600 -1.3205
  174DOPC   C3321266   4.661   4.580  12.953 -0.1720 -0.3824 -0.0875
  174DOPC   H3X21267   4.694   4.686  12.948  2.5198 -1.1040  0.6218
  174DOPC   H3Y21268   4.740   4.518  12.906  1.1111  1.3490 -0.3357
  174DOPC   C3421269   4.648   4.536  13.098 -0.1125 -0.0340 -0.0781
  174DOPC   H4X21270   4.624   4.428  13.095  0.7943 -0.2218 -1.5956
  174DOPC   H4Y21271   4.558   4.582  13.144  1.2366  0.9894  1.6627
  174DOPC   C3521272   4.767   4.569  13.192 -0.4677 -0.1174 -0.7528
  174DOPC   H5X21273   4.774   4.679  13.201  1.0951 -0.2459 -0.1234
  174DOPC   H5Y21274   4.869   4.546  13.157 -0.9916 -2.3728 -0.9549
  174DOPC   C3621275   4.741   4.526  13.336  0.3913 -0.1776  0.0970
  174DOPC   H6X21276   4.632   4.519  13.358 -0.0712 -0.6383 -2.1110
  174DOPC   H6Y21277   4.767   4.418  13.337 -1.5019 -0.6738  0.9842
  174DOPC   C3721278   4.826   4.593  13.448 -0.5476  0.0583  0.6123
  174DOPC   H7X21279   4.927   4.609  13.403 -0.6747  0.6447  0.5370
  174DOPC   H7Y21280   4.779   4.691  13.469 -0.4150  0.0692  0.8619
  174DOPC   C3821281   4.850   4.511  13.580 -0.0291 -0.3021  0.2050
  174DOPC   H8X21282   4.927   4.569  13.635  0.3516 -0.6039 -0.0140
  174DOPC   H8Y21283   4.892   4.410  13.562  1.4051 -0.2243  2.6768
  174DOPC   C3921284   4.720   4.520  13.654 -0.0950  0.2412 -0.9778
  174DOPC   H9X21285   4.633   4.570  13.609 -1.5654 -2.5271 -1.3620
  174DOPC  C31021286   4.704   4.472  13.782 -0.0966 -0.1329 -0.2117
  174DOPC  H10X21287   4.607   4.482  13.831  0.0042 -2.8137  0.6975
  174DOPC  C31121288   4.819   4.412  13.865  0.0984 -0.8076  0.5041
  174DOPC  H11X21289   4.919   4.411  13.815 -0.0907  1.7391 -0.0674
  174DOPC  H11Y21290   4.800   4.303  13.877 -0.6594 -0.8023 -0.5621
  174DOPC  C31221291   4.819   4.486  13.998  0.5430 -0.0532  0.7249
  174DOPC  H12X21292   4.720   4.489  14.048 -0.1238 -0.3389 -0.5482
  174DOPC  H12Y21293   4.845   4.590  13.969 -0.8092  0.0627 -0.1520
  174DOPC  C31321294   4.917   4.429  14.109 -0.7157 -0.3246 -0.3230
  174DOPC  H13X21295   4.910   4.319  14.098  1.9982 -0.3962 -2.1294
  174DOPC  H13Y21296   5.018   4.464  14.079 -1.2373  1.6890  0.1208
  174DOPC  C31421297   4.878   4.468  14.250  0.3588 -0.4239 -0.5154
  174DOPC  H14X21298   4.871   4.577  14.271  0.6783 -0.5497  0.2780
  174DOPC  H14Y21299   4.779   4.423  14.274  0.0262  0.1059 -0.8807
  174DOPC  C31521300   4.981   4.428  14.355 -0.0723  0.2326 -0.6260
  174DOPC  H15X21301   5.068   4.495  14.342 -0.0194  0.5365  1.1229
  174DOPC  H15Y21302   5.014   4.323  14.335 -0.9483  0.1376 -1.6659
  174DOPC  C31621303   4.916   4.430  14.495 -1.1258 -0.2760 -0.2590
  174DOPC  H16X21304   4.880   4.532  14.522 -0.7224 -0.5940  1.6062
  174DOPC  H16Y21305   4.821   4.372  14.492 -0.4237 -1.4228 -3.5639
  174DOPC  C31721306   5.024   4.379  14.591  0.3721 -0.4301  0.5428
  174DOPC  H17X21307   5.045   4.273  14.566  0.6252  0.0588 -1.4433
  174DOPC  H17Y21308   5.113   4.442  14.569 -0.9195  1.0664 -0.5717
  174DOPC  C31821309   4.983   4.397  14.741  0.2881 -0.8740 -0.0786
  174DOPC  H18X21310   4.984   4.506  14.761 -1.6273 -0.7186 -0.7054
  174DOPC  H18Y21311   4.888   4.345  14.765 -0.5789  1.0829  0.8685
  174DOPC  H18Z21312   5.063   4.350  14.803  0.8144  0.6071  0.4020
  175DOPC     N21313   1.636   1.619  12.449 -0.0831  0.3388 -0.3333
  175DOPC   C1221314   1.686   1.730  12.522  0.1189 -0.2756 -0.8015
  175DOPC  H12A21315   1.753   1.710  12.604  3.1902  1.3724 -2.7123
  175DOPC  H12B21316   1.601   1.773  12.573  1.3924  2.0669 -0.5044
  175DOPC   C1321317   1.551   1.528  12.531 -0.0203  0.8324  0.1806
  175DOPC  H13A21318   1.610   1.465  12.596 -1.4938 -1.0422 -0.2212
  175DOPC  H13B21319   1.478   1.574  12.595  0.8955 -0.2421  2.1036
  175DOPC  H13C21320   1.504   1.457  12.465 -0.3404  0.8871  0.3490
  175DOPC   C1421321   1.734   1.528  12.382  0.5003  0.7858 -0.2056
  175DOPC  H14A21322   1.786   1.588  12.309 -0.0998  0.2751 -1.0666
  175DOPC  H14B21323   1.791   1.478  12.460  0.3364  0.7938 -0.0808
  175DOPC  H14C21324   1.670   1.459  12.330 -0.0021  0.9835  0.1402
  175DOPC   C1521325   1.544   1.670  12.340 -0.6054 -0.2315 -0.0171
  175DOPC  H15A21326   1.515   1.596  12.267 -0.5769 -0.2268 -0.0330
  175DOPC  H15B21327   1.596   1.740  12.276 -0.0223 -0.0226  0.6677
  175DOPC  H15C21328   1.447   1.710  12.365 -0.5910  0.1590 -0.5713
  175DOPC   C1121329   1.759   1.842  12.442  0.0935  0.8897 -0.1848
  175DOPC  H11A21330   1.685   1.863  12.363 -0.0915 -0.7716 -0.4798
  175DOPC  H11B21331   1.765   1.932  12.508 -0.3413  2.3247 -2.0053
  175DOPC     P21332   2.013   1.848  12.473  0.3153 -0.2586  0.8678
  175DOPC   O1321333   2.039   1.990  12.438  0.2868 -0.0327 -0.1663
  175DOPC   O1421334   2.126   1.757  12.442  0.0577  0.1920  0.0294
  175DOPC   O1221335   1.886   1.790  12.401 -0.0541  0.6313 -0.0742
  175DOPC   O1121336   1.988   1.829  12.627  0.7756 -0.2765 -0.5549
  175DOPC    C121337   2.075   1.882  12.723  0.6952 -0.3784 -0.3367
  175DOPC    HA21338   2.014   1.921  12.807 -0.2901 -0.9152 -0.7870
  175DOPC    HB21339   2.140   1.967  12.692  2.8502 -1.4639  1.0067
  175DOPC    C221340   2.173   1.784  12.785 -0.4840 -0.0170 -0.3262
  175DOPC    HS21341   2.237   1.740  12.705  0.4950 -1.7279  1.3273
  175DOPC   O2121342   2.085   1.681  12.836 -0.4048  0.2183 -0.2344
  175DOPC   C2121343   2.148   1.565  12.856  0.5974  0.1134  1.1456
  175DOPC   O2221344   2.252   1.530  12.806 -0.1788 -0.5901  0.2809
  175DOPC   C2221345   2.071   1.482  12.957 -0.1813  0.1037 -0.4866
  175DOPC   H2R21346   2.078   1.373  12.932  0.4412  0.4320 -1.8278
  175DOPC   H2S21347   1.967   1.520  12.952  0.4605  2.0422  0.3332
  175DOPC    C321348   2.275   1.845  12.887  0.4416 -0.1269 -0.2732
  175DOPC    HX21349   2.214   1.909  12.955 -0.2361 -0.7143 -0.3160
  175DOPC    HY21350   2.346   1.913  12.835  1.2188  0.4618  1.4651
  175DOPC   O3121351   2.349   1.740  12.954  0.2919 -0.1510 -0.6228
  175DOPC   C3121352   2.386   1.777  13.079  0.0020  0.5355 -0.0577
  175DOPC   O3221353   2.345   1.873  13.140 -0.0331 -0.1357  0.4547
  175DOPC   C3221354   2.495   1.686  13.128  0.0683  0.0501 -0.5557
  175DOPC   H2X21355   2.471   1.580  13.105 -0.0003  0.1282 -0.8456
  175DOPC   H2Y21356   2.590   1.718  13.081  0.0038  0.5824 -0.3290
  175DOPC   C2321357   2.128   1.503  13.100 -0.6727 -0.7798  0.5220
  175DOPC   H3R21358   2.146   1.611  13.119 -2.4414 -0.2011 -0.8465
  175DOPC   H3S21359   2.226   1.454  13.117  0.1332  1.1700  1.7504
  175DOPC   C2421360   2.036   1.450  13.209 -0.2885 -0.0928 -0.5985
  175DOPC   H4R21361   2.026   1.341  13.190 -2.6175  0.0934 -0.8091
  175DOPC   H4S21362   1.933   1.493  13.205 -0.5715 -0.7421 -0.3102
  175DOPC   C2521363   2.095   1.470  13.352 -0.2330  0.1871 -0.3659
  175DOPC   H5R21364   2.100   1.577  13.384 -0.6471  0.3331 -0.7732
  175DOPC   H5S21365   2.202   1.438  13.355 -0.4612 -0.5720 -0.3478
  175DOPC   C2621366   2.024   1.391  13.463 -0.1173 -0.1518 -0.2854
  175DOPC   H6R21367   1.977   1.302  13.416 -2.2640 -0.2595  1.8544
  175DOPC   H6S21368   1.941   1.455  13.501  1.1849  0.0818  2.3799
  175DOPC   C2721369   2.114   1.346  13.583  0.2693 -0.5883 -0.5451
  175DOPC   H7R21370   2.162   1.434  13.632 -2.1821  0.8316 -0.5328
  175DOPC   H7S21371   2.196   1.286  13.537  0.2618 -0.2188 -1.0495
  175DOPC   C2821372   2.048   1.253  13.690  0.3204 -0.3378  0.3270
  175DOPC   H8R21373   1.968   1.195  13.640  0.4245 -1.0753  0.9882
  175DOPC   H8S21374   1.995   1.322  13.759  0.9083 -0.1291  0.5812
  175DOPC   C2921375   2.137   1.162  13.761 -0.1128  0.1190  0.6595
  175DOPC   H9R21376   2.211   1.114  13.695  1.3443  0.2331  2.1410
  175DOPC  C21021377   2.150   1.153  13.901  0.0480  0.4323  0.3564
  175DOPC  H10R21378   2.239   1.103  13.942 -0.7129 -1.1048  0.1871
  175DOPC  C21121379   2.068   1.231  14.002 -0.0694  0.5264  0.2583
  175DOPC  H11R21380   1.969   1.260  13.959 -1.1287 -1.9562  0.8321
  175DOPC  H11S21381   2.136   1.316  14.024  1.4002 -0.3650 -0.7023
  175DOPC  C21221382   2.044   1.142  14.125  0.3969  0.1979 -0.2062
  175DOPC  H12R21383   2.140   1.102  14.165  0.8951  1.2952 -0.2686
  175DOPC  H12S21384   1.989   1.047  14.110 -0.4424  0.4299  1.2145
  175DOPC  C21321385   1.995   1.231  14.247 -0.0689  0.3196 -0.3123
  175DOPC  H13R21386   1.908   1.283  14.202 -0.5188 -0.4415 -0.3378
  175DOPC  H13S21387   2.065   1.306  14.290 -1.7687  0.8448  1.7359
  175DOPC  C21421388   1.948   1.145  14.364 -0.2223  0.2530  0.1856
  175DOPC  H14R21389   2.015   1.061  14.394 -0.0426  0.4751  0.4051
  175DOPC  H14S21390   1.852   1.097  14.335 -0.7366  1.1611  0.3502
  175DOPC  C21521391   1.918   1.224  14.491  0.5100 -0.6234  0.0899
  175DOPC  H15R21392   1.825   1.201  14.547  0.1345 -0.8764 -0.6262
  175DOPC  H15S21393   1.901   1.322  14.443  0.3798  0.0554  1.4616
  175DOPC  C21621394   2.034   1.244  14.586 -0.4747  0.0622  0.1986
  175DOPC  H16R21395   2.003   1.321  14.659 -1.9043  1.4795 -1.8002
  175DOPC  H16S21396   2.129   1.272  14.535 -0.3255  1.5727  1.2534
  175DOPC  C21721397   2.061   1.112  14.659 -0.1065 -0.1981  0.1971
  175DOPC  H17R21398   2.103   1.039  14.588 -0.5661  0.1162 -0.4078
  175DOPC  H17S21399   1.965   1.066  14.691  0.4285 -2.1668 -0.9045
  175DOPC  C21821400   2.149   1.130  14.783  0.7347  0.0546  0.0887
  175DOPC  H18R21401   2.097   1.186  14.864 -1.8178 -0.1662 -1.3135
  175DOPC  H18S21402   2.246   1.181  14.764  0.4848  1.6010  2.4027
  175DOPC  H18T21403   2.154   1.026  14.821 -3.3396 -0.5999 -0.7405
  175DOPC   C3321404   2.508   1.701  13.280 -0.0355  0.2219  0.5238
  175DOPC   H3X21405   2.482   1.801  13.321 -0.5838  0.0377  0.6333
  175DOPC   H3Y21406   2.615   1.676  13.296 -0.5215 -1.8131  0.9289
  175DOPC   C3421407   2.422   1.603  13.358 -0.5126 -0.2074 -0.1632
  175DOPC   H4X21408   2.480   1.509  13.349 -2.1237 -1.5055  1.8748
  175DOPC   H4Y21409   2.327   1.591  13.300  0.0479  2.3396 -1.7660
  175DOPC   C3521410   2.386   1.642  13.502 -0.2197  0.5803 -0.2874
  175DOPC   H5X21411   2.352   1.548  13.552 -1.0620  2.2350  2.4718
  175DOPC   H5Y21412   2.307   1.720  13.505  1.0582  2.3059 -4.3487
  175DOPC   C3621413   2.503   1.696  13.583 -0.0900 -0.2039  0.1582
  175DOPC   H6X21414   2.590   1.626  13.585  0.1576  0.0280 -1.2450
  175DOPC   H6Y21415   2.531   1.790  13.531  0.9923 -0.5882  0.0086
  175DOPC   C3721416   2.463   1.731  13.725 -0.1900 -0.6001  0.5038
  175DOPC   H7X21417   2.560   1.764  13.768 -1.0335  1.0341  1.2298
  175DOPC   H7Y21418   2.399   1.820  13.741  1.2510  0.4086  0.7647
  175DOPC   C3821419   2.394   1.611  13.792  0.4199 -0.5650 -0.2717
  175DOPC   H8X21420   2.459   1.523  13.771  3.9833  1.3661  1.7737
  175DOPC   H8Y21421   2.294   1.600  13.745 -0.0218  0.9760  0.2467
  175DOPC   C3921422   2.374   1.631  13.937 -0.0064  0.1528  0.2636
  175DOPC   H9X21423   2.278   1.671  13.974  0.7742  0.1548  2.4072
  175DOPC  C31021424   2.466   1.601  14.032  0.3588 -0.0705 -0.0823
  175DOPC  H10X21425   2.446   1.637  14.134 -3.8818  1.0189 -1.0798
  175DOPC  C31121426   2.610   1.552  14.011 -0.2710  0.7018  0.1669
  175DOPC  H11X21427   2.630   1.550  13.902  3.1028 -0.5422  0.6715
  175DOPC  H11Y21428   2.627   1.448  14.046 -0.2454  0.5784 -0.2080
  175DOPC  C31221429   2.716   1.639  14.088 -0.2041 -0.3274  0.1742
  175DOPC  H12X21430   2.714   1.744  14.053  0.3333 -0.3378  0.1060
  175DOPC  H12Y21431   2.817   1.599  14.063 -0.1645  0.0223 -0.2301
  175DOPC  C31321432   2.699   1.638  14.240 -0.4840 -0.2380  0.1986
  175DOPC  H13X21433   2.597   1.670  14.270  0.2549  1.1881  1.3139
  175DOPC  H13Y21434   2.722   1.545  14.296 -2.0194 -0.0019  1.2702
  175DOPC  C31421435   2.785   1.749  14.304  0.1562  0.3268 -0.4684
  175DOPC  H14X21436   2.886   1.763  14.262  1.0655 -0.3221  1.3844
  175DOPC  H14Y21437   2.742   1.850  14.284 -0.1323  0.1620 -0.7001
  175DOPC  C31521438   2.805   1.729  14.459  0.0877  0.0862  0.2185
  175DOPC  H15X21439   2.848   1.628  14.477  0.7812  0.2165 -0.6179
  175DOPC  H15Y21440   2.702   1.735  14.500 -0.8521 -1.6814 -1.6864
  175DOPC  C31621441   2.896   1.833  14.526  0.3861  0.4053 -0.3341
  175DOPC  H16X21442   2.993   1.821  14.474  1.0139 -1.6473  1.1717
  175DOPC  H16Y21443   2.861   1.937  14.506 -0.0264  0.0800 -1.3992
  175DOPC  C31721444   2.921   1.811  14.676  0.1717 -0.4434  0.0333
  175DOPC  H17X21445   2.949   1.706  14.695  1.0928 -0.7870 -2.8225
  175DOPC  H17Y21446   3.003   1.881  14.703 -1.2165  1.2660  0.0755
  175DOPC  C31821447   2.805   1.848  14.761  0.9189  0.5135 -0.7551
  175DOPC  H18X21448   2.784   1.957  14.758  1.2432  0.6399  0.8562
  175DOPC  H18Y21449   2.716   1.788  14.732  1.0027 -0.1965  0.3821
  175DOPC  H18Z21450   2.815   1.812  14.865 -1.8111  0.9301 -0.2895
  176DOPC     N21451   3.331   3.216  12.207  0.0131  0.2036  0.0027
  176DOPC   C1221452   3.424   3.170  12.320 -0.1251  0.1291 -0.0755
  176DOPC  H12A21453   3.361   3.135  12.400  0.4152  0.8369  0.6689
  176DOPC  H12B21454   3.462   3.255  12.374 -1.5321 -0.6613  2.2954
  176DOPC   C1321455   3.244   3.326  12.248 -0.5716 -0.7678 -0.2412
  176DOPC  H13A21456   3.161   3.294  12.308 -1.0110 -0.7511 -0.8313
  176DOPC  H13B21457   3.298   3.411  12.287 -0.5899 -0.5290 -0.7230
  176DOPC  H13C21458   3.194   3.371  12.164 -1.6211 -1.3908  0.0362
  176DOPC   C1421459   3.243   3.105  12.162 -0.1055 -0.1035  0.3017
  176DOPC  H14A21460   3.170   3.084  12.239 -0.9959  0.7045 -0.2849
  176DOPC  H14B21461   3.180   3.131  12.078  0.0027 -1.4440 -0.2298
  176DOPC  H14C21462   3.300   3.016  12.140  1.0131  0.2429  1.6493
  176DOPC   C1521463   3.420   3.258  12.088 -1.2101 -0.2511 -0.1367
  176DOPC  H15A21464   3.463   3.167  12.049  0.1578 -0.0602  0.8382
  176DOPC  H15B21465   3.502   3.321  12.119 -0.3936 -1.0823 -0.5564
  176DOPC  H15C21466   3.357   3.319  12.025 -0.5079  0.9706  0.3019
  176DOPC   C1121467   3.534   3.064  12.294  0.1256  0.4592 -0.4079
  176DOPC  H11A21468   3.582   3.084  12.195  0.0088  2.4060 -0.1185
  176DOPC  H11B21469   3.616   3.065  12.369 -0.2113  3.6578  0.0623
  176DOPC     P21470   3.405   2.862  12.404  0.1168 -0.1847  0.0548
  176DOPC   O1321471   3.370   2.729  12.355 -0.2609  0.0629 -0.0196
  176DOPC   O1421472   3.290   2.951  12.451  0.2626 -0.2004  0.4460
  176DOPC   O1221473   3.472   2.936  12.279  0.3519 -0.5256  0.9044
  176DOPC   O1121474   3.522   2.862  12.511  1.0141 -0.3874  0.2663
  176DOPC    C121475   3.587   2.737  12.548  0.4816  0.0952  0.3029
  176DOPC    HA21476   3.695   2.747  12.568  0.3329 -3.0860  3.8003
  176DOPC    HB21477   3.578   2.668  12.461 -0.6163 -0.6360  0.9676
  176DOPC    C221478   3.522   2.679  12.673  0.3177 -0.0661  0.0099
  176DOPC    HS21479   3.414   2.667  12.649 -0.1694  1.0471  1.4625
  176DOPC   O2121480   3.555   2.762  12.790  0.0604  0.2466 -0.1173
  176DOPC   C2121481   3.451   2.823  12.841  0.3297 -0.3126 -0.0286
  176DOPC   O2221482   3.336   2.816  12.805 -0.1663  0.5433  0.2327
  176DOPC   C2221483   3.501   2.892  12.971 -0.0264  0.2644  0.4649
  176DOPC   H2R21484   3.517   2.998  12.941  1.0989  0.6601  2.2941
  176DOPC   H2S21485   3.596   2.845  13.000 -0.4082 -1.0095 -0.2854
  176DOPC    C321486   3.586   2.539  12.697 -0.3420  0.4478  0.1414
  176DOPC    HX21487   3.697   2.554  12.698 -0.0844 -1.3025  0.9150
  176DOPC    HY21488   3.552   2.470  12.617 -0.3806 -0.3445  0.8301
  176DOPC   O3121489   3.548   2.479  12.820  0.4493 -0.5138 -0.1781
  176DOPC   C3121490   3.441   2.404  12.821  0.5851 -0.0536 -0.7181
  176DOPC   O3221491   3.366   2.374  12.733 -0.2712  0.1551 -0.0956
  176DOPC   C3221492   3.411   2.362  12.960 -0.1149  0.8371  0.4358
  176DOPC   H2X21493   3.334   2.282  12.970  3.1523 -2.3625  2.1288
  176DOPC   H2Y21494   3.495   2.310  13.011 -1.1202 -0.5525  0.7161
  176DOPC   C2321495   3.401   2.898  13.086 -0.6766  0.3981  0.1419
  176DOPC   H3R21496   3.399   2.800  13.139 -1.0022  1.1935  1.6409
  176DOPC   H3S21497   3.299   2.906  13.045  0.0409 -1.6487 -2.2924
  176DOPC   C2421498   3.428   3.017  13.189  0.5515 -0.9985  0.0719
  176DOPC   H4R21499   3.406   3.102  13.121  1.4733 -2.1302 -1.7128
  176DOPC   H4S21500   3.531   3.039  13.225  0.4794  0.7937 -0.7197
  176DOPC   C2521501   3.337   3.012  13.310  0.3437  0.2998  0.2270
  176DOPC   H5R21502   3.339   2.911  13.357  1.4306 -0.2347 -0.9140
  176DOPC   H5S21503   3.229   3.024  13.288 -0.6630 -0.2832  4.1449
  176DOPC   C2621504   3.371   3.123  13.413 -0.5474 -0.5599  0.2543
  176DOPC   H6R21505   3.355   3.224  13.370 -0.5986 -0.1744  1.1614
  176DOPC   H6S21506   3.475   3.111  13.450 -1.3877 -2.9465  2.1767
  176DOPC   C2721507   3.287   3.123  13.538 -0.1442 -0.8831  0.2583
  176DOPC   H7R21508   3.182   3.152  13.521  0.0458  0.2981  1.0016
  176DOPC   H7S21509   3.330   3.200  13.606 -3.9943  0.6641  1.2164
  176DOPC   C2821510   3.291   2.999  13.623  0.6882 -0.5199  0.0513
  176DOPC   H8R21511   3.258   2.911  13.563  5.2741 -2.6896  0.2585
  176DOPC   H8S21512   3.216   3.012  13.703  1.2028  0.4491  0.3876
  176DOPC   C2921513   3.421   2.969  13.693 -0.0817  0.0091 -0.8248
  176DOPC   H9R21514   3.499   2.928  13.627  0.1900  2.5968 -2.2648
  176DOPC  C21021515   3.465   3.003  13.820 -0.2311  0.3086  0.4456
  176DOPC  H10R21516   3.566   2.973  13.851 -0.5064 -2.7123 -1.1902
  176DOPC  C21121517   3.383   3.087  13.919 -0.2473  0.0127 -0.3820
  176DOPC  H11R21518   3.313   3.150  13.859  1.9495  3.3814  0.3153
  176DOPC  H11S21519   3.442   3.158  13.981 -1.2800 -0.9555  1.7951
  176DOPC  C21221520   3.299   3.010  14.025 -0.2602  0.3200  0.0866
  176DOPC  H12R21521   3.373   2.947  14.078  2.3292  1.2548 -2.1717
  176DOPC  H12S21522   3.222   2.949  13.971  2.1869 -2.1587 -0.8309
  176DOPC  C21321523   3.229   3.098  14.128  0.6837  0.3327  0.8679
  176DOPC  H13R21524   3.130   3.051  14.146 -0.6542  2.7110  0.1905
  176DOPC  H13S21525   3.195   3.190  14.075  0.7630 -0.1524 -0.0451
  176DOPC  C21421526   3.307   3.139  14.255  0.1424 -0.0275 -0.8051
  176DOPC  H14R21527   3.260   3.239  14.271  0.1284 -0.1811  0.2001
  176DOPC  H14S21528   3.413   3.154  14.228  0.4208 -0.3718  0.0739
  176DOPC  C21521529   3.287   3.048  14.380 -0.5822  0.8617 -0.5592
  176DOPC  H15R21530   3.340   2.952  14.368 -0.2721  0.7103  1.6042
  176DOPC  H15S21531   3.180   3.025  14.402 -0.6429  0.6570 -1.0611
  176DOPC  C21621532   3.340   3.125  14.504  0.3396 -0.0997 -0.2293
  176DOPC  H16R21533   3.297   3.228  14.508 -1.3353 -0.8059  1.6948
  176DOPC  H16S21534   3.447   3.149  14.488  1.1634 -2.6343  0.9740
  176DOPC  C21721535   3.326   3.045  14.640  0.1519  0.2890 -0.6392
  176DOPC  H17R21536   3.216   3.028  14.649 -0.1724  0.7717 -3.0601
  176DOPC  H17S21537   3.369   3.114  14.716  0.1008  1.4013 -1.5873
  176DOPC  C21821538   3.420   2.925  14.641  0.0167 -0.8524 -0.5228
  176DOPC  H18R21539   3.520   2.962  14.610  0.2849 -1.6299 -0.6162
  176DOPC  H18S21540   3.385   2.844  14.573 -0.1310  0.6144 -2.2568
  176DOPC  H18T21541   3.437   2.877  14.740  1.3617 -0.4621 -0.5400
  176DOPC   C3321542   3.379   2.477  13.060  0.5999 -0.5582  0.6684
  176DOPC   H3X21543   3.284   2.530  13.040  0.8129  0.2077  1.6033
  176DOPC   H3Y21544   3.459   2.554  13.065  0.8677 -0.8281  0.6048
  176DOPC   C3421545   3.382   2.419  13.200 -0.3300 -0.5133 -0.7444
  176DOPC   H4X21546   3.470   2.352  13.207 -0.7911 -0.9719  1.4593
  176DOPC   H4Y21547   3.295   2.356  13.229 -0.3682  0.7262  2.1090
  176DOPC   C3521548   3.398   2.525  13.316  0.1612  0.1973  0.0416
  176DOPC   H5X21549   3.309   2.591  13.313  0.5316  0.7500  0.8193
  176DOPC   H5Y21550   3.489   2.587  13.302 -0.6115  1.6459  1.1294
  176DOPC   C3621551   3.390   2.463  13.453 -0.2433 -0.1511  0.0651
  176DOPC   H6X21552   3.296   2.407  13.471  1.1086 -2.7117 -0.2978
  176DOPC   H6Y21553   3.470   2.387  13.469  0.3189  0.5488  0.6870
  176DOPC   C3721554   3.412   2.571  13.557  0.6089  0.3150 -0.3159
  176DOPC   H7X21555   3.518   2.605  13.552  0.9749 -0.8225 -0.4659
  176DOPC   H7Y21556   3.351   2.661  13.534  0.9518  0.8067  0.6515
  176DOPC   C3821557   3.399   2.515  13.702 -0.0284  0.1941 -0.3773
  176DOPC   H8X21558   3.474   2.435  13.719  0.1170  0.3589 -0.2348
  176DOPC   H8Y21559   3.296   2.476  13.704 -1.1061  2.7937 -0.9216
  176DOPC   C3921560   3.413   2.633  13.802 -0.2146  0.2428 -0.0850
  176DOPC   H9X21561   3.335   2.709  13.794 -1.0123 -0.4841  0.5550
  176DOPC  C31021562   3.510   2.654  13.893  0.2775  0.5999 -0.7108
  176DOPC  H10X21563   3.502   2.733  13.969 -1.4491  1.5954 -1.8639
  176DOPC  C31121564   3.631   2.574  13.918  0.2118  0.3037  0.7958
  176DOPC  H11X21565   3.714   2.647  13.929  2.1683 -1.9427  2.0230
  176DOPC  H11Y21566   3.653   2.535  13.816  2.3375  0.5519  1.1048
  176DOPC  C31221567   3.630   2.462  14.027 -0.0122  0.5638  0.0627
  176DOPC  H12X21568   3.713   2.391  14.004 -1.5993 -0.4253 -3.4057
  176DOPC  H12Y21569   3.537   2.401  14.027 -0.0201  0.5128 -1.8812
  176DOPC  C31321570   3.636   2.529  14.170 -0.2371 -0.5632  0.8188
  176DOPC  H13X21571   3.723   2.597  14.179 -0.5647  0.1284 -0.8897
  176DOPC  H13Y21572   3.542   2.580  14.199  0.3521  0.5136  0.8906
  176DOPC  C31421573   3.672   2.428  14.277  0.3702  0.4362 -0.8547
  176DOPC  H14X21574   3.595   2.348  14.279  0.6858  0.1481  0.7376
  176DOPC  H14Y21575   3.772   2.380  14.266  0.2270 -0.6067  1.7077
  176DOPC  C31521576   3.685   2.484  14.421  0.2091 -0.3699  0.0400
  176DOPC  H15X21577   3.591   2.490  14.479 -1.1744  0.2446 -2.1136
  176DOPC  H15Y21578   3.717   2.590  14.423  1.0558 -0.6366  0.9004
  176DOPC  C31621579   3.799   2.422  14.495 -0.0865  0.3369  0.7124
  176DOPC  H16X21580   3.770   2.315  14.501 -0.8025  0.5478  1.1445
  176DOPC  H16Y21581   3.896   2.419  14.441 -0.7989 -0.6831 -0.5505
  176DOPC  C31721582   3.826   2.481  14.633  0.2550  0.0092 -0.7218
  176DOPC  H17X21583   3.937   2.480  14.648  0.1064  1.6694  0.7296
  176DOPC  H17Y21584   3.789   2.585  14.634 -0.8931 -0.3825  0.1778
  176DOPC  C31821585   3.772   2.393  14.743 -0.1601  0.1744  0.3171
  176DOPC  H18X21586   3.804   2.424  14.845 -0.2917 -1.1019  0.7632
  176DOPC  H18Y21587   3.662   2.382  14.735 -0.1196  0.1298 -0.2532
  176DOPC  H18Z21588   3.807   2.289  14.727 -2.4912 -0.7878  1.1618
  177DOPC     N21589   4.727   0.591  12.409 -0.4098 -0.2852  0.4632
  177DOPC   C1221590   4.753   0.464  12.488 -0.1326  0.2031 -0.5151
  177DOPC  H12A21591   4.858   0.452  12.510 -0.3633  0.5527  0.8451
  177DOPC  H12B21592   4.733   0.383  12.419  0.8527  0.2511 -0.8728
  177DOPC   C1321593   4.594   0.618  12.355  0.1207  0.0796  0.4354
  177DOPC  H13A21594   4.602   0.695  12.280 -0.9072  0.3554  0.5859
  177DOPC  H13B21595   4.556   0.525  12.316  2.1541 -1.3393  1.6759
  177DOPC  H13C21596   4.529   0.649  12.436 -0.1973  0.9725 -0.1385
  177DOPC   C1421597   4.820   0.591  12.290  0.1287  0.1736 -0.1235
  177DOPC  H14A21598   4.923   0.576  12.321 -0.9149 -0.9023  3.2703
  177DOPC  H14B21599   4.788   0.513  12.223  0.3256 -0.7831  0.8601
  177DOPC  H14C21600   4.811   0.682  12.233 -2.7825  0.6566  0.9616
  177DOPC   C1521601   4.765   0.710  12.488  0.3796 -0.5639 -0.3352
  177DOPC  H15A21602   4.701   0.734  12.572  1.9669  0.4956  0.6030
  177DOPC  H15B21603   4.767   0.802  12.432  0.6406  0.2267  0.9303
  177DOPC  H15C21604   4.864   0.703  12.529 -0.4525  3.4016  2.9805
  177DOPC   C1121605   4.678   0.443  12.616  0.2285  0.1341 -0.7053
  177DOPC  H11A21606   4.691   0.336  12.643 -1.2797  0.3809  1.2014
  177DOPC  H11B21607   4.721   0.502  12.699 -1.5412  0.1337  0.2665
  177DOPC     P21608   4.432   0.362  12.568 -0.1425 -0.0045 -0.3048
  177DOPC   O1321609   4.504   0.269  12.474  0.2872  0.1219 -0.9783
  177DOPC   O1421610   4.307   0.427  12.524 -0.4190 -0.5660  0.2844
  177DOPC   O1221611   4.536   0.474  12.606  0.0153 -0.3061  0.5268
  177DOPC   O1121612   4.408   0.275  12.700  0.5576 -0.2543  0.4439
  177DOPC    C121613   4.332   0.333  12.806 -0.2892  0.0343 -0.1996
  177DOPC    HA21614   4.223   0.320  12.791 -0.0191 -3.6102  0.1263
  177DOPC    HB21615   4.357   0.439  12.824  0.7403 -0.1338 -0.5984
  177DOPC    C221616   4.353   0.246  12.929  0.4731  0.2327  0.3371
  177DOPC    HS21617   4.293   0.154  12.920  1.0739 -0.0271 -1.2766
  177DOPC   O2121618   4.321   0.320  13.052 -0.0875 -1.3110  0.2193
  177DOPC   C2121619   4.194   0.294  13.092 -0.5641 -0.9131 -0.5951
  177DOPC   O2221620   4.117   0.224  13.031  0.3562 -0.1750  0.3268
  177DOPC   C2221621   4.173   0.370  13.218 -0.6167  0.0824 -0.7109
  177DOPC   H2R21622   4.073   0.421  13.221 -0.6907 -0.0498  2.7208
  177DOPC   H2S21623   4.257   0.442  13.229  0.4139 -0.6167 -3.3501
  177DOPC    C321624   4.499   0.198  12.935  0.0796  0.4156  0.3573
  177DOPC    HX21625   4.549   0.296  12.945  1.6759 -0.4070  0.7224
  177DOPC    HY21626   4.525   0.135  12.848 -0.9054  0.0889  0.2894
  177DOPC   O3121627   4.517   0.116  13.056 -0.3923  0.0835 -0.3760
  177DOPC   C3121628   4.614   0.023  13.048  0.1089  0.0826 -0.2627
  177DOPC   O3221629   4.694   0.014  12.958  0.4338  0.3554  0.0946
  177DOPC   C3221630   4.614  -0.069  13.173 -0.2893 -0.1125  0.1884
  177DOPC   H2X21631   4.569  -0.001  13.248  0.5006 -1.0272  1.5236
  177DOPC   H2Y21632   4.557  -0.164  13.165 -2.7222  1.1385  1.6682
  177DOPC   C2321633   4.167   0.280  13.340 -0.0585  0.0486  0.5028
  177DOPC   H3R21634   4.113   0.185  13.320 -0.0997 -0.1510  1.4763
  177DOPC   H3S21635   4.107   0.330  13.420  1.8216 -0.3101  2.2264
  177DOPC   C2421636   4.311   0.248  13.396  0.0681  0.3737 -0.1526
  177DOPC   H4R21637   4.359   0.345  13.420  0.2541  0.5534 -1.2109
  177DOPC   H4S21638   4.367   0.183  13.325  1.0281 -0.3397  1.2198
  177DOPC   C2521639   4.309   0.174  13.526  0.1550  0.3706 -1.3948
  177DOPC   H5R21640   4.407   0.137  13.563  0.5306  1.3628 -1.3886
  177DOPC   H5S21641   4.241   0.086  13.526  0.3705  0.1969 -0.7565
  177DOPC   C2621642   4.243   0.259  13.633  0.3418  0.1408 -0.1231
  177DOPC   H6R21643   4.146   0.293  13.593  1.2927  1.4103 -1.4611
  177DOPC   H6S21644   4.295   0.357  13.639 -0.2710  0.5579 -1.4272
  177DOPC   C2721645   4.239   0.203  13.767 -0.5287  0.4365 -0.0163
  177DOPC   H7R21646   4.331   0.143  13.781 -2.0627 -1.6205  2.2295
  177DOPC   H7S21647   4.157   0.128  13.757 -0.6984  0.5789  0.3117
  177DOPC   C2821648   4.216   0.302  13.875  0.0316  0.2541  0.1407
  177DOPC   H8R21649   4.120   0.356  13.857  1.1529  2.0703 -0.6928
  177DOPC   H8S21650   4.293   0.381  13.876 -0.8993  1.2604 -1.6680
  177DOPC   C2921651   4.200   0.227  14.006  0.9048  0.2217  0.0646
  177DOPC   H9R21652   4.101   0.178  14.015  0.3899  0.4625 -3.1526
  177DOPC  C21021653   4.294   0.197  14.093 -0.0306 -0.1243 -0.4937
  177DOPC  H10R21654   4.271   0.160  14.194 -1.0539  0.3830 -0.5328
  177DOPC  C21121655   4.439   0.241  14.074 -0.9977  0.5496 -0.1757
  177DOPC  H11R21656   4.451   0.341  14.119  1.7440 -0.3548  1.3393
  177DOPC  H11S21657   4.464   0.250  13.967 -1.7756  4.0580 -0.1828
  177DOPC  C21221658   4.539   0.150  14.158 -0.8585  0.4074  0.2372
  177DOPC  H12R21659   4.643   0.177  14.130  0.4311 -4.7295 -1.0175
  177DOPC  H12S21660   4.520   0.053  14.108  0.4813  1.3304 -2.2090
  177DOPC  C21321661   4.526   0.140  14.311 -0.2135  0.1943  0.1377
  177DOPC  H13R21662   4.602   0.069  14.349  3.0867  0.9811 -4.2755
  177DOPC  H13S21663   4.429   0.094  14.343 -0.7469  1.6583  0.7273
  177DOPC  C21421664   4.537   0.279  14.393 -0.6881  0.2150 -0.3646
  177DOPC  H14R21665   4.480   0.352  14.332  0.0777  0.5216 -0.7273
  177DOPC  H14S21666   4.640   0.317  14.376  0.0278 -1.5309 -0.1316
  177DOPC  C21521667   4.498   0.265  14.538 -0.5038  0.4693 -0.3083
  177DOPC  H15R21668   4.565   0.188  14.583  2.8254  3.8381  1.0492
  177DOPC  H15S21669   4.395   0.226  14.553 -0.3381  0.3274  0.4832
  177DOPC  C21621670   4.500   0.399  14.612 -0.9252  0.0685 -0.9786
  177DOPC  H16R21671   4.594   0.455  14.592  0.2638 -0.2567  2.9144
  177DOPC  H16S21672   4.498   0.383  14.721 -2.2479  0.8659 -0.8597
  177DOPC  C21721673   4.387   0.493  14.571 -0.2511  0.2555 -0.1357
  177DOPC  H17R21674   4.288   0.455  14.603  0.5314 -0.2053  1.9680
  177DOPC  H17S21675   4.398   0.499  14.461  3.0096  1.1554  0.1164
  177DOPC  C21821676   4.392   0.635  14.616 -0.2579  0.6763  0.0845
  177DOPC  H18R21677   4.493   0.675  14.590  0.0136 -0.1700 -0.2003
  177DOPC  H18S21678   4.376   0.631  14.726 -0.7308 -0.2008 -0.0071
  177DOPC  H18T21679   4.314   0.691  14.561 -0.9205 -1.5521 -1.3303
  177DOPC   C3321680   4.753  -0.121  13.218  0.3311  0.0385  0.2866
  177DOPC   H3X21681   4.831  -0.042  13.213  0.5083  0.0218  2.0503
  177DOPC   H3Y21682   4.802  -0.188  13.144 -2.6541 -1.2180 -0.7135
  177DOPC   C3421683   4.747  -0.185  13.360 -0.2761  0.8074  0.8076
  177DOPC   H4X21684   4.847  -0.221  13.392  1.1409  1.7669 -2.1477
  177DOPC   H4Y21685   4.678  -0.272  13.367 -1.8190  2.0174  1.4755
  177DOPC   C3521686   4.699  -0.088  13.466  0.5214 -0.5132  0.0239
  177DOPC   H5X21687   4.591  -0.066  13.447 -0.5816 -1.8081  3.7605
  177DOPC   H5Y21688   4.754   0.009  13.471  0.9620 -0.7764  0.3442
  177DOPC   C3621689   4.733  -0.138  13.603 -0.0713 -0.0478 -0.0730
  177DOPC   H6X21690   4.703  -0.240  13.636  1.5826  0.0544  1.9080
  177DOPC   H6Y21691   4.844  -0.138  13.611 -0.0717 -1.7105  0.2426
  177DOPC   C3721692   4.679  -0.043  13.720 -0.2775 -0.1018 -0.5833
  177DOPC   H7X21693   4.691   0.065  13.696 -0.3904 -0.3687 -1.9605
  177DOPC   H7Y21694   4.568  -0.035  13.721 -0.2272  2.3153 -2.5347
  177DOPC   C3821695   4.738  -0.076  13.863 -0.9147 -0.5887 -0.2235
  177DOPC   H8X21696   4.720   0.009  13.931  0.5865 -0.6830  0.3281
  177DOPC   H8Y21697   4.849  -0.077  13.852 -0.7703  1.2587  0.8260
  177DOPC   C3921698   4.675  -0.199  13.923 -0.5109  0.1491 -0.3512
  177DOPC   H9X21699   4.622  -0.268  13.856  2.6177 -0.1839 -2.7291
  177DOPC  C31021700   4.683  -0.236  14.057  0.2515 -0.6519  0.8074
  177DOPC  H10X21701   4.621  -0.321  14.088  0.6688 -1.0862  0.4516
  177DOPC  C31121702   4.756  -0.164  14.171  0.1535  0.1783 -0.1362
  177DOPC  H11X21703   4.689  -0.090  14.220  0.9765  0.7514  0.1352
  177DOPC  H11Y21704   4.844  -0.107  14.137 -0.8517  1.5354 -0.5733
  177DOPC  C31221705   4.810  -0.268  14.277 -0.1808 -0.1765  0.5969
  177DOPC  H12X21706   4.853  -0.359  14.230 -2.1881 -1.6753  1.5379
  177DOPC  H12Y21707   4.721  -0.303  14.333 -1.0413  1.8481  0.5612
  177DOPC  C31321708   4.909  -0.208  14.383 -0.2171  0.4144  0.1154
  177DOPC  H13X21709   4.983  -0.141  14.334  0.7659 -0.7593 -0.0483
  177DOPC  H13Y21710   4.857  -0.155  14.466 -0.5386 -0.0569  0.2172
  177DOPC  C31421711   4.992  -0.321  14.450 -0.3865  0.8578 -0.4253
  177DOPC  H14X21712   5.069  -0.369  14.386  0.4877  0.4366  0.8854
  177DOPC  H14Y21713   5.043  -0.287  14.543  2.5431 -2.5192 -0.6193
  177DOPC  C31521714   4.906  -0.435  14.499  0.0059  0.0794 -0.7920
  177DOPC  H15X21715   4.830  -0.474  14.428  1.5304 -2.3069 -1.2181
  177DOPC  H15Y21716   4.849  -0.400  14.588 -0.2838  0.0826 -0.9788
  177DOPC  C31621717   4.992  -0.550  14.557 -0.3034 -0.4900  0.4003
  177DOPC  H16X21718   4.924  -0.616  14.615  0.6110 -0.7189  1.2459
  177DOPC  H16Y21719   5.033  -0.618  14.479  2.2457 -1.2279  2.2689
  177DOPC  C31721720   5.104  -0.506  14.657 -0.1524  0.7239  0.8112
  177DOPC  H17X21721   5.153  -0.603  14.677 -0.3209  0.0772 -1.6204
  177DOPC  H17Y21722   5.180  -0.448  14.601  0.2146 -2.2389 -2.0287
  177DOPC  C31821723   5.065  -0.436  14.783 -0.0898 -0.4617 -1.1323
  177DOPC  H18X21724   4.989  -0.361  14.755 -2.6723 -1.8732  1.5871
  177DOPC  H18Y21725   5.033  -0.506  14.863  2.1007  1.4805  1.6857
  177DOPC  H18Z21726   5.157  -0.391  14.827 -0.0403 -1.3555 -0.2802
  178DOPC     N21727   2.388   1.250  12.479  0.4757 -0.0035  0.1098
  178DOPC   C1221728   2.333   1.312  12.608  0.0741  0.4859  0.6464
  178DOPC  H12A21729   2.232   1.345  12.593 -0.4592 -0.7168  1.4308
  178DOPC  H12B21730   2.386   1.404  12.631  1.9569 -0.3924  0.0700
  178DOPC   C1321731   2.376   1.353  12.363  0.1078  0.1502  0.5757
  178DOPC  H13A21732   2.382   1.301  12.269 -0.0846  1.4429 -0.1668
  178DOPC  H13B21733   2.279   1.399  12.367 -0.4704 -0.9751 -0.0022
  178DOPC  H13C21734   2.449   1.432  12.370  0.7500 -0.2527 -1.2421
  178DOPC   C1421735   2.307   1.124  12.442 -0.5463  0.0500  0.0668
  178DOPC  H14A21736   2.204   1.146  12.416 -1.1725 -0.0897  2.1967
  178DOPC  H14B21737   2.348   1.069  12.359 -0.7472  0.9926 -0.6736
  178DOPC  H14C21738   2.286   1.056  12.524 -1.4244 -0.2917 -0.4313
  178DOPC   C1521739   2.532   1.218  12.489 -0.1056  0.1621 -0.0381
  178DOPC  H15A21740   2.536   1.146  12.569 -0.1984  2.2038  1.9158
  178DOPC  H15B21741   2.592   1.306  12.507 -0.1468  0.1031  0.4216
  178DOPC  H15C21742   2.567   1.165  12.402  0.6435 -0.3849  0.5839
  178DOPC   C1121743   2.338   1.223  12.737  0.2516  0.0370 -1.2111
  178DOPC  H11A21744   2.444   1.195  12.749  0.4795  1.5262  0.7848
  178DOPC  H11B21745   2.319   1.278  12.832  1.6302 -2.3996  0.5743
  178DOPC     P21746   2.107   1.118  12.769  0.2960 -0.0090  0.1500
  178DOPC   O1321747   2.036   0.997  12.716  0.2686  0.0332  0.2831
  178DOPC   O1421748   2.049   1.253  12.734  0.0242 -0.2045  0.1976
  178DOPC   O1221749   2.261   1.107  12.726  0.6160  0.4965 -0.1511
  178DOPC   O1121750   2.109   1.108  12.925 -0.2485  0.4758 -0.5871
  178DOPC    C121751   2.221   1.057  12.999 -0.1485  0.0626 -1.0575
  178DOPC    HA21752   2.264   1.148  13.046 -2.0060  1.6166 -2.2150
  178DOPC    HB21753   2.294   1.008  12.932  1.3533  2.7452 -1.5318
  178DOPC    C221754   2.180   0.955  13.107 -0.2549 -0.1416  0.0720
  178DOPC    HS21755   2.268   0.949  13.175  1.4306  2.1762 -1.7216
  178DOPC   O2121756   2.159   0.821  13.053 -0.0736  0.3554  0.1698
  178DOPC   C2121757   2.268   0.751  13.027 -0.6057  0.2423  0.4447
  178DOPC   O2221758   2.382   0.783  13.058  0.1007  0.2375  0.3763
  178DOPC   C2221759   2.236   0.627  12.943 -0.0866 -0.4347  0.1716
  178DOPC   H2R21760   2.211   0.652  12.838 -0.8196 -0.8739  0.2288
  178DOPC   H2S21761   2.138   0.586  12.976 -1.2096  0.1844 -2.1916
  178DOPC    C321762   2.054   1.000  13.186  0.2284 -0.0854 -0.4040
  178DOPC    HX21763   1.970   0.971  13.119 -1.4258  0.9834  1.1183
  178DOPC    HY21764   2.056   1.111  13.199  1.1541 -0.3410  2.1788
  178DOPC   O3121765   2.032   0.935  13.316 -0.0177  0.2936  0.4429
  178DOPC   C3121766   2.120   0.973  13.409 -0.1848  0.6344 -0.1063
  178DOPC   O3221767   2.200   1.058  13.394 -0.3370  0.2955  0.0981
  178DOPC   C3221768   2.109   0.875  13.528 -0.4683 -0.3778  0.3993
  178DOPC   H2X21769   2.055   0.922  13.614 -0.1685 -3.9138  2.7300
  178DOPC   H2Y21770   2.055   0.784  13.495  0.5647 -1.1781  0.8546
  178DOPC   C2321771   2.346   0.513  12.934 -0.5834  0.2290  0.4982
  178DOPC   H3R21772   2.439   0.567  12.906 -0.8147  0.2859 -0.1947
  178DOPC   H3S21773   2.318   0.452  12.845 -0.5365 -3.2769  2.7251
  178DOPC   C2421774   2.358   0.421  13.059  0.0952  0.1317  0.6178
  178DOPC   H4R21775   2.447   0.355  13.059 -0.6809 -1.0647 -2.0687
  178DOPC   H4S21776   2.269   0.353  13.059  1.4972 -1.8981 -1.9963
  178DOPC   C2521777   2.380   0.491  13.191  0.6422 -0.3863  0.1373
  178DOPC   H5R21778   2.282   0.529  13.227  0.5239 -1.4832  1.0045
  178DOPC   H5S21779   2.447   0.579  13.177 -0.2507  0.2651 -0.1923
  178DOPC   C2621780   2.425   0.401  13.301 -0.5548 -0.0166  0.2411
  178DOPC   H6R21781   2.531   0.368  13.294 -0.6144 -0.6365  1.9399
  178DOPC   H6S21782   2.357   0.314  13.300  2.0931 -2.2167 -0.4049
  178DOPC   C2721783   2.424   0.470  13.433  0.1617 -0.4572 -0.6310
  178DOPC   H7R21784   2.316   0.495  13.429 -0.1429 -1.8313 -1.3909
  178DOPC   H7S21785   2.494   0.556  13.427 -1.5406  0.9370 -1.1864
  178DOPC   C2821786   2.455   0.386  13.551  0.1190  0.0397  0.0952
  178DOPC   H8R21787   2.400   0.291  13.541 -0.5780  0.3656  0.7077
  178DOPC   H8S21788   2.432   0.434  13.648  1.6335 -0.6953  0.8493
  178DOPC   C2921789   2.603   0.348  13.543  0.0738 -0.5126  0.1306
  178DOPC   H9R21790   2.624   0.259  13.482 -0.5228  0.3055 -1.3463
  178DOPC  C21021791   2.702   0.407  13.614  0.3047  0.3855  0.2242
  178DOPC  H10R21792   2.806   0.376  13.594 -0.5574 -0.3400 -4.2297
  178DOPC  C21121793   2.694   0.522  13.704  0.3402  0.4013  0.3682
  178DOPC  H11R21794   2.590   0.552  13.729 -0.2620 -1.6849  0.5517
  178DOPC  H11S21795   2.739   0.612  13.657  1.9006  0.5597  2.0421
  178DOPC  C21221796   2.754   0.480  13.836  0.4482  0.2591  0.0349
  178DOPC  H12R21797   2.861   0.448  13.835  2.4471  5.7265  2.0005
  178DOPC  H12S21798   2.693   0.393  13.870  1.9495 -0.9120 -0.1516
  178DOPC  C21321799   2.768   0.592  13.939 -0.2705  0.0129  0.0113
  178DOPC  H13R21800   2.678   0.651  13.912 -1.0140 -0.4599  1.3719
  178DOPC  H13S21801   2.862   0.643  13.909 -0.9949  0.8595 -0.8832
  178DOPC  C21421802   2.756   0.539  14.082  0.1198  0.3544  0.0358
  178DOPC  H14R21803   2.818   0.446  14.083  0.4351  0.4815 -2.3836
  178DOPC  H14S21804   2.652   0.506  14.101  0.2558  0.9452  2.0922
  178DOPC  C21521805   2.811   0.629  14.199 -0.0015  0.1041  0.2366
  178DOPC  H15R21806   2.762   0.728  14.192  0.9538  0.8725  3.2167
  178DOPC  H15S21807   2.922   0.637  14.188 -0.2063  1.5966 -1.1536
  178DOPC  C21621808   2.787   0.572  14.339 -0.4605  0.6271  0.3345
  178DOPC  H16R21809   2.841   0.477  14.356 -1.2060  0.4087  1.6412
  178DOPC  H16S21810   2.686   0.530  14.357 -0.3713  1.3647  2.9253
  178DOPC  C21721811   2.821   0.667  14.453  0.6252  0.6797  0.9381
  178DOPC  H17R21812   2.794   0.619  14.550 -2.1308  1.4814  0.6412
  178DOPC  H17S21813   2.751   0.751  14.437 -2.5297 -1.9932 -0.4163
  178DOPC  C21821814   2.966   0.721  14.458  0.0806 -0.0768 -0.1147
  178DOPC  H18R21815   2.978   0.807  14.526  1.4133  0.9561 -1.5946
  178DOPC  H18S21816   3.008   0.768  14.367  0.9811 -1.7245 -0.6061
  178DOPC  H18T21817   3.042   0.645  14.486  2.3112  2.4731  1.1211
  178DOPC   C3321818   2.242   0.831  13.592  0.2923 -0.5222  0.4344
  178DOPC   H3X21819   2.315   0.914  13.587  1.5634 -1.6235  0.1618
  178DOPC   H3Y21820   2.289   0.751  13.531 -0.8190 -0.4010 -0.6258
  178DOPC   C3421821   2.209   0.782  13.733  0.3543  0.5338 -0.2487
  178DOPC   H4X21822   2.125   0.710  13.725 -0.2190  1.3132 -1.6190
  178DOPC   H4Y21823   2.169   0.864  13.796 -0.3467  1.0790 -1.3697
  178DOPC   C3521824   2.328   0.723  13.818  1.0375 -0.0765  0.1458
  178DOPC   H5X21825   2.408   0.799  13.825 -0.3370  1.3185  1.3277
  178DOPC   H5Y21826   2.359   0.630  13.766 -1.7197  0.6780 -3.2546
  178DOPC   C3621827   2.288   0.685  13.963  0.7902 -0.0109  1.1973
  178DOPC   H6X21828   2.255   0.777  14.015 -2.9400  0.9935 -2.4300
  178DOPC   H6Y21829   2.204   0.613  13.975 -0.1796  0.9544  0.3186
  178DOPC   C3721830   2.414   0.630  14.032  0.0464 -0.6710  0.5606
  178DOPC   H7X21831   2.434   0.529  13.991  1.0152  0.0023 -0.6750
  178DOPC   H7Y21832   2.501   0.699  14.025 -0.0102 -0.7280 -0.8491
  178DOPC   C3821833   2.394   0.620  14.188 -0.1132 -0.2167  0.7735
  178DOPC   H8X21834   2.491   0.575  14.219  1.0835 -0.7699 -3.2739
  178DOPC   H8Y21835   2.320   0.544  14.221  0.8641 -0.5541  2.3026
  178DOPC   C3921836   2.376   0.761  14.246 -1.0306  0.1682  0.2132
  178DOPC   H9X21837   2.434   0.844  14.203  0.5248  0.6920  3.0805
  178DOPC  C31021838   2.294   0.789  14.350  0.3273 -0.1031  0.0500
  178DOPC  H10X21839   2.271   0.892  14.380 -3.0424 -0.7337  0.0968
  178DOPC  C31121840   2.205   0.689  14.423 -0.2551  0.8380  0.5843
  178DOPC  H11X21841   2.175   0.601  14.361 -0.8671 -0.2202  2.2893
  178DOPC  H11Y21842   2.104   0.720  14.458 -0.4142  2.0474 -0.8995
  178DOPC  C31221843   2.286   0.625  14.537 -0.5694 -0.8276 -0.0733
  178DOPC  H12X21844   2.387   0.599  14.500 -1.1426 -4.4399  0.5428
  178DOPC  H12Y21845   2.241   0.530  14.572 -0.8859  0.0852  2.1394
  178DOPC  C31321846   2.288   0.720  14.658  0.0092 -0.0058 -0.0004
  178DOPC  H13X21847   2.348   0.810  14.633  0.2254  0.4239  1.9108
  178DOPC  H13Y21848   2.182   0.754  14.666 -0.5194 -0.5108 -3.3060
  178DOPC  C31421849   2.349   0.666  14.785  0.0539 -0.5598 -0.6916
  178DOPC  H14X21850   2.272   0.602  14.833 -1.0881  0.9753 -0.4008
  178DOPC  H14Y21851   2.434   0.604  14.748 -0.0312 -0.2986 -1.3223
  178DOPC  C31521852   2.385   0.781  14.887 -0.1600  0.1352 -0.1158
  178DOPC  H15X21853   2.415   0.739  14.986  1.8550  0.5295 -0.5081
  178DOPC  H15Y21854   2.298   0.844  14.914  0.2730 -0.5211  3.2238
  178DOPC  C31621855   2.496   0.879  14.841 -0.2456 -0.1155  0.3370
  178DOPC  H16X21856   2.454   0.950  14.767  1.2621 -0.9469 -1.3944
  178DOPC  H16Y21857   2.538   0.945  14.920  0.4507  1.5936 -1.3896
  178DOPC  C31721858   2.621   0.806  14.774  0.3072  0.0529 -0.5533
  178DOPC  H17X21859   2.590   0.739  14.691  0.1891  0.7628 -1.0945
  178DOPC  H17Y21860   2.689   0.885  14.734  0.6198 -0.1446 -0.4140
  178DOPC  C31821861   2.704   0.716  14.876 -0.3859  0.0290 -0.7075
  178DOPC  H18X21862   2.651   0.625  14.912  1.5619 -2.0163 -2.6632
  178DOPC  H18Y21863   2.798   0.695  14.820 -0.3167  2.7757 -1.7845
  178DOPC  H18Z21864   2.738   0.772  14.965 -1.3161 -0.4299 -0.0511
  179DOPC     N21865   4.632   6.659  12.515 -0.0769 -0.1763  0.1664
  179DOPC   C1221866   4.706   6.529  12.542  0.1110  0.8768  0.1233
  179DOPC  H12A21867   4.678   6.448  12.476  1.2313  1.1816 -0.7640
  179DOPC  H12B21868   4.663   6.492  12.634 -3.2676  1.7313 -0.9505
  179DOPC   C1321869   4.487   6.644  12.558 -0.5529  0.5349 -0.2564
  179DOPC  H13A21870   4.430   6.597  12.479 -1.5970  0.5619  0.4602
  179DOPC  H13B21871   4.483   6.584  12.648  2.0483  0.9230  0.1878
  179DOPC  H13C21872   4.451   6.745  12.572 -1.6002  0.4940 -2.2344
  179DOPC   C1421873   4.638   6.692  12.371  0.4559 -0.4835 -0.5275
  179DOPC  H14A21874   4.600   6.609  12.314  0.0079 -1.8722  1.6553
  179DOPC  H14B21875   4.595   6.788  12.344  1.2178  0.4584  1.4103
  179DOPC  H14C21876   4.738   6.709  12.335  0.6198  1.4841  0.6619
  179DOPC   C1521877   4.688   6.771  12.603 -0.1033  0.3927  0.5904
  179DOPC  H15A21878   4.696   6.736  12.705 -0.4965  1.9372  1.1757
  179DOPC  H15B21879   4.622   6.856  12.603  1.4121  1.6411 -0.8858
  179DOPC  H15C21880   4.789   6.801  12.578  0.0881  0.9943  1.9835
  179DOPC   C1121881   4.860   6.544  12.540 -0.0294  0.5073 -0.3345
  179DOPC  H11A21882   4.903   6.610  12.619  1.9023 -0.4163 -0.5511
  179DOPC  H11B21883   4.887   6.440  12.565 -0.3331  0.4558 -0.2145
  179DOPC     P21884   5.045   6.646  12.386  0.3433  0.0387  0.1956
  179DOPC   O1321885   5.034   6.782  12.327  0.6457  0.6439 -0.3695
  179DOPC   O1421886   5.109   6.547  12.302 -0.1476  0.0120 -0.3186
  179DOPC   O1221887   4.898   6.590  12.412  0.2070 -0.1252  0.4069
  179DOPC   O1121888   5.131   6.660  12.517  0.0644  0.2902 -0.0003
  179DOPC    C121889   5.207   6.545  12.563  0.1553  0.9570  0.1749
  179DOPC    HA21890   5.314   6.574  12.573  0.7285 -1.1033  0.6200
  179DOPC    HB21891   5.193   6.453  12.502  1.5432  0.1243  1.0493
  179DOPC    C221892   5.178   6.501  12.709 -0.1129 -0.1387  0.9446
  179DOPC    HS21893   5.070   6.472  12.708 -1.0496  2.7410 -2.2036
  179DOPC   O2121894   5.212   6.615  12.796 -0.1813 -0.5985 -0.4597
  179DOPC   C2121895   5.127   6.627  12.895  1.2177 -0.1684  0.4296
  179DOPC   O2221896   5.017   6.568  12.907  0.4108 -0.5761 -0.1661
  179DOPC   C2221897   5.189   6.720  12.996  0.3370  0.0549 -0.2910
  179DOPC   H2R21898   5.188   6.821  12.951  1.0036  1.9505  3.5528
  179DOPC   H2S21899   5.286   6.670  13.017 -1.5366 -3.1985  1.4652
  179DOPC    C321900   5.269   6.377  12.746  0.5281  0.2982 -0.2454
  179DOPC    HX21901   5.376   6.402  12.734  0.6987 -0.5212 -0.4831
  179DOPC    HY21902   5.243   6.292  12.679 -0.8029  1.0725 -0.7697
  179DOPC   O3121903   5.264   6.343  12.889  0.0413 -0.2415  0.6263
  179DOPC   C3121904   5.151   6.281  12.918  0.0165  0.1433  0.4182
  179DOPC   O3221905   5.074   6.231  12.836  0.3488 -0.1715 -0.0302
  179DOPC   C3221906   5.126   6.297  13.073 -1.1866 -0.0566  0.3640
  179DOPC   H2X21907   5.188   6.213  13.111 -0.6324 -0.6516 -1.7463
  179DOPC   H2Y21908   5.164   6.396  13.106 -0.9875 -0.7828  2.4895
  179DOPC   C2321909   5.109   6.702  13.130 -0.1039 -0.0953  0.2884
  179DOPC   H3R21910   5.101   6.594  13.156 -0.6455  0.1710  1.2791
  179DOPC   H3S21911   5.005   6.730  13.102  0.2359 -1.3851 -2.6895
  179DOPC   C2421912   5.159   6.778  13.248  0.8928 -0.8465  0.5371
  179DOPC   H4R21913   5.159   6.886  13.225  1.2389 -1.1699 -1.0528
  179DOPC   H4S21914   5.265   6.747  13.258  1.6467  0.7749 -1.6710
  179DOPC   C2521915   5.086   6.764  13.388  0.1897 -0.2437  0.0903
  179DOPC   H5R21916   5.052   6.660  13.410 -0.7644 -0.1296 -0.7573
  179DOPC   H5S21917   4.987   6.814  13.382  1.0594  1.4124 -1.4982
  179DOPC   C2621918   5.163   6.783  13.517  0.4658 -0.4452 -0.6327
  179DOPC   H6R21919   5.198   6.889  13.518  0.2074 -0.3097 -2.3124
  179DOPC   H6S21920   5.251   6.715  13.510 -0.9545 -2.5566  0.8766
  179DOPC   C2721921   5.087   6.764  13.649 -0.4557  0.6026  0.8427
  179DOPC   H7R21922   5.050   6.659  13.641  1.3646 -0.0784  1.0000
  179DOPC   H7S21923   4.994   6.824  13.663 -1.1767 -0.5696  1.1857
  179DOPC   C2821924   5.178   6.779  13.780  0.1972 -0.8392  0.2276
  179DOPC   H8R21925   5.258   6.703  13.768  1.1524  0.1286  0.2786
  179DOPC   H8S21926   5.105   6.737  13.853 -0.9537 -0.3104 -0.5907
  179DOPC   C2921927   5.229   6.920  13.819 -0.1683  0.3239 -0.2661
  179DOPC   H9R21928   5.264   6.981  13.734 -0.9640 -2.3126 -2.6620
  179DOPC  C21021929   5.208   6.988  13.932  0.2728  0.5951 -0.0550
  179DOPC  H10R21930   5.243   7.092  13.941  1.8351  0.2255 -1.4546
  179DOPC  C21121931   5.148   6.937  14.060 -0.6791  0.3440  0.5950
  179DOPC  H11R21932   5.217   6.952  14.146  0.5151  0.6358 -0.3856
  179DOPC  H11S21933   5.128   6.828  14.055  1.3405  0.0079 -2.5951
  179DOPC  C21221934   5.011   6.997  14.093 -0.3072 -0.4969 -0.3050
  179DOPC  H12R21935   4.946   6.962  14.010 -2.4149 -0.7355  1.3616
  179DOPC  H12S21936   5.013   7.107  14.106  0.2171 -0.7452  2.6047
  179DOPC  C21321937   4.943   6.939  14.219  0.5031  0.3475  0.3257
  179DOPC  H13R21938   4.972   6.832  14.233 -1.8443 -0.8707 -2.9587
  179DOPC  H13S21939   4.835   6.929  14.200  0.6009 -1.4888  0.5178
  179DOPC  C21421940   4.983   7.020  14.345 -0.7816  0.7042 -0.0079
  179DOPC  H14R21941   4.975   7.127  14.318  0.8884  0.4232 -1.8867
  179DOPC  H14S21942   5.093   7.005  14.356 -1.0702 -0.2087  2.0356
  179DOPC  C21521943   4.909   7.000  14.475 -0.6489  1.0637  0.0264
  179DOPC  H15R21944   4.924   6.894  14.505 -2.1251  1.5071  2.6321
  179DOPC  H15S21945   4.800   7.018  14.470 -0.6095  0.8781 -3.0749
  179DOPC  C21621946   4.959   7.080  14.592 -0.1480 -0.0460  0.3788
  179DOPC  H16R21947   4.892   7.168  14.581 -2.0485 -1.5931 -1.3474
  179DOPC  H16S21948   5.062   7.116  14.572 -0.3553 -0.7610 -2.5454
  179DOPC  C21721949   4.937   7.020  14.725  0.1554  0.3344 -0.4856
  179DOPC  H17R21950   5.002   6.931  14.743  1.9446  1.8270  0.8238
  179DOPC  H17S21951   4.829   6.992  14.727  0.2494 -0.0036  0.1566
  179DOPC  C21821952   4.973   7.117  14.832  0.2583 -0.2533 -0.1716
  179DOPC  H18R21953   4.931   7.216  14.806 -0.4420 -0.2725  0.8569
  179DOPC  H18S21954   5.083   7.116  14.850  0.1859 -0.1819  0.2679
  179DOPC  H18T21955   4.919   7.086  14.924 -1.2959  0.2682 -0.8827
  179DOPC   C3321956   4.985   6.272  13.115  0.8393 -0.2179  0.1040
  179DOPC   H3X21957   4.948   6.182  13.061 -0.8392 -1.1077  2.5749
  179DOPC   H3Y21958   4.919   6.360  13.101 -0.2272 -0.6414  2.1417
  179DOPC   C3421959   4.964   6.251  13.263 -0.0601  0.4403  0.1326
  179DOPC   H4X21960   4.969   6.142  13.286  0.9591  0.1858 -1.1789
  179DOPC   H4Y21961   4.857   6.256  13.293  0.0902  0.9990  0.6046
  179DOPC   C3521962   5.051   6.333  13.357  0.5443 -0.5055  0.1381
  179DOPC   H5X21963   5.020   6.436  13.329 -0.0320 -0.8194 -0.4064
  179DOPC   H5Y21964   5.157   6.319  13.328  0.6237 -0.6705  0.4953
  179DOPC   C3621965   5.046   6.318  13.513 -0.3417 -0.7762  0.2690
  179DOPC   H6X21966   4.954   6.374  13.540  0.7981  0.4671  1.7655
  179DOPC   H6Y21967   5.039   6.208  13.525 -2.8604 -0.5246  1.7880
  179DOPC   C3721968   5.168   6.349  13.596  0.5287 -0.0835 -0.2060
  179DOPC   H7X21969   5.262   6.305  13.556  1.0506  2.4579 -2.0480
  179DOPC   H7Y21970   5.192   6.457  13.599  1.3908 -0.2905  0.9729
  179DOPC   C3821971   5.159   6.307  13.739  0.1225  0.3274 -0.9485
  179DOPC   H8X21972   5.256   6.321  13.791 -0.9899  0.7339  1.1513
  179DOPC   H8Y21973   5.151   6.197  13.728 -0.4368  0.4841 -2.2960
  179DOPC   C3921974   5.038   6.372  13.799 -0.5360  0.6119 -0.2707
  179DOPC   H9X21975   4.959   6.409  13.732 -1.2570  2.0703  1.3037
  179DOPC  C31021976   5.004   6.365  13.930  0.3974 -0.0886  0.4016
  179DOPC  H10X21977   4.911   6.414  13.964 -0.5323 -1.6637  0.2312
  179DOPC  C31121978   5.090   6.307  14.036 -0.4264  0.2499  0.7329
  179DOPC  H11X21979   5.163   6.231  14.001  0.5312  1.0519  0.9353
  179DOPC  H11Y21980   5.030   6.257  14.115  3.0752  0.3747  3.7305
  179DOPC  C31221981   5.163   6.422  14.112 -0.0306 -0.5321  1.0717
  179DOPC  H12X21982   5.225   6.379  14.194  0.4626 -0.0698  0.9405
  179DOPC  H12Y21983   5.092   6.497  14.155 -0.4159  1.4666 -2.6824
  179DOPC  C31321984   5.258   6.502  14.021 -0.2916 -0.5305  0.1847
  179DOPC  H13X21985   5.328   6.431  13.973  0.6782  0.1751  0.5029
  179DOPC  H13Y21986   5.210   6.569  13.946 -2.4112 -1.6490  0.4596
  179DOPC  C31421987   5.350   6.591  14.116 -0.2148 -0.1741 -0.9277
  179DOPC  H14X21988   5.285   6.667  14.165  1.2139  0.3900  0.1925
  179DOPC  H14Y21989   5.401   6.524  14.189  1.2848  2.1662  0.2968
  179DOPC  C31521990   5.460   6.673  14.042  0.2426  0.0423 -1.2714
  179DOPC  H15X21991   5.406   6.718  13.955  0.1653 -0.6032 -1.5645
  179DOPC  H15Y21992   5.528   6.605  13.988 -0.7423 -0.5028 -1.8526
  179DOPC  C31621993   5.523   6.782  14.128  0.4720 -0.4408 -0.2814
  179DOPC  H16X21994   5.441   6.848  14.163 -0.9530 -1.3267 -1.8233
  179DOPC  H16Y21995   5.590   6.744  14.208  3.5621  0.5806 -2.1795
  179DOPC  C31721996   5.603   6.882  14.045  0.2353  0.1889 -0.2926
  179DOPC  H17X21997   5.684   6.836  13.985  0.3885  1.6869 -1.2986
  179DOPC  H17Y21998   5.536   6.915  13.962 -0.4068  0.0661  0.1614
  179DOPC  C31821999   5.640   7.010  14.115  0.3280 -0.0969 -0.1103
  179DOPC  H18X22000   5.686   6.992  14.215 -0.5441 -1.1409  0.1277
  179DOPC  H18Y22001   5.703   7.064  14.042  0.4321 -1.4060 -1.0147
  179DOPC  H18Z22002   5.559   7.085  14.130  1.4435  1.2331 -0.5868
  180DOPC     N22003   6.538   4.069  12.374 -0.3896  0.3527  0.1110
  180DOPC   C1222004   6.450   4.066  12.498 -0.8701  0.5743 -0.2926
  180DOPC  H12A22005   6.515   4.057  12.584 -0.9161 -0.3851 -0.3511
  180DOPC  H12B22006   6.413   3.965  12.497 -0.6994  0.5083 -1.6300
  180DOPC   C1322007   6.611   3.942  12.356  0.0942 -0.3836 -0.2385
  180DOPC  H13A22008   6.545   3.856  12.361 -3.1663  1.7575 -2.4546
  180DOPC  H13B22009   6.655   3.929  12.258  1.8600 -0.3131  0.5015
  180DOPC  H13C22010   6.698   3.935  12.419 -0.2374 -0.7407  0.1868
  180DOPC   C1422011   6.637   4.176  12.374 -0.0388  0.2033  0.2861
  180DOPC  H14A22012   6.592   4.273  12.389 -1.0305 -0.5791  2.9825
  180DOPC  H14B22013   6.706   4.154  12.454  2.3097  0.0962 -1.6743
  180DOPC  H14C22014   6.694   4.167  12.283  0.7734  1.8812  0.5727
  180DOPC   C1522015   6.453   4.078  12.256 -0.6883 -0.6318  0.7762
  180DOPC  H15A22016   6.514   4.082  12.167  1.8281  1.6073  2.4597
  180DOPC  H15B22017   6.389   4.164  12.271 -0.6798 -0.8137  1.9286
  180DOPC  H15C22018   6.384   3.994  12.256  0.7590 -1.8878 -0.7952
  180DOPC   C1122019   6.347   4.171  12.531  0.4626  0.5030 -0.3711
  180DOPC  H11A22020   6.316   4.141  12.634  1.8338 -0.9283 -0.3312
  180DOPC  H11B22021   6.409   4.263  12.530 -0.5127  1.1690 -0.8952
  180DOPC     P22022   6.122   4.074  12.453 -0.4517  0.1585  0.5242
  180DOPC   O1322023   6.161   3.957  12.375 -0.1583  0.2065  0.4223
  180DOPC   O1422024   6.001   4.150  12.413  0.1896  0.1334  0.3516
  180DOPC   O1222025   6.239   4.175  12.432  0.4435 -0.5367  0.2083
  180DOPC   O1122026   6.115   4.042  12.606 -0.0848  0.5909  0.1944
  180DOPC    C122027   6.062   3.919  12.643 -0.0908  0.5916 -1.1015
  180DOPC    HA22028   6.137   3.838  12.635 -1.7179 -0.9822 -0.9154
  180DOPC    HB22029   5.978   3.887  12.578  0.7361 -1.7201 -1.0986
  180DOPC    C222030   6.003   3.938  12.784 -0.1592 -0.7329  0.4233
  180DOPC    HS22031   5.913   4.002  12.775  0.3309  0.2161  1.8588
  180DOPC   O2122032   6.107   3.997  12.872 -0.0594 -0.1112  0.0232
  180DOPC   C2122033   6.088   4.121  12.904 -0.9691 -0.1273 -0.5325
  180DOPC   O2222034   5.994   4.185  12.868  0.3582  0.8694 -0.5375
  180DOPC   C2222035   6.205   4.177  12.981 -0.0485 -0.4440 -0.0731
  180DOPC   H2R22036   6.306   4.153  12.940  1.0632 -0.9857  2.7226
  180DOPC   H2S22037   6.204   4.120  13.076 -0.6800 -2.0798 -1.0171
  180DOPC    C322038   5.950   3.804  12.850 -0.3382 -0.1576  0.0072
  180DOPC    HX22039   6.040   3.738  12.850  0.6487  1.1255 -1.1068
  180DOPC    HY22040   5.870   3.757  12.788 -1.4059  0.1256  1.1476
  180DOPC   O3122041   5.899   3.823  12.981 -0.2149  0.0388  0.3594
  180DOPC   C3122042   5.980   3.821  13.085  0.3338  0.4054 -0.1958
  180DOPC   O3222043   6.093   3.789  13.090 -0.1780 -0.4414 -0.0068
  180DOPC   C3222044   5.901   3.877  13.203  0.4968  0.2293  0.6507
  180DOPC   H2X22045   5.893   3.987  13.192 -3.2709  0.0353  0.2809
  180DOPC   H2Y22046   5.803   3.825  13.207  1.4857 -1.7009  1.1881
  180DOPC   C2322047   6.184   4.327  13.025  0.2009 -0.4034  0.4443
  180DOPC   H3R22048   6.099   4.318  13.097  1.1114 -0.2565  1.5527
  180DOPC   H3S22049   6.162   4.393  12.938  1.5006 -1.2776 -0.5826
  180DOPC   C2422050   6.310   4.384  13.076  0.0516 -0.1147  0.0741
  180DOPC   H4R22051   6.369   4.408  12.985 -0.4880 -0.1189 -0.2824
  180DOPC   H4S22052   6.375   4.313  13.132  0.9708 -1.0025 -2.0061
  180DOPC   C2522053   6.286   4.510  13.161  0.1758  0.7821 -0.7994
  180DOPC   H5R22054   6.193   4.559  13.124 -1.7265 -0.1352  2.4277
  180DOPC   H5S22055   6.369   4.583  13.156  1.8359 -1.0388 -1.0120
  180DOPC   C2622056   6.245   4.463  13.301 -0.1451 -0.0954  0.4433
  180DOPC   H6R22057   6.180   4.372  13.303  2.0888 -1.7849  2.6619
  180DOPC   H6S22058   6.191   4.544  13.353 -0.3108 -0.6895  1.2207
  180DOPC   C2722059   6.355   4.417  13.395 -0.8217  0.5028 -0.4374
  180DOPC   H7R22060   6.427   4.498  13.420 -1.1900  1.2734 -1.8222
  180DOPC   H7S22061   6.414   4.340  13.341 -0.2254  0.9708 -0.4654
  180DOPC   C2822062   6.298   4.375  13.540 -1.0665 -0.2269  0.7650
  180DOPC   H8R22063   6.219   4.299  13.523  0.6628 -2.4206  2.0338
  180DOPC   H8S22064   6.259   4.464  13.592 -1.1035  0.7308 -0.8215
  180DOPC   C2922065   6.405   4.297  13.611  0.6453  0.4238 -0.7649
  180DOPC   H9R22066   6.462   4.231  13.545 -0.0235  1.8714 -2.8883
  180DOPC  C21022067   6.445   4.314  13.743  0.2017  0.0012 -0.0689
  180DOPC  H10R22068   6.526   4.250  13.780  0.0500 -1.3942 -2.0323
  180DOPC  C21122069   6.396   4.426  13.829  0.3057 -0.2298  0.1107
  180DOPC  H11R22070   6.337   4.499  13.769 -1.6627 -0.0337  2.1647
  180DOPC  H11S22071   6.484   4.490  13.853 -0.1132  0.6044 -0.4859
  180DOPC  C21222072   6.312   4.401  13.958  0.4569 -0.1456 -0.5874
  180DOPC  H12R22073   6.366   4.335  14.029 -1.3110  0.0072  0.9666
  180DOPC  H12S22074   6.216   4.351  13.932 -0.5917 -0.1177  2.7412
  180DOPC  C21322075   6.286   4.529  14.034 -0.0658 -0.4254  0.3894
  180DOPC  H13R22076   6.201   4.574  13.979 -0.0633 -0.0001  0.7295
  180DOPC  H13S22077   6.377   4.592  14.036  0.1703 -0.7673  2.1735
  180DOPC  C21422078   6.250   4.499  14.182  0.6037  0.6435  0.2292
  180DOPC  H14R22079   6.330   4.438  14.230  1.0920  0.6382 -0.5591
  180DOPC  H14S22080   6.160   4.434  14.183  1.0291 -0.0076 -1.3154
  180DOPC  C21522081   6.240   4.630  14.253  0.5973 -0.0846 -0.1483
  180DOPC  H15R22082   6.140   4.678  14.245  0.6174 -0.0893 -0.4556
  180DOPC  H15S22083   6.310   4.702  14.206 -0.5151 -0.9442 -3.4760
  180DOPC  C21622084   6.276   4.618  14.406 -0.3264 -0.3834 -0.3787
  180DOPC  H16R22085   6.374   4.565  14.403 -0.9782 -1.5929 -1.4657
  180DOPC  H16S22086   6.202   4.556  14.461 -1.6431  1.2237 -0.2791
  180DOPC  C21722087   6.305   4.753  14.472 -0.5178 -0.1239  0.3291
  180DOPC  H17R22088   6.238   4.837  14.446 -0.1635  0.4788  1.2953
  180DOPC  H17S22089   6.403   4.789  14.433 -0.0962 -0.6659  0.8570
  180DOPC  C21822090   6.315   4.749  14.623  0.1774 -0.1040 -0.2316
  180DOPC  H18R22091   6.394   4.680  14.659 -1.2566 -0.8935  1.5642
  180DOPC  H18S22092   6.220   4.713  14.669  0.8209 -0.3405  0.9785
  180DOPC  H18T22093   6.340   4.850  14.664  0.2069 -0.7002  1.3157
  180DOPC   C3322094   5.986   3.830  13.332 -0.1274 -0.3452 -1.0098
  180DOPC   H3X22095   6.093   3.861  13.337 -0.2473 -0.1226  2.1236
  180DOPC   H3Y22096   5.982   3.720  13.346 -2.2427  0.1302  4.8530
  180DOPC   C3422097   5.905   3.881  13.448  0.3050  0.2632  0.2750
  180DOPC   H4X22098   5.800   3.845  13.437  0.9299 -1.5624  0.0378
  180DOPC   H4Y22099   5.905   3.991  13.430  0.2312  0.0579 -1.1259
  180DOPC   C3522100   5.969   3.834  13.585 -0.0861 -1.0888 -0.1778
  180DOPC   H5X22101   6.066   3.883  13.610 -0.3168 -1.0217  0.6087
  180DOPC   H5Y22102   5.988   3.725  13.582 -1.0135 -1.3086  1.3362
  180DOPC   C3622103   5.883   3.868  13.711 -0.0115 -0.0427  0.0697
  180DOPC   H6X22104   5.851   3.974  13.712 -0.5202 -0.1823 -0.7006
  180DOPC   H6Y22105   5.785   3.817  13.696  0.0538  0.0047 -0.5186
  180DOPC   C3722106   5.943   3.818  13.834 -0.0210  0.4460 -0.1116
  180DOPC   H7X22107   5.953   3.711  13.807 -0.0031  0.2101  0.8069
  180DOPC   H7Y22108   6.045   3.858  13.852 -0.6244  1.6970  0.7096
  180DOPC   C3822109   5.859   3.816  13.962  0.0489 -0.4010 -0.1856
  180DOPC   H8X22110   5.757   3.776  13.944 -1.1015  1.3217  2.0236
  180DOPC   H8Y22111   5.845   3.923  13.988 -1.9979 -0.9746  1.3812
  180DOPC   C3922112   5.932   3.734  14.068  0.5404  0.0916 -0.1333
  180DOPC   H9X22113   5.948   3.627  14.050 -0.5323 -0.1667  0.3623
  180DOPC  C31022114   5.978   3.784  14.183 -0.2098 -0.2710 -0.6368
  180DOPC  H10X22115   6.025   3.714  14.255 -1.0798 -0.7659 -0.5350
  180DOPC  C31122116   5.961   3.922  14.248  0.7554  0.6757  0.3416
  180DOPC  H11X22117   5.884   3.981  14.193  0.3476  0.0506  0.2378
  180DOPC  H11Y22118   6.050   3.989  14.248  1.1305  0.1891 -0.0894
  180DOPC  C31222119   5.915   3.908  14.393  0.7000 -0.0888 -0.8578
  180DOPC  H12X22120   5.908   4.013  14.427  1.9325 -0.6095  1.1796
  180DOPC  H12Y22121   5.989   3.859  14.460  1.2480 -2.2180 -2.8927
  180DOPC  C31322122   5.781   3.833  14.414  0.1693 -0.3687 -0.2375
  180DOPC  H13X22123   5.714   3.848  14.327 -0.1820 -1.6215 -0.2096
  180DOPC  H13Y22124   5.808   3.725  14.407 -1.3411 -0.7606 -0.3782
  180DOPC  C31422125   5.716   3.848  14.546  0.5579 -0.3924  0.1132
  180DOPC  H14X22126   5.684   3.954  14.540  1.1296 -0.2837 -1.6262
  180DOPC  H14Y22127   5.631   3.777  14.544  0.4802 -0.2867 -0.6568
  180DOPC  C31522128   5.810   3.835  14.662  0.1852 -0.2356 -0.4384
  180DOPC  H15X22129   5.884   3.918  14.653 -1.9956  1.8815 -0.0277
  180DOPC  H15Y22130   5.862   3.737  14.662  1.3503  0.3514 -0.9238
  180DOPC  C31622131   5.737   3.873  14.800 -0.5301  0.5990  0.1672
  180DOPC  H16X22132   5.820   3.893  14.871 -0.0436  0.5325 -0.3803
  180DOPC  H16Y22133   5.683   3.967  14.777 -2.6617 -1.1255 -2.5203
  180DOPC  C31722134   5.651   3.758  14.859  0.0889 -0.7649  0.3188
  180DOPC  H17X22135   5.614   3.805  14.953 -1.7490  0.5079 -0.9614
  180DOPC  H17Y22136   5.562   3.739  14.795 -2.0945 -0.8322  3.1484
  180DOPC  C31822137   5.727   3.625  14.876  0.1061 -0.0681  0.2744
  180DOPC  H18X22138   5.805   3.634  14.955 -0.5810 -3.1606  1.4298
  180DOPC  H18Y22139   5.648   3.557  14.914 -0.2325 -0.1866 -0.6199
  180DOPC  H18Z22140   5.773   3.581  14.785  0.1004 -0.3051  0.3851
  181DOPC     N22141   0.894   4.655  12.601  0.3261  0.2571 -0.3278
  181DOPC   C1222142   0.774   4.716  12.677  0.4277  0.0666  0.1270
  181DOPC  H12A22143   0.686   4.665  12.640  0.4713  0.1646 -0.1101
  181DOPC  H12B22144   0.763   4.820  12.651  2.6192  0.3559  0.1750
  181DOPC   C1322145   1.023   4.714  12.645 -0.5644 -0.3688 -0.1000
  181DOPC  H13A22146   1.104   4.653  12.606 -0.3735 -0.8545  1.0235
  181DOPC  H13B22147   1.036   4.818  12.620  1.2284 -0.3039  0.9626
  181DOPC  H13C22148   1.037   4.708  12.751  0.8301 -0.3029 -0.2635
  181DOPC   C1422149   0.879   4.687  12.453 -0.2043 -0.1150 -0.1183
  181DOPC  H14A22150   0.873   4.793  12.433 -0.8962 -0.3066 -1.0014
  181DOPC  H14B22151   0.958   4.652  12.388 -3.1876 -0.7131 -3.7994
  181DOPC  H14C22152   0.797   4.624  12.421 -0.6824  0.7334 -0.6000
  181DOPC   C1522153   0.895   4.507  12.607 -0.0328  0.2974 -0.9055
  181DOPC  H15A22154   0.891   4.475  12.710 -1.6808 -0.3903 -1.1536
  181DOPC  H15B22155   0.985   4.469  12.561 -0.5944 -0.7523 -1.1767
  181DOPC  H15C22156   0.810   4.464  12.556  0.1537 -1.2418  0.0036
  181DOPC   C1122157   0.782   4.710  12.836 -0.2641 -0.3355 -0.0903
  181DOPC  H11A22158   0.844   4.791  12.878 -2.5117  1.8252 -0.7277
  181DOPC  H11B22159   0.682   4.723  12.882 -0.1690 -0.6308  0.2084
  181DOPC     P22160   0.744   4.466  12.935 -0.3066  0.1855  0.1162
  181DOPC   O1322161   0.811   4.336  12.920 -0.3243  0.3449 -0.0261
  181DOPC   O1422162   0.611   4.486  12.873  0.2210  0.2629 -0.4748
  181DOPC   O1222163   0.843   4.584  12.886  0.3432 -0.5071 -0.7850
  181DOPC   O1122164   0.740   4.486  13.087 -0.0813  0.3052 -0.4735
  181DOPC    C122165   0.700   4.613  13.146  0.3801  0.2441 -0.4879
  181DOPC    HA22166   0.593   4.632  13.122  0.6738  1.6794 -0.7374
  181DOPC    HB22167   0.761   4.697  13.106  1.5595 -0.8556 -1.1224
  181DOPC    C222168   0.708   4.616  13.296  0.6618  0.2937 -0.4375
  181DOPC    HS22169   0.671   4.710  13.341 -0.8333  0.2429 -1.4886
  181DOPC   O2122170   0.845   4.585  13.337 -0.3052  0.1941  0.2501
  181DOPC   C2122171   0.922   4.686  13.368  0.6462 -0.3350  0.4175
  181DOPC   O2222172   0.880   4.803  13.385  0.0243 -0.1767 -0.1458
  181DOPC   C2222173   1.062   4.633  13.391  0.7372 -0.1291  0.7377
  181DOPC   H2R22174   1.098   4.607  13.289 -3.0482 -0.9901 -0.5735
  181DOPC   H2S22175   1.058   4.538  13.448  3.3020 -3.8279 -4.4000
  181DOPC    C322176   0.611   4.515  13.355 -0.6150  0.0724 -0.0641
  181DOPC    HX22177   0.646   4.410  13.344  1.9505  0.7932  0.6368
  181DOPC    HY22178   0.521   4.527  13.291  1.3969  0.3757 -3.0286
  181DOPC   O3122179   0.583   4.532  13.499  0.2543 -0.6231 -0.0527
  181DOPC   C3122180   0.496   4.623  13.533  0.4370 -0.0825 -0.5550
  181DOPC   O3222181   0.436   4.703  13.458  0.2872  0.1754 -0.3299
  181DOPC   C3222182   0.480   4.609  13.685  0.0529  0.0333  0.1105
  181DOPC   H2X22183   0.514   4.708  13.723  0.9624 -0.2276  0.0126
  181DOPC   H2Y22184   0.371   4.604  13.706  0.1999 -0.1993  0.8542
  181DOPC   C2322185   1.156   4.736  13.451 -0.2612  0.2830 -1.3362
  181DOPC   H3R22186   1.146   4.834  13.399  1.1385 -0.5927 -3.3998
  181DOPC   H3S22187   1.260   4.700  13.437  0.7677  2.1957  0.7251
  181DOPC   C2422188   1.129   4.733  13.604 -0.0026 -0.2062 -0.5212
  181DOPC   H4R22189   1.151   4.635  13.651  1.2227  0.5158  0.5143
  181DOPC   H4S22190   1.023   4.760  13.622  0.9685  2.3687  2.3405
  181DOPC   C2522191   1.213   4.826  13.691  0.5089 -0.4546  0.6317
  181DOPC   H5R22192   1.178   4.929  13.669 -2.6330 -1.3681  0.8700
  181DOPC   H5S22193   1.317   4.820  13.650  0.4613 -0.3778  0.5008
  181DOPC   C2622194   1.201   4.815  13.840  0.3648 -0.8981 -0.1653
  181DOPC   H6R22195   1.217   4.709  13.869  1.6666 -0.8342 -0.5805
  181DOPC   H6S22196   1.096   4.840  13.867  0.4395 -0.5347 -0.1985
  181DOPC   C2722197   1.283   4.922  13.912  1.3639 -0.0958 -0.0846
  181DOPC   H7R22198   1.249   5.026  13.894  0.3531 -0.6995 -2.0122
  181DOPC   H7S22199   1.391   4.917  13.888  1.4945 -0.8695  0.5855
  181DOPC   C2822200   1.263   4.906  14.070  0.2271 -0.2454  0.0862
  181DOPC   H8R22201   1.155   4.926  14.086 -0.0390 -1.2241 -0.4508
  181DOPC   H8S22202   1.313   4.998  14.108 -2.8528  1.3534  0.5442
  181DOPC   C2922203   1.320   4.775  14.131 -0.2274 -0.5754 -0.4306
  181DOPC   H9R22204   1.362   4.699  14.064  1.7396 -0.2860  0.3996
  181DOPC  C21022205   1.331   4.740  14.259 -0.4650 -0.6901  0.0812
  181DOPC  H10R22206   1.334   4.635  14.293  0.6788 -0.1356  1.8383
  181DOPC  C21122207   1.319   4.834  14.376 -0.2552  0.4901  0.2082
  181DOPC  H11R22208   1.272   4.932  14.353 -0.1571  0.5374  0.2056
  181DOPC  H11S22209   1.422   4.855  14.414 -0.9379  1.9798  1.3479
  181DOPC  C21222210   1.232   4.778  14.484 -0.0971  0.0720  0.1471
  181DOPC  H12R22211   1.279   4.685  14.523 -1.4942 -1.2107 -1.1173
  181DOPC  H12S22212   1.126   4.758  14.458 -0.4712  0.9332  0.9247
  181DOPC  C21322213   1.232   4.872  14.605 -0.0756  1.0895 -0.6068
  181DOPC  H13R22214   1.243   4.974  14.564 -1.4138  0.4483 -2.7614
  181DOPC  H13S22215   1.314   4.843  14.674 -1.4515 -2.1110 -0.0874
  181DOPC  C21422216   1.109   4.873  14.698  0.2170  0.7589  0.4547
  181DOPC  H14R22217   1.019   4.897  14.638  0.5535 -0.1475 -0.4473
  181DOPC  H14S22218   1.111   4.954  14.774  1.2947  2.4006 -1.2259
  181DOPC  C21522219   1.080   4.730  14.748  1.1741 -0.3018  0.2333
  181DOPC  H15R22220   1.060   4.664  14.662  0.9932 -2.4875  1.8576
  181DOPC  H15S22221   0.980   4.741  14.796  0.3337  1.8720 -1.8149
  181DOPC  C21622222   1.180   4.678  14.848  0.1424  0.0111  0.0351
  181DOPC  H16R22223   1.286   4.704  14.825  0.6547 -1.3508  0.7492
  181DOPC  H16S22224   1.163   4.568  14.852  0.5022 -0.0231  1.3410
  181DOPC  C21722225   1.139   4.725  14.990  0.0594  0.0756 -0.3193
  181DOPC  H17R22226   1.044   4.679  15.024 -1.1458  2.0716 -0.8418
  181DOPC  H17S22227   1.131   4.835  14.996  0.1797  0.0179  5.1714
  181DOPC  C21822228   1.240   4.669  15.090 -0.0133  0.6115 -0.0330
  181DOPC  H18R22229   1.235   4.558  15.093  1.1741  0.4544 -2.1471
  181DOPC  H18S22230   1.226   4.713  15.191 -0.4980  2.3772 -0.8103
  181DOPC  H18T22231   1.341   4.705  15.058  0.0098 -0.5381 -1.3160
  181DOPC   C3322232   0.555   4.486  13.759  0.1525  0.3081  0.3325
  181DOPC   H3X22233   0.665   4.487  13.749  0.1160  2.4850 -0.1874
  181DOPC   H3Y22234   0.512   4.393  13.715  0.0595  0.3468  0.3400
  181DOPC   C3422235   0.523   4.499  13.909 -0.0875  0.0210  0.7399
  181DOPC   H4X22236   0.414   4.499  13.929 -0.3622 -0.0375 -0.6745
  181DOPC   H4Y22237   0.561   4.600  13.936 -0.0789  0.5386 -1.0967
  181DOPC   C3522238   0.592   4.391  13.990  0.3503  0.4536  0.8312
  181DOPC   H5X22239   0.694   4.391  13.947 -0.3051  2.1308 -0.8420
  181DOPC   H5Y22240   0.547   4.291  13.977  1.8942 -0.3874  1.6099
  181DOPC   C3622241   0.607   4.411  14.141 -0.1028  0.8163 -0.0809
  181DOPC   H6X22242   0.687   4.344  14.179 -0.3948  0.2918 -0.3789
  181DOPC   H6Y22243   0.637   4.515  14.169  0.1124 -0.0479  3.3951
  181DOPC   C3722244   0.473   4.390  14.214 -0.3552 -0.6407  0.4697
  181DOPC   H7X22245   0.389   4.399  14.141  0.9105  1.5428 -0.8175
  181DOPC   H7Y22246   0.471   4.280  14.231 -1.2869 -0.8163 -0.6250
  181DOPC   C3822247   0.455   4.464  14.349  0.0840  0.7263  0.2714
  181DOPC   H8X22248   0.530   4.425  14.421  0.3279 -0.7793 -0.7377
  181DOPC   H8Y22249   0.363   4.424  14.398  0.4044 -0.6561 -0.1952
  181DOPC   C3922250   0.454   4.614  14.342 -0.5799  0.2368  0.1167
  181DOPC   H9X22251   0.433   4.659  14.244 -0.7701  1.8672  0.8718
  181DOPC  C31022252   0.465   4.691  14.450 -0.7630 -0.2615 -0.7057
  181DOPC  H10X22253   0.446   4.799  14.441 -1.7351 -0.2248  1.1517
  181DOPC  C31122254   0.469   4.642  14.595  0.5417  0.0552  0.0745
  181DOPC  H11X22255   0.507   4.538  14.598  1.0924  0.2853  1.7533
  181DOPC  H11Y22256   0.371   4.652  14.646  0.3688  1.2551 -0.4596
  181DOPC  C31222257   0.562   4.737  14.669  0.4976 -0.3287  0.0487
  181DOPC  H12X22258   0.521   4.839  14.685 -2.5579 -1.6640  1.6555
  181DOPC  H12Y22259   0.661   4.742  14.619 -0.3271  0.4013 -1.5761
  181DOPC  C31322260   0.603   4.675  14.805  0.1093  0.5435  0.0956
  181DOPC  H13X22261   0.606   4.564  14.794 -1.5317  0.0270  3.5461
  181DOPC  H13Y22262   0.707   4.709  14.824  0.0177  1.4664 -0.9367
  181DOPC  C31422263   0.498   4.702  14.911  0.9813  0.2047 -0.2316
  181DOPC  H14X22264   0.468   4.808  14.923  0.1147  0.0005 -0.5504
  181DOPC  H14Y22265   0.408   4.639  14.894  0.3784  0.7935  0.6666
  181DOPC  C31522266   0.546   4.652  15.056  0.7486  0.2082  0.0291
  181DOPC  H15X22267   0.462   4.678  15.123  2.3248  2.8362  1.1760
  181DOPC  H15Y22268   0.636   4.708  15.089 -0.2930  1.1744  1.3423
  181DOPC  C31622269   0.554   4.500  15.072 -1.0618  0.0770 -0.0207
  181DOPC  H16X22270   0.616   4.457  14.991 -1.5544  0.7919 -0.7939
  181DOPC  H16Y22271   0.613   4.473  15.162  0.2583 -1.8267 -1.3635
  181DOPC  C31722272   0.423   4.415  15.076 -0.3082 -0.6376 -0.6067
  181DOPC  H17X22273   0.365   4.452  15.164 -1.4323  1.0396 -1.9791
  181DOPC  H17Y22274   0.368   4.449  14.986 -3.4026 -0.0906  1.3340
  181DOPC  C31822275   0.444   4.269  15.083  0.7474 -0.1448 -0.1818
  181DOPC  H18X22276   0.497   4.242  15.177 -2.5722  0.4808  2.0349
  181DOPC  H18Y22277   0.343   4.224  15.070  0.6325  0.0810 -0.0782
  181DOPC  H18Z22278   0.503   4.237  14.994 -0.7516 -0.5408 -1.0842
  182DOPC     N22279   1.995   2.645  12.519 -0.1117  0.2076 -0.5526
  182DOPC   C1222280   1.922   2.760  12.588  0.4404  0.3337 -0.5904
  182DOPC  H12A22281   1.851   2.799  12.516 -0.7788 -0.8507 -0.0770
  182DOPC  H12B22282   1.986   2.839  12.624 -1.4422  0.7784  2.1442
  182DOPC   C1322283   2.078   2.712  12.410  0.2005  0.1500  0.1451
  182DOPC  H13A22284   2.145   2.777  12.464 -0.2001 -1.2752  2.5090
  182DOPC  H13B22285   2.139   2.636  12.363  1.4244  1.5927 -0.6595
  182DOPC  H13C22286   2.010   2.769  12.349 -1.8669 -0.4354  1.7867
  182DOPC   C1422287   1.894   2.555  12.464  0.2625 -0.2161 -0.3351
  182DOPC  H14A22288   1.930   2.472  12.406 -0.0589 -0.8695  0.3893
  182DOPC  H14B22289   1.837   2.508  12.543 -3.5916 -0.4351 -2.9695
  182DOPC  H14C22290   1.819   2.600  12.400  0.6414 -0.4623 -0.9604
  182DOPC   C1522291   2.081   2.569  12.611 -0.0626 -0.2006 -0.2437
  182DOPC  H15A22292   2.113   2.476  12.565  0.9936 -0.1560  0.3753
  182DOPC  H15B22293   2.039   2.562  12.710 -0.5199 -1.8601 -0.5237
  182DOPC  H15C22294   2.178   2.614  12.627  0.2466 -0.9601  0.0592
  182DOPC   C1122295   1.834   2.726  12.717 -0.4805  0.4474 -0.0652
  182DOPC  H11A22296   1.906   2.721  12.802  0.2333  2.7992 -0.4518
  182DOPC  H11B22297   1.777   2.822  12.723 -0.1327  0.6009  1.0730
  182DOPC     P22298   1.633   2.596  12.800 -0.1039 -0.1968  0.2802
  182DOPC   O1322299   1.582   2.456  12.791  0.9824 -0.3061  0.1130
  182DOPC   O1422300   1.544   2.713  12.787  0.3965 -0.3166 -0.2461
  182DOPC   O1222301   1.749   2.614  12.700  0.0159  0.2497  0.5504
  182DOPC   O1122302   1.709   2.605  12.940 -0.0809  0.3898 -0.1479
  182DOPC    C122303   1.783   2.486  12.980  0.5488 -0.5244 -0.3158
  182DOPC    HA22304   1.870   2.517  13.043  1.1110 -0.8971 -0.8967
  182DOPC    HB22305   1.818   2.427  12.893  2.7632  1.7281 -1.0862
  182DOPC    C222306   1.689   2.406  13.079 -0.3450  0.1013  0.7149
  182DOPC    HS22307   1.601   2.383  13.014  0.5617 -1.5884  0.0255
  182DOPC   O2122308   1.671   2.493  13.192 -0.2428  0.0507  0.1375
  182DOPC   C2122309   1.555   2.474  13.255 -0.1751  0.0418 -0.3685
  182DOPC   O2222310   1.465   2.404  13.213 -0.5224 -0.4154  0.5518
  182DOPC   C2222311   1.553   2.549  13.387  0.2226 -0.4130  0.0359
  182DOPC   H2R22312   1.539   2.657  13.363 -1.5061 -1.0712 -2.2856
  182DOPC   H2S22313   1.643   2.524  13.446  1.6048  3.0565 -0.3938
  182DOPC    C322314   1.759   2.273  13.133  0.4068 -0.2633  0.5835
  182DOPC    HX22315   1.778   2.210  13.043 -1.0140  0.9501 -0.6240
  182DOPC    HY22316   1.685   2.223  13.198  0.6841 -2.2662 -0.5545
  182DOPC   O3122317   1.884   2.301  13.201 -0.6647 -0.0444  0.1597
  182DOPC   C3122318   1.881   2.285  13.336 -0.0911 -0.4806  0.2604
  182DOPC   O3222319   1.787   2.235  13.392 -0.6111  0.3190 -0.7205
  182DOPC   C3222320   2.013   2.339  13.384  0.3206  0.3279 -0.3274
  182DOPC   H2X22321   2.069   2.245  13.404 -0.9445 -0.1455  1.2324
  182DOPC   H2Y22322   2.068   2.384  13.299 -0.0902 -0.5091 -1.0508
  182DOPC   C2322323   1.444   2.503  13.488  0.1722 -0.3258  0.3337
  182DOPC   H3R22324   1.459   2.396  13.512  0.5685 -0.3756 -0.1426
  182DOPC   H3S22325   1.342   2.497  13.443 -0.0223  0.8825  0.5753
  182DOPC   C2422326   1.460   2.582  13.618  0.7785 -0.7505  0.5395
  182DOPC   H4R22327   1.450   2.691  13.597 -3.1025 -0.9793  0.5880
  182DOPC   H4S22328   1.557   2.559  13.668  1.3844 -0.8836 -0.6450
  182DOPC   C2522329   1.344   2.564  13.717  0.3198  1.2985 -0.3580
  182DOPC   H5R22330   1.357   2.462  13.760  0.7351  1.2845 -0.5106
  182DOPC   H5S22331   1.245   2.576  13.669 -0.1338 -0.2545  0.1268
  182DOPC   C2622332   1.346   2.659  13.843 -0.2656 -0.4740  0.3275
  182DOPC   H6R22333   1.314   2.760  13.810 -1.1967 -1.4606 -2.0323
  182DOPC   H6S22334   1.441   2.660  13.902 -0.5433 -1.5329  0.8207
  182DOPC   C2722335   1.258   2.598  13.952  0.1067 -0.4454  0.3789
  182DOPC   H7R22336   1.299   2.498  13.980 -0.3841 -1.1781 -1.4091
  182DOPC   H7S22337   1.159   2.567  13.914 -0.6513  2.4664 -0.1803
  182DOPC   C2822338   1.245   2.689  14.076 -0.2013  0.2800  0.5244
  182DOPC   H8R22339   1.199   2.781  14.035 -0.6527  0.0040  0.3979
  182DOPC   H8S22340   1.349   2.706  14.110 -0.3593 -0.3294  1.3452
  182DOPC   C2922341   1.159   2.631  14.185  0.3338 -0.6035  0.2744
  182DOPC   H9R22342   1.061   2.599  14.147 -0.1034 -1.3868  1.9535
  182DOPC  C21022343   1.189   2.610  14.314 -0.3206 -0.5926  0.3254
  182DOPC  H10R22344   1.112   2.569  14.380  0.4215 -1.1926  0.8360
  182DOPC  C21122345   1.322   2.640  14.384  0.6091  0.9581  0.5183
  182DOPC  H11R22346   1.326   2.735  14.441 -0.3383  1.0167  0.5100
  182DOPC  H11S22347   1.391   2.660  14.299  0.2876  1.7955  0.4402
  182DOPC  C21222348   1.356   2.516  14.467 -0.3369 -0.0173 -0.3763
  182DOPC  H12R22349   1.362   2.424  14.404  1.7315  1.5107 -2.5386
  182DOPC  H12S22350   1.276   2.503  14.543 -1.4413 -2.1774 -1.7966
  182DOPC  C21322351   1.496   2.520  14.526  0.1009 -0.1728 -0.0147
  182DOPC  H13R22352   1.572   2.567  14.461 -1.6919  2.6759 -0.2389
  182DOPC  H13S22353   1.519   2.414  14.549  0.4860 -0.1201 -0.1597
  182DOPC  C21422354   1.498   2.599  14.657 -0.0639  0.4367 -0.5759
  182DOPC  H14R22355   1.461   2.703  14.646  0.8673  0.8630  0.1526
  182DOPC  H14S22356   1.601   2.601  14.699  0.4897  0.0800 -1.8860
  182DOPC  C21522357   1.409   2.543  14.769 -0.1211  0.4596 -0.5740
  182DOPC  H15R22358   1.434   2.435  14.764  0.1569  0.5186 -0.4879
  182DOPC  H15S22359   1.298   2.547  14.758 -0.3288 -3.1601 -0.9918
  182DOPC  C21622360   1.440   2.590  14.915 -0.2114  0.0093  0.4221
  182DOPC  H16R22361   1.493   2.686  14.893  1.1865 -1.2526 -2.1457
  182DOPC  H16S22362   1.509   2.510  14.948  0.1995  0.2808  0.2371
  182DOPC  C21722363   1.329   2.602  15.019  0.6556  0.3253  0.8435
  182DOPC  H17R22364   1.237   2.551  14.984  1.1685 -0.2522  0.2913
  182DOPC  H17S22365   1.297   2.707  15.011  2.0374  0.6775 -0.5056
  182DOPC  C21822366   1.371   2.562  15.162  0.0788  0.4512  0.1027
  182DOPC  H18R22367   1.311   2.610  15.242 -0.2890 -1.3522  0.9525
  182DOPC  H18S22368   1.481   2.559  15.180  0.1759  2.1864  0.0103
  182DOPC  H18T22369   1.347   2.456  15.182  1.6215  0.0935  0.2038
  182DOPC   C3322370   1.988   2.435  13.501  0.2083  0.1849 -0.1674
  182DOPC   H3X22371   1.944   2.530  13.464  0.3010  0.2500 -0.1097
  182DOPC   H3Y22372   2.083   2.476  13.540 -0.9975  3.7265 -0.5930
  182DOPC   C3422373   1.930   2.361  13.625 -0.3154 -0.2842  0.1361
  182DOPC   H4X22374   1.978   2.261  13.628  1.2508  0.3288 -1.9587
  182DOPC   H4Y22375   1.820   2.351  13.618 -0.2334 -0.1877 -1.7005
  182DOPC   C3522376   1.966   2.429  13.763 -0.2904 -0.4815  0.3980
  182DOPC   H5X22377   1.900   2.513  13.794  4.4649  3.4409  1.2609
  182DOPC   H5Y22378   2.063   2.482  13.747  0.0802 -1.5759 -1.2437
  182DOPC   C3622379   1.959   2.330  13.882 -0.5124  0.3044  0.6679
  182DOPC   H6X22380   1.862   2.276  13.878 -1.2158  1.5491 -2.2637
  182DOPC   H6Y22381   2.038   2.253  13.870  2.2627  3.2095 -1.9067
  182DOPC   C3722382   1.985   2.397  14.015 -0.8547 -0.1157  0.2819
  182DOPC   H7X22383   2.081   2.449  13.997 -0.5749 -0.6519  0.2307
  182DOPC   H7Y22384   1.901   2.469  14.030 -2.5557 -2.0403  0.5468
  182DOPC   C3822385   1.982   2.313  14.140 -0.3506  0.7249 -0.3953
  182DOPC   H8X22386   2.022   2.371  14.226 -0.6983  0.2024  0.1289
  182DOPC   H8Y22387   2.047   2.223  14.140 -0.4728  0.6377 -0.6722
  182DOPC   C3922388   1.843   2.277  14.183 -0.1526  0.5047  0.2591
  182DOPC   H9X22389   1.791   2.199  14.125 -0.1344  1.7648 -1.5509
  182DOPC  C31022390   1.782   2.318  14.295 -0.4913 -0.0874  1.2325
  182DOPC  H10X22391   1.682   2.277  14.318  0.0654 -1.3534  1.4777
  182DOPC  C31122392   1.833   2.402  14.407  0.8066 -0.3843  0.2456
  182DOPC  H11X22393   1.752   2.456  14.460  2.6485  1.2482  1.5325
  182DOPC  H11Y22394   1.906   2.474  14.365  2.4120 -2.5355 -0.8892
  182DOPC  C31222395   1.909   2.317  14.501 -0.2294 -0.1664 -0.2510
  182DOPC  H12X22396   1.990   2.263  14.447  0.9006  0.3328  0.9026
  182DOPC  H12Y22397   1.852   2.235  14.548 -0.6442 -0.2562 -0.8926
  182DOPC  C31322398   1.972   2.401  14.611 -0.0556 -0.0774 -0.4882
  182DOPC  H13X22399   2.069   2.355  14.639  0.4559  0.5891 -1.1154
  182DOPC  H13Y22400   1.984   2.506  14.576 -1.8815  0.4358  0.2906
  182DOPC  C31422401   1.882   2.401  14.734  0.0953  0.0739 -0.0018
  182DOPC  H14X22402   1.786   2.447  14.699  1.4637  1.1897 -2.5849
  182DOPC  H14Y22403   1.869   2.300  14.777  1.1334  0.1267  0.4718
  182DOPC  C31522404   1.938   2.482  14.853 -0.1260 -0.1942 -0.2181
  182DOPC  H15X22405   1.913   2.585  14.820 -0.3219 -0.0006  0.5170
  182DOPC  H15Y22406   2.048   2.468  14.857  0.3400  2.9967  0.2172
  182DOPC  C31622407   1.867   2.440  14.986 -0.7224 -0.2634  0.4829
  182DOPC  H16X22408   1.763   2.432  14.950  0.4171 -0.7463 -3.1483
  182DOPC  H16Y22409   1.900   2.337  15.009  1.9070  0.3159 -0.2617
  182DOPC  C31722410   1.896   2.543  15.095  0.3700 -0.4846  0.0384
  182DOPC  H17X22411   2.004   2.546  15.124  0.0442 -2.1757  1.5911
  182DOPC  H17Y22412   1.874   2.647  15.063  1.3557 -0.7012 -1.4525
  182DOPC  C31822413   1.810   2.506  15.224  0.3844  0.4087  0.4835
  182DOPC  H18X22414   1.703   2.518  15.199 -0.0090 -0.0154  1.8461
  182DOPC  H18Y22415   1.838   2.403  15.258  2.6098  0.5374 -0.7416
  182DOPC  H18Z22416   1.848   2.576  15.302  3.8706 -0.3907 -0.2928
  183DOPC     N22417   6.151   4.748  12.410  0.2370 -0.0517 -0.3367
  183DOPC   C1222418   6.019   4.782  12.339  0.3085 -0.0454  0.1370
  183DOPC  H12A22419   5.943   4.764  12.414  0.1620  0.0740  0.0198
  183DOPC  H12B22420   6.011   4.707  12.262 -2.7261  1.0723 -0.7801
  183DOPC   C1322421   6.260   4.760  12.314 -0.2087  0.0207 -0.3179
  183DOPC  H13A22422   6.349   4.704  12.339 -0.7109 -0.9636 -0.6899
  183DOPC  H13B22423   6.228   4.707  12.225  0.5099  2.0005 -1.8414
  183DOPC  H13C22424   6.275   4.859  12.272  1.1852  0.2373  0.6048
  183DOPC   C1422425   6.148   4.608  12.461 -0.2935  0.1866 -0.0207
  183DOPC  H14A22426   6.106   4.529  12.401 -2.4801 -1.1994  3.0468
  183DOPC  H14B22427   6.250   4.587  12.490 -0.0932  2.8160  1.5536
  183DOPC  H14C22428   6.107   4.598  12.561 -1.0208 -4.1117 -0.5370
  183DOPC   C1522429   6.182   4.845  12.526  0.2347 -0.4676  0.0694
  183DOPC  H15A22430   6.155   4.947  12.503 -0.0694 -0.9764 -2.1127
  183DOPC  H15B22431   6.286   4.834  12.552  0.6157  1.3278 -0.5430
  183DOPC  H15C22432   6.122   4.811  12.609 -0.0342 -0.1646 -0.0007
  183DOPC   C1122433   6.006   4.927  12.281  0.0887  0.6113 -0.1059
  183DOPC  H11A22434   6.094   4.946  12.217  1.1462 -1.7799  0.5276
  183DOPC  H11B22435   5.908   4.932  12.229  0.4572  1.7734 -0.7090
  183DOPC     P22436   5.882   5.045  12.480 -0.0621  0.3183  0.3190
  183DOPC   O1322437   5.835   4.915  12.527 -0.0407 -0.3901  0.0796
  183DOPC   O1422438   5.781   5.119  12.402 -0.1485 -0.5978  0.5601
  183DOPC   O1222439   6.013   5.031  12.385  0.0400  0.0539  0.0184
  183DOPC   O1122440   5.916   5.127  12.607 -0.5123 -0.3890  0.6424
  183DOPC    C122441   6.020   5.221  12.602  0.6902  0.5770  0.4980
  183DOPC    HA22442   5.977   5.320  12.628 -0.7708  0.1892 -0.3506
  183DOPC    HB22443   6.056   5.255  12.502 -1.1251 -0.9575 -0.7405
  183DOPC    C222444   6.135   5.183  12.699  0.2800  0.3024  0.2713
  183DOPC    HS22445   6.160   5.079  12.668  0.6571  0.9533 -1.7402
  183DOPC   O2122446   6.069   5.187  12.827 -0.6569 -0.9552  0.1204
  183DOPC   C2122447   6.106   5.094  12.918 -0.5554  0.2737  0.1944
  183DOPC   O2222448   6.195   5.010  12.893  0.2464  0.0201 -0.0051
  183DOPC   C2222449   6.030   5.121  13.045  0.2764  0.0168  0.7830
  183DOPC   H2R22450   5.922   5.139  13.028  0.2259  1.7238  2.4916
  183DOPC   H2S22451   6.066   5.222  13.073 -1.9533  1.5304 -1.4073
  183DOPC    C322452   6.258   5.283  12.688 -0.5294  0.3263 -0.2445
  183DOPC    HX22453   6.217   5.386  12.677  0.0580  0.4650 -1.2175
  183DOPC    HY22454   6.318   5.264  12.597 -1.0281  2.1815 -1.0029
  183DOPC   O3122455   6.336   5.272  12.818  0.5037 -0.4259 -0.4523
  183DOPC   C3122456   6.440   5.184  12.813  0.5678  0.2789  0.1639
  183DOPC   O3222457   6.468   5.115  12.719  0.0646  0.5075  0.2847
  183DOPC   C3222458   6.504   5.171  12.951  0.0272 -0.0468 -0.1862
  183DOPC   H2X22459   6.468   5.074  12.990  0.6745  0.1468  0.9360
  183DOPC   H2Y22460   6.614   5.181  12.942  0.2726 -1.1222  1.3550
  183DOPC   C2322461   6.062   5.023  13.158  0.4688 -0.5989 -0.2835
  183DOPC   H3R22462   6.172   5.008  13.169  0.6777  0.5209 -0.7230
  183DOPC   H3S22463   6.024   4.920  13.140 -0.7125 -0.7314  2.5557
  183DOPC   C2422464   6.001   5.071  13.289 -0.3568 -0.9277 -0.9598
  183DOPC   H4R22465   5.891   5.069  13.274 -0.5269 -2.4554  0.1581
  183DOPC   H4S22466   6.035   5.174  13.314  1.0863 -1.5864 -0.0448
  183DOPC   C2522467   6.039   4.990  13.410  0.2483  0.1381  0.4224
  183DOPC   H5R22468   6.049   4.884  13.379 -1.3189  0.6344 -2.0306
  183DOPC   H5S22469   5.961   4.992  13.489  0.1561 -2.2009  0.4529
  183DOPC   C2622470   6.183   5.026  13.470  0.6886  0.1267  0.5368
  183DOPC   H6R22471   6.174   5.135  13.489 -2.7277 -0.2587  1.8203
  183DOPC   H6S22472   6.261   5.007  13.393  0.5928 -2.2210  0.9512
  183DOPC   C2722473   6.224   4.942  13.588 -0.3350  0.4085 -0.3795
  183DOPC   H7R22474   6.319   4.975  13.634  0.8553  1.5481 -3.4026
  183DOPC   H7S22475   6.245   4.840  13.549  0.0536  0.2322  0.2725
  183DOPC   C2822476   6.121   4.939  13.701 -0.4615  0.4115  0.2694
  183DOPC   H8R22477   6.015   4.919  13.673 -0.4765 -0.1181  0.7007
  183DOPC   H8S22478   6.115   5.043  13.739 -0.9526  0.2534  0.6462
  183DOPC   C2922479   6.158   4.847  13.815  0.1208 -0.1912 -0.3388
  183DOPC   H9R22480   6.173   4.741  13.788 -3.4111 -0.4472 -1.8173
  183DOPC  C21022481   6.170   4.871  13.946 -0.6621  0.2061 -0.4721
  183DOPC  H10R22482   6.177   4.786  14.016  1.1880  1.4575  1.0016
  183DOPC  C21122483   6.140   5.002  14.028 -0.5058  0.3131  0.6515
  183DOPC  H11R22484   6.034   4.990  14.057 -0.1407 -2.9485  0.9652
  183DOPC  H11S22485   6.145   5.096  13.969  1.6410  0.2129  0.5907
  183DOPC  C21222486   6.222   5.031  14.154 -0.5437  0.1864 -0.1566
  183DOPC  H12R22487   6.322   5.062  14.118 -1.5281  1.1815 -2.2719
  183DOPC  H12S22488   6.239   4.931  14.199 -0.4047 -0.2305 -1.1127
  183DOPC  C21322489   6.165   5.138  14.255 -0.5007 -0.4142  0.5274
  183DOPC  H13R22490   6.063   5.100  14.276 -0.1742 -0.9000  1.2678
  183DOPC  H13S22491   6.164   5.232  14.196 -2.6859 -0.7058  0.0322
  183DOPC  C21422492   6.247   5.160  14.385 -0.2975  0.1683  0.3812
  183DOPC  H14R22493   6.342   5.211  14.359  0.3124 -1.0745  0.0739
  183DOPC  H14S22494   6.273   5.058  14.420 -1.1359  0.6871  2.6969
  183DOPC  C21522495   6.175   5.239  14.492  1.0017  0.1470  0.1162
  183DOPC  H15R22496   6.073   5.197  14.501  0.5090  1.1055 -0.7271
  183DOPC  H15S22497   6.166   5.342  14.452 -1.1056  0.6770  1.7767
  183DOPC  C21622498   6.259   5.258  14.614 -0.1338  0.1444  0.4743
  183DOPC  H16R22499   6.361   5.287  14.579  0.2181 -2.2573 -0.7731
  183DOPC  H16S22500   6.272   5.160  14.665 -0.7789  0.4091  1.1508
  183DOPC  C21722501   6.189   5.350  14.715 -0.5585  0.6597 -0.1337
  183DOPC  H17R22502   6.093   5.301  14.742  0.3835 -1.1238  0.1306
  183DOPC  H17S22503   6.172   5.441  14.655  2.0226  0.5370 -1.1977
  183DOPC  C21822504   6.271   5.383  14.845  0.1396 -0.3493  0.6356
  183DOPC  H18R22505   6.275   5.296  14.914 -1.0887 -0.4283  0.6239
  183DOPC  H18S22506   6.208   5.462  14.891 -0.8399  0.5721 -2.0737
  183DOPC  H18T22507   6.371   5.430  14.830  0.4158 -0.1954  2.6675
  183DOPC   C3322508   6.447   5.277  13.061  0.2516 -0.7225  0.1746
  183DOPC   H3X22509   6.336   5.278  13.062  0.2197 -0.8170 -1.5591
  183DOPC   H3Y22510   6.481   5.375  13.022  0.6101 -0.5456  0.9061
  183DOPC   C3422511   6.495   5.241  13.200 -0.3263 -0.2259  0.0418
  183DOPC   H4X22512   6.606   5.231  13.189 -0.0675  1.4012  0.8735
  183DOPC   H4Y22513   6.479   5.137  13.234 -1.3077  0.6884  2.6213
  183DOPC   C3522514   6.457   5.339  13.313 -0.4317  0.5203 -0.1736
  183DOPC   H5X22515   6.347   5.339  13.330 -0.5008  0.8028 -0.6248
  183DOPC   H5Y22516   6.496   5.441  13.295  3.2151 -0.6507  0.2870
  183DOPC   C3622517   6.527   5.298  13.442 -0.1778  0.0760 -0.1892
  183DOPC   H6X22518   6.571   5.198  13.422 -2.0686 -0.8734  0.1154
  183DOPC   H6Y22519   6.615   5.364  13.453  0.4018 -0.2031 -2.5249
  183DOPC   C3722520   6.431   5.295  13.567 -1.1097 -0.2249  0.7007
  183DOPC   H7X22521   6.399   5.400  13.579 -0.1288  0.2568 -0.6487
  183DOPC   H7Y22522   6.342   5.234  13.540 -0.7012 -0.8967  0.8454
  183DOPC   C3822523   6.499   5.248  13.694 -0.5633 -0.0602 -0.3616
  183DOPC   H8X22524   6.593   5.304  13.714 -0.9257  0.3346  0.2797
  183DOPC   H8Y22525   6.532   5.145  13.671 -1.6891 -0.6568  0.5993
  183DOPC   C3922526   6.403   5.263  13.812 -0.1590  0.2011 -0.2229
  183DOPC   H9X22527   6.298   5.232  13.801  0.0269 -0.9746  1.0669
  183DOPC  C31022528   6.438   5.321  13.928  0.1369  0.6891 -0.8517
  183DOPC  H10X22529   6.354   5.354  13.990  1.2588  1.7592  0.1591
  183DOPC  C31122530   6.569   5.365  13.977  0.6792 -0.7031 -0.4619
  183DOPC  H11X22531   6.580   5.475  13.972  0.5560 -0.7196 -1.1964
  183DOPC  H11Y22532   6.653   5.332  13.911  1.6746 -1.7643  1.2450
  183DOPC  C31222533   6.600   5.345  14.123 -0.8750 -0.5824 -0.6733
  183DOPC  H12X22534   6.705   5.379  14.135 -1.7817  1.5993  1.9792
  183DOPC  H12Y22535   6.599   5.235  14.143 -2.6903 -0.9455 -2.3972
  183DOPC  C31322536   6.504   5.405  14.224 -0.4182  0.3303  0.0712
  183DOPC  H13X22537   6.497   5.514  14.208 -1.5374  0.1930 -0.5045
  183DOPC  H13Y22538   6.401   5.372  14.201 -0.3448  0.8289 -1.0075
  183DOPC  C31422539   6.540   5.382  14.372  0.0725 -0.1885 -0.5911
  183DOPC  H14X22540   6.448   5.417  14.423  0.0273 -1.9989  0.6695
  183DOPC  H14Y22541   6.555   5.275  14.398  0.8634  0.1704  0.4905
  183DOPC  C31522542   6.664   5.447  14.420  0.0967 -0.5312 -0.3102
  183DOPC  H15X22543   6.656   5.558  14.419  0.7683 -0.4070  1.8827
  183DOPC  H15Y22544   6.757   5.430  14.361  0.1034  0.5083 -0.6190
  183DOPC  C31622545   6.708   5.414  14.566  0.2489 -0.0965 -0.3877
  183DOPC  H16X22546   6.685   5.311  14.600 -0.8479  0.3459  0.2713
  183DOPC  H16Y22547   6.816   5.436  14.578  0.2346 -0.6243  0.9430
  183DOPC  C31722548   6.630   5.506  14.656  0.0471  0.1147 -0.5569
  183DOPC  H17X22549   6.652   5.606  14.614  1.6523 -0.2001 -0.5513
  183DOPC  H17Y22550   6.520   5.494  14.659 -0.1217  1.5337 -0.2468
  183DOPC  C31822551   6.681   5.476  14.801  0.4330 -0.4824 -0.7319
  183DOPC  H18X22552   6.683   5.367  14.823  0.4310 -0.3277  0.0571
  183DOPC  H18Y22553   6.788   5.505  14.809  0.0376  0.8990 -0.1711
  183DOPC  H18Z22554   6.623   5.536  14.875 -0.7711 -0.9062 -1.3121
  184DOPC     N22555   3.654   1.814  12.316  0.0071  0.6005 -0.2024
  184DOPC   C1222556   3.770   1.884  12.261  0.0788  0.7530 -0.1354
  184DOPC  H12A22557   3.802   1.865  12.160  1.4075 -0.1383  0.4250
  184DOPC  H12B22558   3.851   1.857  12.328 -0.7678 -0.0045  0.6118
  184DOPC   C1322559   3.528   1.848  12.242 -0.4445  0.2283 -0.6268
  184DOPC  H13A22560   3.505   1.953  12.252 -1.5095 -0.0922  0.4705
  184DOPC  H13B22561   3.535   1.832  12.135  3.0640  0.6217 -0.5518
  184DOPC  H13C22562   3.432   1.811  12.276 -1.2343  2.7307  0.0530
  184DOPC   C1422563   3.640   1.845  12.464 -0.5905  0.2174 -0.1236
  184DOPC  H14A22564   3.725   1.802  12.515 -0.7435  0.2457  0.1618
  184DOPC  H14B22565   3.633   1.953  12.465 -0.4821  0.2939 -2.8288
  184DOPC  H14C22566   3.546   1.813  12.507  0.1679 -0.3396  1.2164
  184DOPC   C1522567   3.685   1.668  12.307 -0.5455 -0.6933 -0.1425
  184DOPC  H15A22568   3.601   1.600  12.310 -0.5493 -0.7213 -0.8627
  184DOPC  H15B22569   3.754   1.643  12.386 -0.2327 -0.3707 -0.3131
  184DOPC  H15C22570   3.733   1.646  12.213 -0.8287 -1.8765 -0.0334
  184DOPC   C1122571   3.754   2.037  12.254 -0.4810  0.7125  0.1805
  184DOPC  H11A22572   3.688   2.061  12.168  0.7061 -0.3555 -1.0812
  184DOPC  H11B22573   3.717   2.077  12.351  0.5193  0.4002  0.7064
  184DOPC     P22574   4.016   2.068  12.322 -0.0453  0.2504 -0.2785
  184DOPC   O1322575   4.134   2.031  12.247  0.2859 -0.2055  0.0232
  184DOPC   O1422576   3.971   1.974  12.432  0.2217  0.4246  0.5486
  184DOPC   O1222577   3.890   2.080  12.223 -0.0531  0.4309  0.7931
  184DOPC   O1122578   4.022   2.221  12.364  0.0668  0.0007 -0.3161
  184DOPC    C122579   4.139   2.283  12.417  0.4344 -0.3731 -0.3421
  184DOPC    HA22580   4.126   2.389  12.445  1.7098 -0.3800  0.3822
  184DOPC    HB22581   4.227   2.278  12.349 -0.3356  0.5597 -1.4461
  184DOPC    C222582   4.173   2.231  12.558 -0.3464 -0.0115 -1.5180
  184DOPC    HS22583   4.193   2.123  12.544  0.2741 -0.0969 -0.1225
  184DOPC   O2122584   4.051   2.236  12.640 -0.3544  0.1979  0.3410
  184DOPC   C2122585   4.053   2.159  12.752  0.4592 -0.0437 -0.1691
  184DOPC   O2222586   4.129   2.069  12.773 -0.4425 -0.0831  0.1850
  184DOPC   C2222587   3.935   2.193  12.841  0.9790 -0.1683  0.6463
  184DOPC   H2R22588   3.839   2.165  12.793  0.6784  2.1735 -0.2823
  184DOPC   H2S22589   3.935   2.302  12.862 -1.9001  0.0557 -0.0785
  184DOPC    C322590   4.295   2.301  12.609 -0.5153 -0.2951 -0.8583
  184DOPC    HX22591   4.280   2.410  12.618 -1.3269 -0.5621  3.5497
  184DOPC    HY22592   4.372   2.296  12.530 -0.3341 -0.0407 -0.6997
  184DOPC   O3122593   4.346   2.261  12.738 -0.3467 -0.2225 -0.2293
  184DOPC   C3122594   4.412   2.142  12.741  1.0640  0.8656 -0.1414
  184DOPC   O3222595   4.412   2.066  12.650  0.5188  0.5575  0.2980
  184DOPC   C3222596   4.480   2.106  12.879 -0.1835 -0.2892 -0.1201
  184DOPC   H2X22597   4.583   2.086  12.843  0.6177  2.9478  0.0772
  184DOPC   H2Y22598   4.479   2.201  12.937 -1.9743 -0.8999  0.9283
  184DOPC   C2322599   3.929   2.121  12.973 -0.1093  0.0858 -0.1145
  184DOPC   H3R22600   3.904   2.013  12.967 -0.7437  0.1177  1.4986
  184DOPC   H3S22601   3.853   2.165  13.040 -1.2401 -2.8951  0.6953
  184DOPC   C2422602   4.053   2.132  13.075  0.0922 -0.2789 -0.7256
  184DOPC   H4R22603   4.045   2.229  13.130  0.7292 -0.6752  0.0829
  184DOPC   H4S22604   4.148   2.137  13.017  1.3670  0.9054  1.3508
  184DOPC   C2522605   4.048   2.021  13.184 -0.3537 -0.3626  0.0225
  184DOPC   H5R22606   4.101   1.932  13.144 -0.1066 -1.2540  2.2069
  184DOPC   H5S22607   3.946   1.996  13.218  0.1826 -1.1900  1.1035
  184DOPC   C2622608   4.132   2.063  13.307  0.1596 -0.1186  0.4850
  184DOPC   H6R22609   4.081   2.142  13.365  0.0758 -0.2268  0.5578
  184DOPC   H6S22610   4.226   2.111  13.270  0.2621 -1.8894 -1.7737
  184DOPC   C2722611   4.176   1.945  13.393  0.2096  0.4234  0.8660
  184DOPC   H7R22612   4.234   1.872  13.333 -1.2031 -0.0565  0.0414
  184DOPC   H7S22613   4.089   1.890  13.435 -1.8802  3.4626  0.8572
  184DOPC   C2822614   4.274   1.989  13.513 -0.0128 -0.6637  0.5054
  184DOPC   H8R22615   4.367   2.033  13.471 -1.0202  1.5735  0.4888
  184DOPC   H8S22616   4.313   1.893  13.553  0.3684 -1.1114 -0.8810
  184DOPC   C2922617   4.213   2.085  13.617 -1.0995  0.1581 -0.2122
  184DOPC   H9R22618   4.240   2.191  13.608  0.4505 -0.2845 -1.1865
  184DOPC  C21022619   4.148   2.047  13.731  0.4162  0.2210 -0.5679
  184DOPC  H10R22620   4.122   2.125  13.804  1.5176 -0.3723  0.5050
  184DOPC  C21122621   4.102   1.908  13.764  0.2545 -0.5007  0.5701
  184DOPC  H11R22622   4.171   1.829  13.728  0.0921 -1.4044  2.1552
  184DOPC  H11S22623   4.005   1.880  13.716  0.7070 -5.1428  1.8875
  184DOPC  C21222624   4.102   1.885  13.915 -0.1750  0.8229 -0.1928
  184DOPC  H12R22625   4.200   1.845  13.947 -1.0655 -2.6154 -1.3419
  184DOPC  H12S22626   4.037   1.795  13.920 -0.9957  1.1652 -2.8981
  184DOPC  C21322627   4.042   2.002  14.005  0.1013  0.2874 -0.6790
  184DOPC  H13R22628   3.961   2.061  13.958  2.4398  1.8509 -2.9846
  184DOPC  H13S22629   4.126   2.073  14.021  0.8497 -0.8185  0.5627
  184DOPC  C21422630   3.991   1.947  14.133 -0.5592 -0.5087  0.3080
  184DOPC  H14R22631   4.074   1.895  14.187  0.7216  2.1968  1.0987
  184DOPC  H14S22632   3.903   1.881  14.114  0.7543 -1.7735 -1.6105
  184DOPC  C21522633   3.946   2.071  14.220 -0.7473 -0.5268  0.0889
  184DOPC  H15R22634   3.864   2.125  14.169  0.2205 -0.9857 -2.1039
  184DOPC  H15S22635   4.039   2.133  14.221 -0.7653 -0.4499  2.6060
  184DOPC  C21622636   3.903   2.043  14.359 -0.0118  0.1863  0.1696
  184DOPC  H16R22637   3.853   2.134  14.398 -2.5505 -0.4757 -1.2894
  184DOPC  H16S22638   3.995   2.017  14.416  0.6874  0.3106 -0.8756
  184DOPC  C21722639   3.799   1.931  14.376 -0.8092 -0.4465  0.1741
  184DOPC  H17R22640   3.780   1.920  14.485  1.2109 -0.3416  0.5791
  184DOPC  H17S22641   3.847   1.834  14.353  0.8745  0.2002  0.7545
  184DOPC  C21822642   3.673   1.960  14.309  0.3301 -0.0119  0.2661
  184DOPC  H18R22643   3.600   2.008  14.377  2.4406  2.9969  0.5877
  184DOPC  H18S22644   3.618   1.865  14.290  0.5218  0.3675 -2.6533
  184DOPC  H18T22645   3.676   2.005  14.207 -0.4728 -2.4815 -0.9391
  184DOPC   C3322646   4.399   1.996  12.949  0.1824  0.1633 -0.1574
  184DOPC   H3X22647   4.409   1.907  12.884 -0.8214  0.0417 -0.1603
  184DOPC   H3Y22648   4.291   2.021  12.956  0.3168  0.3031  2.4229
  184DOPC   C3422649   4.457   1.955  13.090 -0.1943 -0.0634  0.9682
  184DOPC   H4X22650   4.374   1.892  13.129 -0.6627  0.3792  0.7045
  184DOPC   H4Y22651   4.468   2.042  13.158 -1.8229  1.2614 -0.3702
  184DOPC   C3522652   4.578   1.862  13.077  0.8465 -0.0214  0.7643
  184DOPC   H5X22653   4.647   1.909  13.005  0.1524 -1.8894 -1.2373
  184DOPC   H5Y22654   4.567   1.760  13.032 -0.4426 -0.0652  1.1254
  184DOPC   C3622655   4.645   1.843  13.217  0.9544  0.6545 -0.0000
  184DOPC   H6X22656   4.730   1.772  13.206 -0.7884 -2.1051  2.8296
  184DOPC   H6Y22657   4.677   1.939  13.262 -0.6565  0.3126  2.0203
  184DOPC   C3722658   4.550   1.773  13.314  0.0851  0.0171 -0.0422
  184DOPC   H7X22659   4.467   1.844  13.328  1.7021  1.6282  2.2128
  184DOPC   H7Y22660   4.513   1.680  13.267  1.0860 -0.9904  1.0744
  184DOPC   C3822661   4.618   1.759  13.452  0.1139  0.1422 -0.6892
  184DOPC   H8X22662   4.626   1.858  13.501  2.1700 -0.0541 -0.5505
  184DOPC   H8Y22663   4.723   1.722  13.458  0.9674  2.6111  3.2425
  184DOPC   C3922664   4.525   1.665  13.536  0.0925 -0.0187  0.0228
  184DOPC   H9X22665   4.479   1.586  13.475  1.9556 -0.1518 -1.2673
  184DOPC  C31022666   4.523   1.664  13.674  0.1679 -0.0960 -0.0699
  184DOPC  H10X22667   4.459   1.591  13.726  1.7105 -0.6337  1.1657
  184DOPC  C31122668   4.597   1.763  13.759  0.2679  0.2919 -0.1377
  184DOPC  H11X22669   4.671   1.821  13.700  0.3077 -0.0016 -0.3775
  184DOPC  H11Y22670   4.656   1.713  13.839  0.3984  0.4828 -0.1151
  184DOPC  C31222671   4.499   1.858  13.832 -0.7245 -0.5838  0.0067
  184DOPC  H12X22672   4.439   1.792  13.898 -1.0281 -1.3907 -1.0492
  184DOPC  H12Y22673   4.431   1.903  13.757  0.3452  1.9145  0.4323
  184DOPC  C31322674   4.582   1.963  13.916 -0.3972 -0.3307  0.0860
  184DOPC  H13X22675   4.653   1.912  13.984  0.5991  1.8211  0.7742
  184DOPC  H13Y22676   4.634   2.023  13.839 -0.9374 -0.0355 -0.0566
  184DOPC  C31422677   4.504   2.066  14.001 -0.9579  0.1868  0.2597
  184DOPC  H14X22678   4.567   2.139  14.055 -0.5020  0.3358 -0.4593
  184DOPC  H14Y22679   4.437   2.109  13.924  1.4287 -1.3529 -2.9251
  184DOPC  C31522680   4.412   2.016  14.112 -0.7169  0.4348  0.0172
  184DOPC  H15X22681   4.333   1.946  14.078  0.5227 -1.7801  1.4246
  184DOPC  H15Y22682   4.355   2.099  14.158 -2.5888 -0.7068 -0.1567
  184DOPC  C31622683   4.482   1.938  14.226  0.0621 -0.2987  0.1750
  184DOPC  H16X22684   4.555   1.859  14.200  2.0121 -0.1509  4.2976
  184DOPC  H16Y22685   4.538   2.017  14.282  1.3860 -2.5693  2.2893
  184DOPC  C31722686   4.385   1.870  14.317  0.1409  1.1865 -0.9719
  184DOPC  H17X22687   4.290   1.926  14.305 -0.8133 -0.4326 -1.2180
  184DOPC  H17Y22688   4.364   1.769  14.276  0.9450  0.0148  1.3674
  184DOPC  C31822689   4.431   1.870  14.462  0.1578 -0.0212 -0.4077
  184DOPC  H18X22690   4.430   1.977  14.489 -0.9725  0.3794 -1.8376
  184DOPC  H18Y22691   4.357   1.821  14.530  0.3970  0.4840  0.2195
  184DOPC  H18Z22692   4.533   1.825  14.464 -0.4403 -1.7463 -2.9227
  185DOPC     N22693   5.436   6.437  12.154 -0.3066 -0.0496  0.5956
  185DOPC   C1222694   5.378   6.298  12.181  0.2991 -0.1531 -0.4997
  185DOPC  H12A22695   5.338   6.264  12.087  0.2073 -1.4323 -0.0199
  185DOPC  H12B22696   5.304   6.298  12.260  0.6341 -2.4791 -0.1123
  185DOPC   C1322697   5.435   6.507  12.281  0.2003  0.2222 -0.0142
  185DOPC  H13A22698   5.490   6.446  12.351  1.3608 -1.7343 -2.4581
  185DOPC  H13B22699   5.490   6.600  12.271 -1.0473  1.0815  0.8937
  185DOPC  H13C22700   5.338   6.526  12.324  2.3816  1.3540  5.0822
  185DOPC   C1422701   5.346   6.504  12.053 -0.4786  0.1418 -0.5865
  185DOPC  H14A22702   5.244   6.491  12.086  0.4128 -2.5917  1.4131
  185DOPC  H14B22703   5.368   6.609  12.040 -3.0430  0.6398 -1.4410
  185DOPC  H14C22704   5.355   6.446  11.962 -1.1655 -2.8521  1.1501
  185DOPC   C1522705   5.574   6.422  12.101  0.2299 -0.4068  0.0363
  185DOPC  H15A22706   5.627   6.354  12.167 -1.9690 -1.1323  1.1590
  185DOPC  H15B22707   5.623   6.518  12.105 -0.4681 -0.0473  0.2220
  185DOPC  H15C22708   5.566   6.395  11.997  0.6801  1.9168 -0.6633
  185DOPC   C1122709   5.473   6.180  12.229  0.1092 -0.1502 -0.5289
  185DOPC  H11A22710   5.414   6.086  12.221 -1.4429  0.5730  1.5812
  185DOPC  H11B22711   5.545   6.168  12.145  1.1342  0.1189  0.3013
  185DOPC     P22712   5.455   6.185  12.483  0.1266 -0.1629  0.2824
  185DOPC   O1322713   5.498   6.052  12.537  0.1421 -0.0648 -0.3117
  185DOPC   O1422714   5.311   6.205  12.459  0.5637 -0.0972  0.2853
  185DOPC   O1222715   5.535   6.203  12.352 -0.3342  0.0895  0.0154
  185DOPC   O1122716   5.506   6.304  12.581 -0.1535 -0.0975 -0.0345
  185DOPC    C122717   5.647   6.314  12.598  0.5220  0.7071 -0.4217
  185DOPC    HA22718   5.677   6.418  12.572  0.3864  1.1417  1.0595
  185DOPC    HB22719   5.714   6.245  12.543 -1.5658 -1.1293 -0.7578
  185DOPC    C222720   5.680   6.287  12.747 -0.1038 -0.1601 -0.3732
  185DOPC    HS22721   5.649   6.188  12.785 -0.1577  0.4264  1.2384
  185DOPC   O2122722   5.617   6.399  12.823  0.3619  0.3387 -0.1454
  185DOPC   C2122723   5.597   6.371  12.948  0.3338 -1.0099 -0.1628
  185DOPC   O2222724   5.602   6.267  13.012 -0.1514  0.2647 -0.4888
  185DOPC   C2222725   5.554   6.501  13.015 -0.4727 -0.1224  0.0239
  185DOPC   H2R22726   5.451   6.478  13.048  1.0131 -1.6526  4.2420
  185DOPC   H2S22727   5.554   6.581  12.938 -0.1890 -2.0648 -2.0943
  185DOPC    C322728   5.834   6.306  12.765  0.0101  0.7651 -0.2948
  185DOPC    HX22729   5.860   6.401  12.713  2.0569  0.3475 -0.1041
  185DOPC    HY22730   5.887   6.231  12.702 -1.9352  0.3131 -1.4914
  185DOPC   O3122731   5.867   6.314  12.911  0.0804 -0.1334 -0.0515
  185DOPC   C3122732   5.877   6.191  12.961  0.4532 -0.0488  0.3193
  185DOPC   O3222733   5.882   6.090  12.893  0.1076 -0.4619  0.6766
  185DOPC   C3222734   5.884   6.196  13.115 -0.4055 -0.2596  0.5311
  185DOPC   H2X22735   5.993   6.215  13.123 -0.2769  0.6501 -2.1156
  185DOPC   H2Y22736   5.827   6.284  13.151 -2.2512 -0.3549 -1.8675
  185DOPC   C2322737   5.625   6.530  13.150 -0.0384 -0.2631  0.3214
  185DOPC   H3R22738   5.702   6.609  13.142  0.2179 -0.4287  1.0683
  185DOPC   H3S22739   5.673   6.433  13.176  1.6118 -0.2098 -2.1915
  185DOPC   C2422740   5.523   6.583  13.263 -0.1685 -0.4775 -0.0373
  185DOPC   H4R22741   5.476   6.674  13.222  3.1218  0.8378 -1.1998
  185DOPC   H4S22742   5.593   6.615  13.344  1.2991 -0.3729 -1.3129
  185DOPC   C2522743   5.419   6.487  13.325 -0.5340 -0.3166 -0.6024
  185DOPC   H5R22744   5.351   6.447  13.247 -0.7866 -0.2825 -0.4059
  185DOPC   H5S22745   5.351   6.534  13.400 -2.1992 -2.4311 -0.6633
  185DOPC   C2622746   5.480   6.362  13.393 -0.2385  0.1905 -0.1372
  185DOPC   H6R22747   5.530   6.301  13.315  0.6081 -0.5569  0.9404
  185DOPC   H6S22748   5.398   6.293  13.421  0.1557 -0.2112  0.0361
  185DOPC   C2722749   5.573   6.385  13.509 -0.3939 -0.1004 -0.2299
  185DOPC   H7R22750   5.535   6.459  13.583  0.5785  1.6950 -1.4546
  185DOPC   H7S22751   5.663   6.428  13.459  1.6479  2.0301  4.6455
  185DOPC   C2822752   5.612   6.253  13.579 -0.5687 -0.3739 -0.0985
  185DOPC   H8R22753   5.695   6.285  13.645 -0.1060 -0.7119 -0.5006
  185DOPC   H8S22754   5.649   6.180  13.504 -0.9092 -1.3571  0.6691
  185DOPC   C2922755   5.507   6.192  13.660  0.1256  0.2162  0.0601
  185DOPC   H9R22756   5.432   6.134  13.606 -0.4446  0.0128  1.0440
  185DOPC  C21022757   5.497   6.179  13.792 -0.0990  0.4437  0.4565
  185DOPC  H10R22758   5.406   6.143  13.843  1.2155 -1.4520  1.5791
  185DOPC  C21122759   5.591   6.247  13.894  0.2522 -0.5924  0.5953
  185DOPC  H11R22760   5.581   6.357  13.902  1.8920 -0.5069  2.3555
  185DOPC  H11S22761   5.700   6.227  13.886  0.5371  0.0199  2.3871
  185DOPC  C21222762   5.565   6.198  14.038  0.0293  0.1115 -0.3633
  185DOPC  H12R22763   5.599   6.097  14.068  1.0970  1.1322  2.2021
  185DOPC  H12S22764   5.455   6.192  14.045  0.0390  0.4986  0.2047
  185DOPC  C21322765   5.620   6.289  14.147 -0.4190 -0.4984 -0.2182
  185DOPC  H13R22766   5.577   6.390  14.132 -0.9972 -0.9967 -2.1504
  185DOPC  H13S22767   5.732   6.290  14.147 -0.4085 -1.1188 -0.4072
  185DOPC  C21422768   5.588   6.235  14.284  0.8797 -0.3798 -0.4961
  185DOPC  H14R22769   5.616   6.309  14.362 -2.2177 -0.8171  1.1854
  185DOPC  H14S22770   5.648   6.142  14.289  1.4410  0.0394  1.0694
  185DOPC  C21522771   5.438   6.208  14.322  0.0139  0.6294  0.3435
  185DOPC  H15R22772   5.399   6.121  14.266 -1.5688  1.1804  0.5459
  185DOPC  H15S22773   5.371   6.295  14.303 -1.2314 -0.4038 -0.1794
  185DOPC  C21622774   5.426   6.154  14.470 -0.6273  0.0096 -0.0497
  185DOPC  H16R22775   5.336   6.089  14.476  0.2127 -1.2633 -0.7180
  185DOPC  H16S22776   5.426   6.247  14.530  0.1498  1.1703 -1.7483
  185DOPC  C21722777   5.542   6.064  14.512 -0.2285 -0.5357  0.3057
  185DOPC  H17R22778   5.640   6.117  14.508 -1.3400  1.6177 -0.1729
  185DOPC  H17S22779   5.539   5.987  14.433  2.4595  0.2210 -0.6366
  185DOPC  C21822780   5.520   6.004  14.649 -0.0647 -0.8442  0.2615
  185DOPC  H18R22781   5.554   6.080  14.722 -0.2663  0.7796 -1.2619
  185DOPC  H18S22782   5.586   5.915  14.660  2.1528  0.5055 -1.2593
  185DOPC  H18T22783   5.415   5.967  14.654 -0.9288  1.1167 -1.6540
  185DOPC   C3322784   5.838   6.062  13.186  0.7931 -0.0854 -0.8447
  185DOPC   H3X22785   5.847   5.979  13.113 -0.9529  0.0002 -1.2228
  185DOPC   H3Y22786   5.729   6.074  13.204  0.8291 -0.3415 -0.4654
  185DOPC   C3422787   5.906   6.023  13.315 -0.3453  0.0732  0.5561
  185DOPC   H4X22788   6.013   6.008  13.290 -0.4045  3.3849 -2.4262
  185DOPC   H4Y22789   5.864   5.929  13.355 -0.9080  1.1493  2.6619
  185DOPC   C3522790   5.902   6.145  13.411  0.7611  0.2792 -0.0194
  185DOPC   H5X22791   5.806   6.200  13.401  0.2851 -0.5464 -0.1408
  185DOPC   H5Y22792   5.994   6.205  13.394  2.3238 -1.1406  2.7376
  185DOPC   C3622793   5.917   6.105  13.560  0.2780 -0.1104 -0.1641
  185DOPC   H6X22794   5.911   6.204  13.609 -0.0259 -0.3148  0.2152
  185DOPC   H6Y22795   5.829   6.041  13.579  1.1533 -1.3234 -0.1042
  185DOPC   C3722796   6.043   6.030  13.604 -0.0146  0.4176 -0.1646
  185DOPC   H7X22797   6.056   5.942  13.537 -2.0775 -1.0882  1.2672
  185DOPC   H7Y22798   6.125   6.102  13.589 -0.9340  2.4766  3.3562
  185DOPC   C3822799   6.043   5.993  13.758 -0.3659 -0.3298 -0.1044
  185DOPC   H8X22800   6.139   5.943  13.783 -0.3069  0.4408  1.3225
  185DOPC   H8Y22801   5.955   5.930  13.781 -0.8134  1.0692  2.4111
  185DOPC   C3922802   6.050   6.115  13.845 -0.2549  0.6242  0.4148
  185DOPC   H9X22803   6.116   6.189  13.798 -0.3622  0.0610 -0.6577
  185DOPC  C31022804   6.003   6.122  13.969 -0.0106 -0.8496 -0.5636
  185DOPC  H10X22805   6.008   6.219  14.020  1.6088 -0.3334 -1.6288
  185DOPC  C31122806   5.937   6.020  14.056 -0.4372  0.3489  0.1811
  185DOPC  H11X22807   5.932   5.927  13.995  0.9800 -0.2753  0.9898
  185DOPC  H11Y22808   5.836   6.056  14.085 -0.2862  1.4180 -0.5461
  185DOPC  C31222809   6.004   5.992  14.188 -0.2736  0.5033 -0.1485
  185DOPC  H12X22810   6.108   5.956  14.171 -1.0363 -2.6149  1.1483
  185DOPC  H12Y22811   5.937   5.915  14.231 -0.3908  0.3722 -0.5622
  185DOPC  C31322812   6.008   6.110  14.285  0.0377 -0.2536  0.1826
  185DOPC  H13X22813   6.094   6.175  14.258 -0.2261  0.9008  1.9694
  185DOPC  H13Y22814   5.917   6.173  14.273  1.0623  0.7647 -3.5059
  185DOPC  C31422815   6.031   6.069  14.422 -0.2127  0.2509 -0.8388
  185DOPC  H14X22816   5.953   5.995  14.451 -0.6346  0.7714 -0.6205
  185DOPC  H14Y22817   6.128   6.017  14.436  0.1283  1.4689  2.0887
  185DOPC  C31522818   6.037   6.197  14.520  0.4156 -0.4308  0.1817
  185DOPC  H15X22819   6.074   6.278  14.454 -0.1234 -0.4379 -0.1350
  185DOPC  H15Y22820   6.107   6.186  14.605  2.7171  2.1655 -1.2117
  185DOPC  C31622821   5.892   6.238  14.578  0.5367  0.1677 -0.3340
  185DOPC  H16X22822   5.828   6.270  14.493  1.0929  0.5739 -0.6072
  185DOPC  H16Y22823   5.858   6.142  14.621  0.1077  0.7282  0.6248
  185DOPC  C31722824   5.899   6.354  14.670 -0.8992 -0.4216 -0.0721
  185DOPC  H17X22825   5.961   6.318  14.755 -0.1035 -0.0265 -0.4753
  185DOPC  H17Y22826   5.956   6.437  14.624  1.2471 -0.6652  1.9453
  185DOPC  C31822827   5.759   6.403  14.726  0.2664  0.3443  0.3343
  185DOPC  H18X22828   5.697   6.328  14.779  0.1899  2.2900  3.2122
  185DOPC  H18Y22829   5.784   6.494  14.785  0.3434 -0.6282  1.8344
  185DOPC  H18Z22830   5.692   6.428  14.641 -0.6433 -0.5643  0.7572
  186DOPC     N22831   6.503   3.447  12.753 -0.2198 -0.2236 -0.4041
  186DOPC   C1222832   6.552   3.516  12.881 -0.2618 -0.4218 -0.1522
  186DOPC  H12A22833   6.570   3.440  12.955  2.3921 -0.0455 -0.3132
  186DOPC  H12B22834   6.473   3.576  12.926 -0.9999 -1.1564 -0.4386
  186DOPC   C1322835   6.609   3.354  12.705  0.9188  0.4670  0.0456
  186DOPC  H13A22836   6.703   3.407  12.709 -0.1045  2.7063 -2.7450
  186DOPC  H13B22837   6.619   3.271  12.775  0.0233  0.7082  0.4750
  186DOPC  H13C22838   6.592   3.324  12.603 -2.4542  0.6143  0.4516
  186DOPC   C1422839   6.475   3.547  12.655  0.3590  0.1480  0.3942
  186DOPC  H14A22840   6.563   3.604  12.634  0.1546  0.9311  1.6012
  186DOPC  H14B22841   6.432   3.498  12.568 -0.0261  0.4799  0.3951
  186DOPC  H14C22842   6.405   3.620  12.694 -1.7900 -2.0090  0.8345
  186DOPC   C1522843   6.381   3.372  12.781  0.4457  0.7065 -0.0516
  186DOPC  H15A22844   6.394   3.282  12.840 -1.6696  0.7037  0.4956
  186DOPC  H15B22845   6.325   3.360  12.690 -0.0653  3.1328 -0.1180
  186DOPC  H15C22846   6.329   3.444  12.842  0.7566  0.3470  0.6517
  186DOPC   C1122847   6.684   3.597  12.882  0.1072 -0.4716  0.1478
  186DOPC  H11A22848   6.700   3.651  12.786  2.2008 -2.4089 -0.6969
  186DOPC  H11B22849   6.671   3.664  12.970 -0.1300  0.2629 -0.4401
  186DOPC     P22850   6.827   3.402  12.993  0.1114  0.0485  0.0887
  186DOPC   O1322851   6.965   3.407  13.025 -0.4906  0.4899 -0.5439
  186DOPC   O1422852   6.772   3.281  12.934  0.2467  0.4284  0.2538
  186DOPC   O1222853   6.796   3.521  12.899 -0.3964  0.2165  0.4184
  186DOPC   O1122854   6.740   3.427  13.117  0.3324  1.0541 -0.2821
  186DOPC    C122855   6.751   3.543  13.195 -1.0466  0.3644 -0.1232
  186DOPC    HA22856   6.655   3.598  13.189 -0.6326  1.3787  1.6914
  186DOPC    HB22857   6.832   3.612  13.163  0.2485  0.2871  2.7001
  186DOPC    C222858   6.778   3.512  13.350 -0.3762  0.0189 -0.3571
  186DOPC    HS22859   6.887   3.500  13.371 -0.4723  1.4723  1.1231
  186DOPC   O2122860   6.710   3.396  13.403 -0.6477  0.3602 -0.4707
  186DOPC   C2122861   6.768   3.279  13.378  0.6570 -0.1541 -1.0980
  186DOPC   O2222862   6.864   3.261  13.308  0.1334 -0.1574  0.4629
  186DOPC   C2222863   6.686   3.170  13.447 -0.0050 -0.6278 -0.2489
  186DOPC   H2R22864   6.663   3.107  13.359 -2.3536  0.8339 -0.7658
  186DOPC   H2S22865   6.595   3.216  13.492 -0.2298 -1.4111  0.1084
  186DOPC    C322866   6.737   3.642  13.430  0.0879 -0.6774  0.0782
  186DOPC    HX22867   6.627   3.649  13.443 -0.0156 -0.1089 -0.9952
  186DOPC    HY22868   6.756   3.726  13.359  0.8635  0.6500  1.7792
  186DOPC   O3122869   6.806   3.647  13.556 -0.6220  0.6774  0.6546
  186DOPC   C3122870   6.818   3.767  13.601 -0.5592 -0.0569 -0.1840
  186DOPC   O3222871   6.792   3.869  13.536 -0.7004 -0.3845 -0.1729
  186DOPC   C3222872   6.874   3.770  13.741 -0.1317  0.7650  0.0765
  186DOPC   H2X22873   6.848   3.675  13.792 -0.4713  0.6137 -0.3745
  186DOPC   H2Y22874   6.984   3.773  13.721 -0.3937  0.5410 -1.5895
  186DOPC   C2322875   6.789   3.091  13.534  0.4844 -0.1883 -0.5019
  186DOPC   H3R22876   6.886   3.077  13.483  0.0015  1.3145 -1.9155
  186DOPC   H3S22877   6.746   2.988  13.543  1.1498 -0.4220  0.0889
  186DOPC   C2422878   6.785   3.149  13.671 -0.0570  0.1376  0.3881
  186DOPC   H4R22879   6.680   3.157  13.707  0.0488 -1.8054  1.2491
  186DOPC   H4S22880   6.837   3.246  13.676 -1.3828  0.9537 -0.8587
  186DOPC   C2522881   6.844   3.049  13.771  0.7886 -0.8094 -0.3770
  186DOPC   H5R22882   6.944   3.013  13.739  1.9523  0.3754  1.7095
  186DOPC   H5S22883   6.780   2.958  13.767  0.8081 -0.7963 -1.3212
  186DOPC   C2622884   6.853   3.118  13.907  0.0865  0.7487 -0.2975
  186DOPC   H6R22885   6.751   3.156  13.930 -0.1016  1.2368 -1.7916
  186DOPC   H6S22886   6.917   3.209  13.901  0.3785  0.7363  2.0539
  186DOPC   C2722887   6.896   3.033  14.023 -0.0718  0.1028 -0.0916
  186DOPC   H7R22888   7.002   3.008  13.998  0.1273  3.0063 -2.6811
  186DOPC   H7S22889   6.830   2.943  14.021 -2.4376  1.7651 -0.8872
  186DOPC   C2822890   6.891   3.107  14.164  0.5488 -0.6970  0.0904
  186DOPC   H8R22891   6.788   3.121  14.204  0.6912  0.1925  0.1531
  186DOPC   H8S22892   6.937   3.205  14.137  0.3581 -0.0971  1.8429
  186DOPC   C2922893   6.983   3.046  14.261 -0.4665 -0.0228  0.0508
  186DOPC   H9R22894   7.076   3.007  14.218 -1.1420 -1.1347 -0.4513
  186DOPC  C21022895   6.948   3.014  14.389 -0.3009  0.4938  0.4551
  186DOPC  H10R22896   7.001   2.930  14.437  0.5048 -0.0107 -1.2392
  186DOPC  C21122897   6.813   3.051  14.443 -0.6511 -0.7227  0.0459
  186DOPC  H11R22898   6.725   3.008  14.389  0.3583 -0.9167 -1.5052
  186DOPC  H11S22899   6.809   3.161  14.433  1.0429 -0.4259  1.9872
  186DOPC  C21222900   6.822   3.023  14.591  0.3760 -0.0327 -0.1051
  186DOPC  H12R22901   6.739   3.076  14.643  0.4490  0.4930 -0.5054
  186DOPC  H12S22902   6.920   3.058  14.631  0.6020  2.1048 -2.2804
  186DOPC  C21322903   6.822   2.865  14.618  0.4772  0.0447 -1.4130
  186DOPC  H13R22904   6.922   2.824  14.594  0.7463  1.6191 -3.1639
  186DOPC  H13S22905   6.755   2.819  14.542 -0.0847  0.4943 -1.1978
  186DOPC  C21422906   6.771   2.815  14.756  0.0101  0.1088  0.3930
  186DOPC  H14R22907   6.767   2.706  14.739  0.1260  0.2858 -0.8774
  186DOPC  H14S22908   6.667   2.852  14.773  0.4262 -0.0046  3.9820
  186DOPC  C21522909   6.857   2.857  14.874 -0.2454  0.0627 -0.7876
  186DOPC  H15R22910   6.859   2.968  14.879  0.1901  0.0243 -0.0753
  186DOPC  H15S22911   6.954   2.807  14.854 -1.1127 -1.2666 -1.8416
  186DOPC  C21622912   6.802   2.789  14.999  0.1881  0.4025 -0.3995
  186DOPC  H16R22913   6.791   2.679  14.984 -2.3759  0.4770  0.5358
  186DOPC  H16S22914   6.702   2.830  15.022 -0.6758 -2.2022  0.8919
  186DOPC  C21722915   6.893   2.806  15.121  0.9415 -0.9765 -0.4708
  186DOPC  H17R22916   6.931   2.910  15.133  0.1557 -0.9974  4.8254
  186DOPC  H17S22917   6.986   2.746  15.108  1.1049 -0.8044 -0.1312
  186DOPC  C21822918   6.819   2.757  15.247  0.5654  0.5394  0.0452
  186DOPC  H18R22919   6.732   2.821  15.274  0.7637  1.2315 -0.8814
  186DOPC  H18S22920   6.893   2.751  15.330 -0.5812  1.5077  1.1807
  186DOPC  H18T22921   6.788   2.653  15.226 -0.3608  0.5678  1.1620
  186DOPC   C3322922   6.828   3.888  13.821 -0.0240 -0.7474 -0.1773
  186DOPC   H3X22923   6.719   3.899  13.804  0.0659  4.3283  0.9307
  186DOPC   H3Y22924   6.869   3.988  13.796 -2.4585 -0.1113 -1.9873
  186DOPC   C3422925   6.870   3.874  13.972 -0.0167 -0.1478 -0.7288
  186DOPC   H4X22926   6.980   3.858  13.974  0.1242  0.5918 -1.8872
  186DOPC   H4Y22927   6.817   3.780  14.002  2.0484 -0.1819  3.4053
  186DOPC   C3522928   6.821   3.983  14.063  0.2237  0.1846 -0.1396
  186DOPC   H5X22929   6.714   3.983  14.033  0.5314 -1.9811 -1.5145
  186DOPC   H5Y22930   6.862   4.085  14.045 -0.5565  0.4380 -0.5408
  186DOPC   C3622931   6.829   3.958  14.214 -0.4187 -0.2013 -0.1405
  186DOPC   H6X22932   6.769   4.028  14.278  0.8774  0.4967  0.3430
  186DOPC   H6Y22933   6.815   3.853  14.248 -1.7775  0.3493  1.1598
  186DOPC   C3722934   6.966   4.014  14.268  0.5086 -0.3326  0.2417
  186DOPC   H7X22935   7.045   3.966  14.207 -2.0128 -1.5123 -2.2929
  186DOPC   H7Y22936   6.961   4.123  14.250  1.8895 -0.0115  1.5395
  186DOPC   C3822937   6.979   3.991  14.420 -0.3189 -0.0510  0.7154
  186DOPC   H8X22938   6.984   3.883  14.444  0.9690 -0.3540 -0.7549
  186DOPC   H8Y22939   6.886   4.040  14.456 -0.0063  1.4069 -0.3266
  186DOPC   C3922940   7.103   4.069  14.455 -0.1132  0.5326  0.0044
  186DOPC   H9X22941   7.197   4.041  14.404  0.1095 -0.9611  1.1623
  186DOPC  C31022942   7.118   4.174  14.542  0.7800 -0.6680 -0.1380
  186DOPC  H10X22943   7.211   4.234  14.535 -0.0747  0.6488 -0.5841
  186DOPC  C31122944   7.006   4.250  14.621  0.2879 -0.4370  0.3532
  186DOPC  H11X22945   6.916   4.235  14.558  0.8206 -2.1843 -0.0413
  186DOPC  H11Y22946   7.031   4.358  14.612 -0.5273 -0.4386 -3.0382
  186DOPC  C31222947   6.981   4.207  14.760  0.0707 -0.2247 -0.4906
  186DOPC  H12X22948   6.902   4.268  14.808  0.0198  0.3147 -1.2436
  186DOPC  H12Y22949   7.072   4.228  14.820 -0.7074 -2.3150  1.5820
  186DOPC  C31322950   6.942   4.062  14.786 -0.7005 -0.8484 -0.2803
  186DOPC  H13X22951   6.847   4.063  14.729  0.8913  0.2578 -3.1039
  186DOPC  H13Y22952   7.016   3.991  14.744 -0.9580 -0.4056 -1.5284
  186DOPC  C31422953   6.920   4.036  14.940 -0.8378  0.2197  0.2836
  186DOPC  H14X22954   7.022   4.047  14.984  0.8935 -2.1864 -2.7218
  186DOPC  H14Y22955   6.871   4.127  14.983  3.0391  2.3327  0.7717
  186DOPC  C31522956   6.846   3.911  14.984 -0.2843  1.1703  0.4852
  186DOPC  H15X22957   6.748   3.906  14.932 -1.7754 -0.8186  3.2877
  186DOPC  H15Y22958   6.840   3.923  15.094  0.6453  0.3345  0.6439
  186DOPC  C31622959   6.912   3.769  14.958  1.2146 -0.6034  0.2580
  186DOPC  H16X22960   6.834   3.697  14.990  1.3541  0.6282  3.8142
  186DOPC  H16Y22961   6.927   3.778  14.849  0.9601  0.3716  0.2951
  186DOPC  C31722962   7.043   3.751  15.031  0.8785 -0.4954  0.2181
  186DOPC  H17X22963   7.119   3.822  14.992 -0.0627  0.0548 -0.6529
  186DOPC  H17Y22964   7.020   3.777  15.136 -0.5039  0.2900 -0.2516
  186DOPC  C31822965   7.097   3.612  15.033 -0.0151 -0.3093  0.0106
  186DOPC  H18X22966   7.099   3.576  14.928 -1.7088  2.1296 -0.9529
  186DOPC  H18Y22967   7.202   3.606  15.069 -0.5784  0.7181  2.0086
  186DOPC  H18Z22968   7.025   3.555  15.095 -0.3293  0.7244  0.6231
  187DOPC     N22969   5.793   2.797  12.599 -0.7670 -0.5100 -1.0557
  187DOPC   C1222970   5.771   2.943  12.631 -0.5319 -0.2671  0.5095
  187DOPC  H12A22971   5.708   2.983  12.553  0.2928 -1.3891 -0.7966
  187DOPC  H12B22972   5.863   3.000  12.627 -1.3387  0.9750 -1.3464
  187DOPC   C1322973   5.678   2.715  12.624  0.3301  0.2092 -0.0891
  187DOPC  H13A22974   5.693   2.611  12.600 -1.3757 -0.5826  1.9063
  187DOPC  H13B22975   5.661   2.726  12.730  0.5749 -0.6572  0.0426
  187DOPC  H13C22976   5.594   2.752  12.567  0.8139  1.6665  0.0919
  187DOPC   C1422977   5.893   2.733  12.691  0.0750  0.3274 -0.3221
  187DOPC  H14A22978   5.996   2.751  12.663  0.4991 -1.2563  0.1270
  187DOPC  H14B22979   5.864   2.750  12.793 -3.1037 -2.3799 -0.5818
  187DOPC  H14C22980   5.882   2.626  12.678 -1.8762  0.1668  1.9999
  187DOPC   C1522981   5.835   2.780  12.457  0.1637 -0.1205  0.0273
  187DOPC  H15A22982   5.767   2.829  12.389 -1.2022  1.9318  2.6947
  187DOPC  H15B22983   5.830   2.676  12.428 -0.3021 -0.1470  0.1876
  187DOPC  H15C22984   5.934   2.818  12.443  0.7427 -1.2352  0.8877
  187DOPC   C1122985   5.698   2.974  12.761  0.0026 -0.0281  0.0672
  187DOPC  H11A22986   5.678   3.083  12.759 -0.1987 -0.0647  0.0339
  187DOPC  H11B22987   5.599   2.924  12.763  0.7737 -1.6419  2.1518
  187DOPC     P22988   5.906   3.001  12.909 -0.0912  0.3791 -0.4359
  187DOPC   O1322989   5.971   3.073  12.790  0.5820  0.6017 -0.9636
  187DOPC   O1422990   5.997   2.901  12.968  0.6477 -0.8518 -0.4763
  187DOPC   O1222991   5.774   2.932  12.876  0.0058 -0.1806 -0.7700
  187DOPC   O1122992   5.869   3.094  13.030  0.8899 -0.0716  0.1990
  187DOPC    C122993   5.760   3.050  13.113  1.0954  1.0356 -0.4546
  187DOPC    HA22994   5.666   3.028  13.058 -0.7910  1.7113  2.2909
  187DOPC    HB22995   5.720   3.132  13.176 -2.2043 -1.2535  0.7348
  187DOPC    C222996   5.798   2.937  13.218 -0.5617 -0.6572  0.1631
  187DOPC    HS22997   5.807   2.842  13.162 -0.8525 -0.7439  0.2627
  187DOPC   O2122998   5.692   2.925  13.313  0.3306 -0.5449 -0.2054
  187DOPC   C2122999   5.698   2.811  13.378  0.5668  0.6659  0.4675
  187DOPC   O2223000   5.768   2.715  13.350  0.6314 -0.7553  0.0700
  187DOPC   C2223001   5.598   2.819  13.490  0.5360  0.8212  0.3467
  187DOPC   H2R23002   5.538   2.727  13.503 -0.1953  1.1193 -0.7685
  187DOPC   H2S23003   5.519   2.894  13.469  2.3972  2.9497  0.4904
  187DOPC    C323004   5.935   2.950  13.290 -0.2256 -0.5594 -0.4059
  187DOPC    HX23005   6.023   2.943  13.222  1.1205 -0.7106  1.2641
  187DOPC    HY23006   5.955   2.860  13.352 -0.3125  0.5994  1.3975
  187DOPC   O3123007   5.938   3.073  13.359 -0.2242  0.0340  0.0719
  187DOPC   C3123008   5.970   3.060  13.491  0.3516  0.5500 -0.7334
  187DOPC   O3223009   5.971   2.955  13.548 -0.3789  0.4101 -0.1716
  187DOPC   C3223010   6.006   3.191  13.549 -0.3077 -0.4831 -0.3751
  187DOPC   H2X23011   6.114   3.184  13.573 -0.2563 -0.7637 -0.6882
  187DOPC   H2Y23012   6.009   3.267  13.467  2.0184 -0.6568 -0.5123
  187DOPC   C2323013   5.673   2.856  13.625 -0.4052 -0.4271  0.1275
  187DOPC   H3R23014   5.727   2.953  13.613 -2.9737  1.1815  0.6774
  187DOPC   H3S23015   5.747   2.778  13.652 -0.7999 -1.0867 -0.6331
  187DOPC   C2423016   5.574   2.870  13.737 -0.2984  0.4506  0.7770
  187DOPC   H4R23017   5.525   2.771  13.750  0.8762 -0.2617 -0.0851
  187DOPC   H4S23018   5.497   2.947  13.712  0.6946  1.0930 -0.3816
  187DOPC   C2523019   5.635   2.900  13.875 -0.5156 -0.7620 -0.6868
  187DOPC   H5R23020   5.681   3.001  13.871 -0.0725 -0.9036  0.4759
  187DOPC   H5S23021   5.711   2.819  13.877 -1.6334 -1.8536  1.8247
  187DOPC   C2623022   5.526   2.898  13.979  0.0245  0.2239  0.2091
  187DOPC   H6R23023   5.504   2.794  14.013  1.1128  0.2099  0.9081
  187DOPC   H6S23024   5.435   2.946  13.937 -1.1050 -1.6189  0.3898
  187DOPC   C2723025   5.555   2.973  14.109  0.4363 -0.0980  0.0960
  187DOPC   H7R23026   5.470   2.966  14.180  0.8933 -0.9299  0.5760
  187DOPC   H7S23027   5.567   3.080  14.081 -2.2865  0.3542  0.3612
  187DOPC   C2823028   5.675   2.914  14.185  0.4703  0.0142  0.0676
  187DOPC   H8R23029   5.765   2.909  14.121 -0.4478  0.4893 -1.3094
  187DOPC   H8S23030   5.640   2.811  14.209 -0.6858  0.2324 -0.6279
  187DOPC   C2923031   5.695   2.996  14.306 -0.1186 -0.8271 -0.3896
  187DOPC   H9R23032   5.686   3.104  14.287  1.6956 -0.7594 -1.0860
  187DOPC  C21023033   5.708   2.952  14.438  1.3841 -0.1742 -0.2469
  187DOPC  H10R23034   5.704   3.025  14.520  0.8642 -1.2334  0.6865
  187DOPC  C21123035   5.717   2.813  14.486 -0.7677 -0.0303  0.4534
  187DOPC  H11R23036   5.802   2.793  14.554  0.8674  1.9535 -0.8771
  187DOPC  H11S23037   5.747   2.751  14.399  1.3483  0.3863  0.8460
  187DOPC  C21223038   5.593   2.757  14.551 -0.2812  0.6547 -0.0896
  187DOPC  H12R23039   5.616   2.649  14.557  1.7947  0.9603 -1.4993
  187DOPC  H12S23040   5.498   2.765  14.495  0.4072  0.0602 -1.3906
  187DOPC  C21323041   5.566   2.807  14.698  0.1349  0.0608 -0.7614
  187DOPC  H13R23042   5.535   2.914  14.696 -0.0230  0.1337  2.0637
  187DOPC  H13S23043   5.655   2.802  14.764 -0.1443  0.6368 -0.3400
  187DOPC  C21423044   5.452   2.733  14.759  0.3837  0.0564  0.4703
  187DOPC  H14R23045   5.471   2.624  14.769 -0.7950 -0.3452 -1.2242
  187DOPC  H14S23046   5.367   2.737  14.687  1.2804 -1.3153 -0.7275
  187DOPC  C21523047   5.416   2.785  14.895  0.4143  0.0660  0.3065
  187DOPC  H15R23048   5.399   2.895  14.891 -1.6862 -0.2754 -1.3037
  187DOPC  H15S23049   5.502   2.771  14.965  0.8869 -0.2734 -0.3299
  187DOPC  C21623050   5.296   2.706  14.948 -0.3724 -0.2761 -0.5313
  187DOPC  H16R23051   5.326   2.601  14.930  1.1722  0.1695 -0.7315
  187DOPC  H16S23052   5.203   2.725  14.890 -0.9075 -2.3428 -0.3989
  187DOPC  C21723053   5.277   2.720  15.100  0.4013 -0.8267  0.2399
  187DOPC  H17R23054   5.297   2.822  15.138 -1.2622  0.2089 -1.4890
  187DOPC  H17S23055   5.349   2.651  15.150  3.1475  0.7472 -1.2921
  187DOPC  C21823056   5.144   2.675  15.147  0.5197 -0.0829 -0.6846
  187DOPC  H18R23057   5.058   2.734  15.110 -0.1221  0.4718  1.5383
  187DOPC  H18S23058   5.139   2.669  15.258 -0.6867  1.7057 -0.6118
  187DOPC  H18T23059   5.126   2.575  15.102 -0.7869  0.2746 -0.9844
  187DOPC   C3323060   5.922   3.249  13.670 -0.2924  0.4713 -0.5406
  187DOPC   H3X23061   5.812   3.238  13.662  0.0176 -3.5230 -1.5630
  187DOPC   H3Y23062   5.946   3.358  13.665 -0.7702  0.5659 -0.7972
  187DOPC   C3423063   5.964   3.187  13.807 -0.4298 -0.5468 -0.0078
  187DOPC   H4X23064   6.072   3.213  13.820 -0.6499 -0.1679  1.2118
  187DOPC   H4Y23065   5.949   3.079  13.791 -3.7416 -0.2256  0.3600
  187DOPC   C3523066   5.888   3.251  13.933 -0.1139  0.4392 -0.2104
  187DOPC   H5X23067   5.781   3.224  13.922  0.5382 -1.4720 -2.8503
  187DOPC   H5Y23068   5.893   3.361  13.924  0.4263  0.3395 -1.2560
  187DOPC   C3623069   5.950   3.208  14.064 -0.0313 -0.3575  0.1530
  187DOPC   H6X23070   5.932   3.099  14.078  0.8433 -0.3856  1.2331
  187DOPC   H6Y23071   6.056   3.244  14.063 -0.5468  1.2809  0.5615
  187DOPC   C3723072   5.899   3.278  14.183 -0.0603 -0.1171 -0.5043
  187DOPC   H7X23073   5.913   3.387  14.166  1.4293  0.0042  1.2347
  187DOPC   H7Y23074   5.790   3.267  14.205 -0.0897 -0.5534 -0.8476
  187DOPC   C3823075   5.984   3.249  14.314 -0.4062  0.0851 -0.0228
  187DOPC   H8X23076   6.090   3.278  14.297 -0.4158  0.6507  0.8511
  187DOPC   H8Y23077   5.983   3.139  14.330 -0.6040  0.2157  0.9291
  187DOPC   C3923078   5.940   3.329  14.430 -0.4430 -0.3289 -0.1574
  187DOPC   H9X23079   5.837   3.306  14.459 -0.6405  0.6213 -0.0818
  187DOPC  C31023080   6.008   3.426  14.493 -0.6918 -0.4096 -0.1389
  187DOPC  H10X23081   5.964   3.492  14.568  1.2397  0.2935  0.4534
  187DOPC  C31123082   6.148   3.480  14.464  0.7281 -0.5910 -0.2363
  187DOPC  H11X23083   6.145   3.588  14.438 -1.7831 -0.7151 -0.7248
  187DOPC  H11Y23084   6.195   3.421  14.382 -1.0718 -0.5216 -1.3729
  187DOPC  C31223085   6.226   3.450  14.595 -0.1743 -0.4099  0.4076
  187DOPC  H12X23086   6.335   3.461  14.582  0.3597 -2.5597  2.3806
  187DOPC  H12Y23087   6.222   3.341  14.616 -0.2466 -0.5938 -0.5230
  187DOPC  C31323088   6.202   3.535  14.716 -0.1879  0.0441 -0.3221
  187DOPC  H13X23089   6.096   3.529  14.747 -0.0415 -2.5335 -0.0965
  187DOPC  H13Y23090   6.272   3.511  14.799 -1.5299 -0.0877  0.7920
  187DOPC  C31423091   6.241   3.683  14.703  0.3285 -0.3347  0.8849
  187DOPC  H14X23092   6.322   3.690  14.628 -0.5059  0.7202  0.0484
  187DOPC  H14Y23093   6.159   3.737  14.651  0.2783 -0.6258  0.6527
  187DOPC  C31523094   6.289   3.747  14.836  0.0528 -0.1380 -0.3847
  187DOPC  H15X23095   6.311   3.853  14.811  1.6282 -0.2115  0.5141
  187DOPC  H15Y23096   6.389   3.702  14.856  0.1277 -0.0056 -0.4618
  187DOPC  C31623097   6.199   3.737  14.949 -0.3186  0.1240 -1.2909
  187DOPC  H16X23098   6.097   3.769  14.917 -0.8584  0.2008  0.3817
  187DOPC  H16Y23099   6.194   3.629  14.974  0.6003  0.4448  0.4843
  187DOPC  C31723100   6.243   3.809  15.074  0.3714  0.0011  0.7413
  187DOPC  H17X23101   6.311   3.732  15.115 -0.4237 -2.2133 -1.8442
  187DOPC  H17Y23102   6.302   3.899  15.045  0.3165 -0.5505 -1.1678
  187DOPC  C31823103   6.130   3.835  15.176  0.7403 -0.0546  0.1266
  187DOPC  H18X23104   6.046   3.891  15.129  0.5670 -1.0749 -0.8352
  187DOPC  H18Y23105   6.092   3.734  15.200  1.5294 -0.4682 -0.3199
  187DOPC  H18Z23106   6.172   3.880  15.268  1.0330 -0.5732  0.2536
  188DOPC     N23107   2.051   3.950  12.435  0.6711  0.2154 -0.1994
  188DOPC   C1223108   2.164   3.904  12.528  0.4434  0.0084  1.0754
  188DOPC  H12A23109   2.221   3.989  12.564  2.9752 -0.2517 -1.8434
  188DOPC  H12B23110   2.242   3.849  12.476  1.0614  2.0864 -0.3447
  188DOPC   C1323111   1.941   4.026  12.497 -0.2631 -0.5593 -0.0216
  188DOPC  H13A23112   1.968   4.124  12.534 -1.1019 -0.0287 -0.7874
  188DOPC  H13B23113   1.851   4.030  12.438 -1.8897 -0.1396  2.3083
  188DOPC  H13C23114   1.913   3.972  12.587  0.1336 -1.0488 -0.1893
  188DOPC   C1423115   1.997   3.823  12.371  0.3849  0.6689  0.6269
  188DOPC  H14A23116   2.074   3.763  12.323  0.0434  1.2242 -0.6431
  188DOPC  H14B23117   1.945   3.755  12.437  1.1210 -0.4496  0.0801
  188DOPC  H14C23118   1.920   3.842  12.298 -0.1715  1.1225  1.3223
  188DOPC   C1523119   2.112   4.035  12.325 -0.2331  0.1338 -0.1655
  188DOPC  H15A23120   2.046   4.092  12.261  0.3364  0.7380 -0.2195
  188DOPC  H15B23121   2.192   3.990  12.267  1.0763  1.0539  0.8836
  188DOPC  H15C23122   2.162   4.119  12.369  1.1668  1.0240 -3.1475
  188DOPC   C1123123   2.125   3.820  12.648  0.0539 -0.3781  0.3223
  188DOPC  H11A23124   2.211   3.802  12.716 -0.6278 -0.5048  1.1737
  188DOPC  H11B23125   2.060   3.880  12.715 -2.5167 -1.6236 -0.8999
  188DOPC     P23126   2.143   3.564  12.578 -0.0900  0.1335 -0.0289
  188DOPC   O1323127   2.230   3.591  12.462 -0.6248  0.6588 -0.1282
  188DOPC   O1423128   2.049   3.450  12.553 -0.9496  0.1365  0.3419
  188DOPC   O1223129   2.061   3.694  12.621 -0.3808 -0.1648 -0.1834
  188DOPC   O1123130   2.229   3.522  12.699 -1.0771 -0.3192  0.7443
  188DOPC    C123131   2.169   3.459  12.807 -0.0519  0.9511 -0.0907
  188DOPC    HA23132   2.203   3.354  12.801 -0.0059  0.9901 -0.5722
  188DOPC    HB23133   2.058   3.458  12.805 -0.0672 -1.4139 -0.3455
  188DOPC    C223134   2.193   3.516  12.956 -0.8467 -0.0399  0.1614
  188DOPC    HS23135   2.133   3.609  12.959 -2.5117 -1.0917  1.6915
  188DOPC   O2123136   2.334   3.532  12.976 -0.1793  0.3014  0.1433
  188DOPC   C2123137   2.370   3.641  13.052  0.2085 -0.0116 -0.2877
  188DOPC   O2223138   2.295   3.725  13.094 -0.3755 -0.1393  0.6359
  188DOPC   C2223139   2.515   3.656  13.068 -0.3067  0.3771  0.1329
  188DOPC   H2R23140   2.540   3.761  13.094  1.3134 -0.3226  1.5966
  188DOPC   H2S23141   2.563   3.644  12.968  1.0360  0.5451  0.7349
  188DOPC    C323142   2.138   3.419  13.063  0.6726  0.1578 -0.7586
  188DOPC    HX23143   2.207   3.332  13.067 -0.1942 -0.4951  1.6390
  188DOPC    HY23144   2.038   3.380  13.032  0.1956  0.3676  0.4444
  188DOPC   O3123145   2.140   3.477  13.198 -0.0259  0.1197 -0.0871
  188DOPC   C3123146   2.039   3.556  13.225 -0.1092 -0.3995 -0.1473
  188DOPC   O3223147   1.951   3.593  13.153 -0.2552 -0.0413 -0.2490
  188DOPC   C3223148   2.050   3.599  13.368  0.3873 -0.6426 -0.5677
  188DOPC   H2X23149   2.096   3.700  13.364  0.5447 -0.6594  0.4043
  188DOPC   H2Y23150   1.948   3.605  13.412 -0.3694  0.4156 -2.3360
  188DOPC   C2323151   2.561   3.570  13.191  0.5861  0.5360  0.2578
  188DOPC   H3R23152   2.672   3.564  13.185  0.5482 -0.6699  0.4305
  188DOPC   H3S23153   2.524   3.468  13.167 -0.7888  1.1060 -0.1321
  188DOPC   C2423154   2.510   3.621  13.322 -0.3964 -0.3235 -0.1406
  188DOPC   H4R23155   2.400   3.636  13.321 -0.5149 -1.1380 -1.1525
  188DOPC   H4S23156   2.544   3.723  13.348 -1.0449 -0.0217 -0.4536
  188DOPC   C2523157   2.548   3.538  13.442  0.0839 -0.2758  0.3679
  188DOPC   H5R23158   2.659   3.528  13.442  0.0159 -1.4258 -1.1570
  188DOPC   H5S23159   2.499   3.439  13.426  0.3959 -0.1724 -1.4585
  188DOPC   C2623160   2.504   3.602  13.582  0.2667  0.1162 -0.1575
  188DOPC   H6R23161   2.393   3.599  13.579  0.2772 -0.8761  0.1432
  188DOPC   H6S23162   2.545   3.705  13.582 -2.0734  1.1225 -1.2188
  188DOPC   C2723163   2.548   3.519  13.709  0.3104  0.3198 -0.3077
  188DOPC   H7R23164   2.515   3.413  13.705  3.0984 -0.6866  0.6269
  188DOPC   H7S23165   2.491   3.560  13.795 -1.0871 -0.5648 -0.7876
  188DOPC   C2823166   2.700   3.516  13.732 -0.0136  0.6962  0.1280
  188DOPC   H8R23167   2.751   3.479  13.641  1.8896 -0.5783  1.6255
  188DOPC   H8S23168   2.726   3.442  13.811  3.6836  1.8151  0.1425
  188DOPC   C2923169   2.747   3.652  13.780 -0.2244 -0.2317 -0.2277
  188DOPC   H9R23170   2.792   3.716  13.702  0.6205  0.4813  0.8016
  188DOPC  C21023171   2.748   3.693  13.905 -0.3927  0.5389 -0.5139
  188DOPC  H10R23172   2.785   3.795  13.926  0.2408  0.2907 -0.4129
  188DOPC  C21123173   2.679   3.620  14.018  0.3834 -0.3042  0.9176
  188DOPC  H11R23174   2.647   3.514  14.011 -0.5861  0.0256 -0.0196
  188DOPC  H11S23175   2.581   3.672  14.022  0.5378  0.2740 -1.2335
  188DOPC  C21223176   2.750   3.637  14.151 -0.4796  0.4343 -0.3730
  188DOPC  H12R23177   2.736   3.742  14.185 -0.5117  0.0169  0.9589
  188DOPC  H12S23178   2.857   3.624  14.123 -0.0589  0.7781  0.9784
  188DOPC  C21323179   2.705   3.538  14.264 -0.3494  0.2827 -0.2360
  188DOPC  H13R23180   2.768   3.550  14.354 -1.7561 -3.1070  1.3423
  188DOPC  H13S23181   2.736   3.439  14.223 -3.4566 -0.3688 -1.2742
  188DOPC  C21423182   2.555   3.543  14.289 -0.1687 -0.4285 -0.4596
  188DOPC  H14R23183   2.501   3.542  14.191 -1.8036 -1.4481  0.3932
  188DOPC  H14S23184   2.521   3.636  14.339  0.4388 -0.0932 -0.6686
  188DOPC  C21523185   2.514   3.418  14.365  0.9664 -0.1806 -0.2346
  188DOPC  H15R23186   2.532   3.340  14.288 -0.6609  0.3430 -1.1930
  188DOPC  H15S23187   2.404   3.426  14.372  0.5520  2.3570 -5.3227
  188DOPC  C21623188   2.597   3.388  14.488 -0.0763 -0.5314  0.2295
  188DOPC  H16R23189   2.573   3.446  14.580 -1.3787 -1.9142  0.7960
  188DOPC  H16S23190   2.705   3.385  14.461 -0.2611 -2.3774 -0.4607
  188DOPC  C21723191   2.564   3.239  14.535 -0.1518 -0.5267  0.9658
  188DOPC  H17R23192   2.633   3.217  14.619 -1.0104 -1.3555  1.4829
  188DOPC  H17S23193   2.568   3.155  14.462 -2.3223 -0.6353  0.9165
  188DOPC  C21823194   2.428   3.230  14.602  0.4014 -0.7584 -0.4687
  188DOPC  H18R23195   2.415   3.313  14.675  0.0321  0.5472 -1.9683
  188DOPC  H18S23196   2.403   3.134  14.652 -0.9769  0.4045  1.2283
  188DOPC  H18T23197   2.350   3.227  14.524 -2.8602  1.5145  2.3731
  188DOPC   C3323198   2.142   3.517  13.464  0.0847  0.2052  0.6812
  188DOPC   H3X23199   2.245   3.546  13.433  0.0142  1.4016  1.4904
  188DOPC   H3Y23200   2.120   3.410  13.443  3.8396 -0.8617  1.3524
  188DOPC   C3423201   2.131   3.545  13.611 -0.2011  0.6476 -0.1684
  188DOPC   H4X23202   2.223   3.505  13.659  0.6527  1.2835 -1.2201
  188DOPC   H4Y23203   2.039   3.501  13.654  0.7926 -1.0622  0.2919
  188DOPC   C3523204   2.123   3.694  13.650 -0.1062 -0.1866  0.5460
  188DOPC   H5X23205   2.038   3.747  13.601  0.0704  0.6504  1.1205
  188DOPC   H5Y23206   2.219   3.727  13.605 -0.6143 -1.3829 -1.5685
  188DOPC   C3623207   2.110   3.714  13.804 -0.9058 -0.0359 -0.4255
  188DOPC   H6X23208   2.116   3.824  13.824  1.0327 -0.2305  0.2956
  188DOPC   H6Y23209   2.005   3.692  13.833 -0.0286 -1.5456  1.9221
  188DOPC   C3723210   2.201   3.621  13.889  0.6654 -0.1688 -0.6457
  188DOPC   H7X23211   2.164   3.517  13.876 -0.7289  0.5602 -3.1480
  188DOPC   H7Y23212   2.298   3.625  13.834  0.7195 -0.8944 -0.6121
  188DOPC   C3823213   2.227   3.670  14.036 -0.0971 -0.3371 -0.2163
  188DOPC   H8X23214   2.282   3.766  14.041 -1.1895  0.2859 -0.0292
  188DOPC   H8Y23215   2.290   3.596  14.090 -3.0322 -1.4381  1.9987
  188DOPC   C3923216   2.090   3.674  14.101 -0.1881 -0.5671  0.1459
  188DOPC   H9X23217   2.008   3.624  14.048  0.3437  0.2186 -1.4736
  188DOPC  C31023218   2.051   3.748  14.203  0.0629  0.0970 -0.1029
  188DOPC  H10X23219   1.950   3.732  14.242 -0.2027  2.2576  0.2146
  188DOPC  C31123220   2.135   3.837  14.290  0.0804  0.0557 -0.0722
  188DOPC  H11X23221   2.090   3.931  14.330 -2.8976 -0.5118 -1.7765
  188DOPC  H11Y23222   2.222   3.871  14.230  0.1146 -1.5417 -0.9697
  188DOPC  C31223223   2.204   3.752  14.396  0.1173  0.1183  0.3162
  188DOPC  H12X23224   2.298   3.808  14.416  1.1826 -1.7995  0.9303
  188DOPC  H12Y23225   2.236   3.654  14.355 -1.3040 -0.3512  0.2584
  188DOPC  C31323226   2.119   3.726  14.527 -0.2119 -0.4339  0.3678
  188DOPC  H13X23227   2.099   3.821  14.580  1.9987  1.4200 -1.8759
  188DOPC  H13Y23228   2.024   3.671  14.509 -0.9870  1.4166 -1.5780
  188DOPC  C31423229   2.199   3.631  14.621 -0.5950  0.3213 -0.0211
  188DOPC  H14X23230   2.224   3.534  14.573 -0.5854  0.1305  0.3705
  188DOPC  H14Y23231   2.294   3.688  14.634 -0.7592  0.2095  1.7933
  188DOPC  C31523232   2.120   3.601  14.758  0.0960 -0.4802  0.6341
  188DOPC  H15X23233   2.028   3.541  14.741 -0.0762 -0.4488  1.4590
  188DOPC  H15Y23234   2.083   3.690  14.813  0.1089  0.4730 -0.8421
  188DOPC  C31623235   2.211   3.537  14.863  0.2125 -0.0941 -0.5012
  188DOPC  H16X23236   2.249   3.439  14.825 -0.8275  0.2658 -2.6064
  188DOPC  H16Y23237   2.303   3.599  14.865  1.6348 -2.0180 -1.7302
  188DOPC  C31723238   2.160   3.513  15.001  0.6187  0.0963 -0.4999
  188DOPC  H17X23239   2.074   3.443  14.990 -1.6321  2.7344 -0.8360
  188DOPC  H17Y23240   2.230   3.447  15.057 -1.6896 -1.6002  0.5382
  188DOPC  C31823241   2.129   3.634  15.092  0.0080 -0.4137 -0.2132
  188DOPC  H18X23242   2.224   3.683  15.124 -0.6447 -0.0377  1.2358
  188DOPC  H18Y23243   2.067   3.713  15.045 -0.8796 -0.9741  0.0021
  188DOPC  H18Z23244   2.094   3.598  15.191  0.9457  0.8249  0.6002
  189DOPC     N23245   4.243   1.683  12.398 -0.2227  0.2503 -0.0193
  189DOPC   C1223246   4.222   1.570  12.503  0.0281 -0.4615  0.0013
  189DOPC  H12A23247   4.156   1.608  12.580  1.0710 -0.8550  1.1013
  189DOPC  H12B23248   4.322   1.555  12.540  0.4275  0.7753 -0.5133
  189DOPC   C1323249   4.347   1.634  12.300  0.1069  0.1026 -0.0870
  189DOPC  H13A23250   4.369   1.722  12.242  0.0531 -0.3427 -0.7953
  189DOPC  H13B23251   4.442   1.609  12.344  1.2907 -0.1888 -2.6219
  189DOPC  H13C23252   4.314   1.551  12.238  1.3632  0.5211 -1.3671
  189DOPC   C1423253   4.304   1.804  12.477  0.0372  0.7508 -0.0669
  189DOPC  H14A23254   4.232   1.848  12.544 -0.4981  1.6014 -1.1609
  189DOPC  H14B23255   4.386   1.775  12.541 -1.2127 -1.0614  0.8085
  189DOPC  H14C23256   4.334   1.876  12.402  1.2146 -1.9991 -2.4160
  189DOPC   C1523257   4.117   1.720  12.330 -0.4418  0.6272 -0.0825
  189DOPC  H15A23258   4.125   1.782  12.242 -1.0981  1.4665  0.4260
  189DOPC  H15B23259   4.050   1.770  12.399 -0.1898 -0.0025  0.6265
  189DOPC  H15C23260   4.066   1.631  12.297 -0.2733  0.9958 -1.3929
  189DOPC   C1123261   4.159   1.445  12.439  0.3014  0.5209 -0.3542
  189DOPC  H11A23262   4.210   1.428  12.341  0.1327 -0.4235 -0.2925
  189DOPC  H11B23263   4.178   1.360  12.508  1.8270  0.0493 -1.2885
  189DOPC     P23264   3.915   1.462  12.530  0.0976  0.4184 -0.0408
  189DOPC   O1323265   3.817   1.359  12.493  0.8190  0.2069 -0.5103
  189DOPC   O1423266   3.864   1.598  12.559  0.2553  0.3070 -0.1907
  189DOPC   O1223267   4.020   1.462  12.417 -0.4304  0.8693  0.6620
  189DOPC   O1123268   4.004   1.408  12.650 -0.4144 -0.0890 -0.0270
  189DOPC    C123269   3.930   1.343  12.755 -0.4402  0.6498 -0.6204
  189DOPC    HA23270   3.939   1.234  12.734 -0.7471  0.8253 -1.7402
  189DOPC    HB23271   3.822   1.368  12.765 -0.7129 -0.7616  0.2126
  189DOPC    C223272   3.996   1.365  12.898  0.2559  0.2936  0.5489
  189DOPC    HS23273   4.105   1.346  12.893  0.1768  0.0570 -0.5956
  189DOPC   O2123274   3.936   1.286  13.003  0.1327  0.4445 -0.0287
  189DOPC   C2123275   4.000   1.169  13.029 -0.0316  0.5911  0.5351
  189DOPC   O2223276   4.107   1.130  12.976 -0.4579 -0.2080  0.1959
  189DOPC   C2223277   3.910   1.096  13.126 -0.4104  0.9429 -0.5845
  189DOPC   H2R23278   3.952   0.994  13.128 -1.5060  0.4767  0.5718
  189DOPC   H2S23279   3.809   1.103  13.080  0.8754  1.3914 -3.6090
  189DOPC    C323280   3.999   1.520  12.932  0.2589 -0.0587 -0.6215
  189DOPC    HX23281   3.894   1.556  12.924  0.2263 -0.3407 -1.5971
  189DOPC    HY23282   4.057   1.576  12.855  0.2947  1.5385  0.5192
  189DOPC   O3123283   4.027   1.552  13.071 -0.0065 -0.2945 -0.1964
  189DOPC   C3123284   4.156   1.563  13.101  0.2232  0.6472 -0.2770
  189DOPC   O3223285   4.251   1.547  13.027 -0.0340 -0.0405  0.2167
  189DOPC   C3223286   4.162   1.600  13.248 -0.7042  0.0502  0.2149
  189DOPC   H2X23287   4.260   1.649  13.266  0.5105 -2.2867  0.2713
  189DOPC   H2Y23288   4.080   1.673  13.265  0.2595  1.1779  0.1396
  189DOPC   C2323289   3.921   1.164  13.269  0.2463  0.6579  0.0534
  189DOPC   H3R23290   3.909   1.274  13.261  0.0596  0.6422  0.1124
  189DOPC   H3S23291   4.012   1.133  13.326 -0.6115  0.2594  1.2613
  189DOPC   C2423292   3.801   1.119  13.364 -0.0365  0.4879 -0.2770
  189DOPC   H4R23293   3.818   1.019  13.409 -4.4913  0.8291  2.9594
  189DOPC   H4S23294   3.707   1.115  13.304  0.7056  1.1742 -1.5244
  189DOPC   C2523295   3.792   1.208  13.490 -0.5124 -0.7162 -0.4829
  189DOPC   H5R23296   3.761   1.312  13.467 -1.8013 -0.8602  0.4992
  189DOPC   H5S23297   3.891   1.211  13.540 -0.2541  2.0718 -1.0152
  189DOPC   C2623298   3.689   1.162  13.598  0.4445 -0.4641 -0.4570
  189DOPC   H6R23299   3.645   1.069  13.554 -2.4264  0.2639  0.6456
  189DOPC   H6S23300   3.608   1.238  13.600 -0.5888 -1.5452  1.1657
  189DOPC   C2723301   3.754   1.141  13.734  0.2018 -0.3313 -0.0612
  189DOPC   H7R23302   3.832   1.220  13.741 -0.4974  0.2701  1.4291
  189DOPC   H7S23303   3.815   1.048  13.734 -0.9802 -1.1276 -0.5529
  189DOPC   C2823304   3.648   1.150  13.844  0.1809 -0.9804  0.1945
  189DOPC   H8R23305   3.592   1.054  13.852 -0.4575 -0.5964  0.3650
  189DOPC   H8S23306   3.576   1.230  13.816  0.9618 -1.2848 -2.9989
  189DOPC   C2923307   3.716   1.195  13.969 -0.3461  0.0217 -0.2841
  189DOPC   H9R23308   3.792   1.272  13.951 -1.1818  1.4269  1.7480
  189DOPC  C21023309   3.710   1.143  14.098  0.5920  0.1070  0.0320
  189DOPC  H10R23310   3.769   1.194  14.176  1.4371  0.3609 -0.7553
  189DOPC  C21123311   3.603   1.044  14.155 -0.2919 -0.5670  0.3744
  189DOPC  H11R23312   3.652   0.953  14.196  0.4794 -0.2035  0.2785
  189DOPC  H11S23313   3.537   1.003  14.075  0.2928  0.4092 -0.6286
  189DOPC  C21223314   3.508   1.101  14.265 -0.4256 -0.1152  0.9900
  189DOPC  H12R23315   3.418   1.147  14.220 -1.5439 -0.6933  2.5460
  189DOPC  H12S23316   3.563   1.176  14.325 -0.7446  0.4061  0.6370
  189DOPC  C21323317   3.466   0.998  14.373  1.1910 -0.6724  0.7307
  189DOPC  H13R23318   3.548   0.932  14.408 -1.1962 -2.8639  2.7081
  189DOPC  H13S23319   3.386   0.941  14.320 -1.4167  1.2180  2.3774
  189DOPC  C21423320   3.399   1.069  14.492  0.0410 -0.3190  0.0920
  189DOPC  H14R23321   3.303   1.112  14.457 -0.0832  0.5829  1.4660
  189DOPC  H14S23322   3.459   1.151  14.536 -1.6711 -0.0889  2.1351
  189DOPC  C21523323   3.374   0.976  14.610 -0.2693 -0.4584 -0.1698
  189DOPC  H15R23324   3.465   0.968  14.672 -1.5170  1.3934  2.0507
  189DOPC  H15S23325   3.340   0.873  14.583 -2.7215  0.0677  0.6753
  189DOPC  C21623326   3.256   1.022  14.703 -0.2045 -0.0984  0.3964
  189DOPC  H16R23327   3.165   1.038  14.641  0.7782 -0.9228 -1.3455
  189DOPC  H16S23328   3.278   1.113  14.762 -0.8156  0.3970 -0.1302
  189DOPC  C21723329   3.224   0.906  14.800 -0.6002 -0.1878 -0.4561
  189DOPC  H17R23330   3.307   0.898  14.873 -1.4831 -2.9063  0.3432
  189DOPC  H17S23331   3.222   0.808  14.748  1.0512 -0.3594 -0.2473
  189DOPC  C21823332   3.095   0.932  14.883 -0.2414 -0.0604 -0.2461
  189DOPC  H18R23333   3.051   1.028  14.849  3.5677  2.1902  0.5981
  189DOPC  H18S23334   3.126   0.937  14.989  0.4141 -0.5168 -0.4092
  189DOPC  H18T23335   3.019   0.851  14.870 -1.6303  1.0812  0.5306
  189DOPC   C3323336   4.157   1.470  13.334  0.2072  0.0070 -0.1706
  189DOPC   H3X23337   4.239   1.401  13.304 -0.7797 -1.5599  0.6272
  189DOPC   H3Y23338   4.062   1.423  13.303  0.2337 -0.5681  0.6012
  189DOPC   C3423339   4.156   1.513  13.482 -1.0826 -0.1154  0.4732
  189DOPC   H4X23340   4.079   1.591  13.500 -0.3749  0.4425  1.1026
  189DOPC   H4Y23341   4.253   1.551  13.520 -1.1020  1.8819 -1.2877
  189DOPC   C3523342   4.115   1.394  13.576 -0.8199  0.5106 -0.2370
  189DOPC   H5X23343   4.159   1.298  13.543  0.6336  1.2047 -0.3709
  189DOPC   H5Y23344   4.006   1.369  13.579 -0.3438 -1.9525 -0.8470
  189DOPC   C3623345   4.159   1.403  13.723 -0.3126  0.0657 -0.7539
  189DOPC   H6X23346   4.153   1.301  13.767 -4.6889  0.8080  0.8908
  189DOPC   H6Y23347   4.263   1.440  13.723 -0.3854  0.4169 -2.8466
  189DOPC   C3723348   4.055   1.492  13.788 -0.3812 -0.1669 -0.2739
  189DOPC   H7X23349   4.044   1.583  13.725 -0.0436 -0.7278 -1.1618
  189DOPC   H7Y23350   3.959   1.437  13.798 -0.4985  0.2594  1.0649
  189DOPC   C3823351   4.119   1.535  13.926 -0.3573  0.1634 -0.8073
  189DOPC   H8X23352   4.039   1.600  13.969  0.3686 -0.7781  2.2543
  189DOPC   H8Y23353   4.212   1.594  13.912  0.1086 -0.3662 -0.0329
  189DOPC   C3923354   4.137   1.424  14.022 -0.1777  0.6990 -0.4054
  189DOPC   H9X23355   4.098   1.325  13.993  2.2776 -0.9330  1.4516
  189DOPC  C31023356   4.200   1.422  14.144 -0.1193  0.0503  0.0449
  189DOPC  H10X23357   4.217   1.325  14.192  0.5178  0.1035 -0.0696
  189DOPC  C31123358   4.248   1.540  14.217  0.3697  0.3514  0.0218
  189DOPC  H11X23359   4.247   1.629  14.151  2.4964 -1.8902 -3.3480
  189DOPC  H11Y23360   4.353   1.532  14.253  0.0090  0.6865  1.1893
  189DOPC  C31223361   4.148   1.561  14.330 -0.1530  0.5294  0.0237
  189DOPC  H12X23362   4.044   1.569  14.292 -0.4876  0.4785  0.9105
  189DOPC  H12Y23363   4.178   1.663  14.364 -0.3522  1.3604 -2.1083
  189DOPC  C31323364   4.152   1.470  14.452 -0.0809 -0.1878  0.1061
  189DOPC  H13X23365   4.102   1.531  14.529 -1.0951  0.9276 -1.3814
  189DOPC  H13Y23366   4.089   1.380  14.439  0.5659 -0.7955  1.0131
  189DOPC  C31423367   4.297   1.433  14.485  0.5249  0.5399 -0.5234
  189DOPC  H14X23368   4.336   1.368  14.404  0.6582 -1.2151  0.8873
  189DOPC  H14Y23369   4.360   1.525  14.485  0.9939  0.2435 -1.7775
  189DOPC  C31523370   4.307   1.369  14.626 -0.2829 -0.2582  1.2464
  189DOPC  H15X23371   4.396   1.303  14.635  0.0997  0.3318  1.8502
  189DOPC  H15Y23372   4.215   1.307  14.639  0.0935 -1.1339  0.0011
  189DOPC  C31623373   4.314   1.479  14.734 -0.4756  0.0500  0.0678
  189DOPC  H16X23374   4.410   1.534  14.721  0.0181 -0.8165  0.0350
  189DOPC  H16Y23375   4.228   1.545  14.708  0.5373  1.6862  0.6513
  189DOPC  C31723376   4.295   1.424  14.876 -0.1291 -0.3286 -0.0790
  189DOPC  H17X23377   4.194   1.378  14.877  0.5742 -1.9716 -0.6890
  189DOPC  H17Y23378   4.361   1.335  14.883 -1.1460 -1.2839 -1.7857
  189DOPC  C31823379   4.307   1.539  14.977 -0.1390  0.3211 -0.1955
  189DOPC  H18X23380   4.260   1.515  15.075 -1.4554 -2.0985 -1.3312
  189DOPC  H18Y23381   4.409   1.582  14.985 -0.4611  0.9220  0.9533
  189DOPC  H18Z23382   4.234   1.616  14.940 -0.6685  0.1896  0.5520
  190DOPC     N23383   2.365   2.105  12.319 -0.2850 -0.1272 -0.2187
  190DOPC   C1223384   2.298   2.122  12.454  0.1584 -0.1809  0.2269
  190DOPC  H12A23385   2.373   2.092  12.526  1.1406 -1.6165 -1.3091
  190DOPC  H12B23386   2.225   2.043  12.448  1.0489 -1.0403  0.3193
  190DOPC   C1323387   2.503   2.185  12.318 -0.1617  0.4661 -0.4545
  190DOPC  H13A23388   2.552   2.167  12.224 -2.1925  1.3769 -1.7458
  190DOPC  H13B23389   2.492   2.291  12.333  2.3432  0.9516 -1.6244
  190DOPC  H13C23390   2.568   2.136  12.389 -2.4316 -2.0355  0.0672
  190DOPC   C1423391   2.271   2.165  12.215 -0.3789  0.0639 -0.2937
  190DOPC  H14A23392   2.260   2.270  12.236  0.0873  0.1608 -0.5265
  190DOPC  H14B23393   2.319   2.153  12.119  0.2046 -2.2694  0.2237
  190DOPC  H14C23394   2.178   2.110  12.208  0.8006 -2.1739  0.6085
  190DOPC   C1523395   2.394   1.957  12.294 -0.3460 -0.0180  0.2724
  190DOPC  H15A23396   2.475   1.923  12.357  0.6426  0.4707 -0.6985
  190DOPC  H15B23397   2.426   1.945  12.192 -2.2238  0.4474 -0.4092
  190DOPC  H15C23398   2.301   1.902  12.301  0.3940 -1.1752  2.0196
  190DOPC   C1123399   2.237   2.256  12.490 -0.1915 -0.7231  0.2482
  190DOPC  H11A23400   2.146   2.278  12.430  0.6399  0.0888 -0.7588
  190DOPC  H11B23401   2.202   2.251  12.595 -0.8882  1.1372  0.1347
  190DOPC     P23402   2.436   2.430  12.566  0.3287 -0.3840  0.0686
  190DOPC   O1323403   2.377   2.546  12.645  0.1003  0.1067  0.0520
  190DOPC   O1423404   2.556   2.452  12.484 -0.3940 -0.0557 -0.2824
  190DOPC   O1223405   2.325   2.371  12.477 -0.4666  0.1196 -0.3428
  190DOPC   O1123406   2.453   2.318  12.669 -0.1032  0.3183 -0.3146
  190DOPC    C123407   2.570   2.239  12.685 -0.1777  1.1631 -0.2646
  190DOPC    HA23408   2.644   2.249  12.603  0.7067  2.9698  0.7069
  190DOPC    HB23409   2.554   2.129  12.696  0.3456  1.1529  0.4086
  190DOPC    C223410   2.650   2.265  12.822 -0.0082 -0.1445 -0.2849
  190DOPC    HS23411   2.730   2.188  12.832 -0.8252 -0.8597  0.9744
  190DOPC   O2123412   2.558   2.274  12.937 -0.0684 -0.0062  0.7183
  190DOPC   C2123413   2.519   2.156  12.986 -0.0632  0.6721  0.3261
  190DOPC   O2223414   2.567   2.047  12.950  0.0865 -0.4834  0.5773
  190DOPC   C2223415   2.438   2.175  13.109 -0.6626 -0.2883  0.2238
  190DOPC   H2R23416   2.353   2.103  13.103 -1.4327  0.5906  0.3694
  190DOPC   H2S23417   2.393   2.276  13.115 -0.0767 -0.0144  0.0401
  190DOPC    C323418   2.722   2.405  12.818 -0.1278 -0.4545 -0.1964
  190DOPC    HX23419   2.645   2.484  12.804  0.6036  0.2032 -0.6816
  190DOPC    HY23420   2.785   2.417  12.727  1.3442  0.5641  0.8991
  190DOPC   O3123421   2.797   2.438  12.942  0.3601  0.2400  0.0748
  190DOPC   C3123422   2.917   2.376  12.943 -0.5668  0.7136  0.2810
  190DOPC   O3223423   2.971   2.313  12.854  0.2314  0.3570  0.0670
  190DOPC   C3223424   2.983   2.388  13.082  0.4531 -0.2210 -0.6730
  190DOPC   H2X23425   3.021   2.291  13.118  0.9900  0.7586  1.5540
  190DOPC   H2Y23426   3.060   2.468  13.081 -1.3827  1.8349  2.3467
  190DOPC   C2323427   2.517   2.162  13.245  1.1730 -0.4065  0.4911
  190DOPC   H3R23428   2.596   2.240  13.246  0.0935  0.7690 -1.0086
  190DOPC   H3S23429   2.557   2.059  13.236  0.3459 -0.5879 -1.7305
  190DOPC   C2423430   2.430   2.174  13.369  0.0886 -0.1235  0.5113
  190DOPC   H4R23431   2.342   2.109  13.352  1.8102 -2.0617 -1.5890
  190DOPC   H4S23432   2.405   2.282  13.384  1.9449  0.0775  2.8174
  190DOPC   C2523433   2.512   2.139  13.488  0.6715 -0.1662  0.7293
  190DOPC   H5R23434   2.602   2.204  13.483 -1.4413  3.0202  1.2864
  190DOPC   H5S23435   2.533   2.031  13.479 -0.5405 -0.5779  2.4532
  190DOPC   C2623436   2.428   2.158  13.612  0.0568 -0.0333 -1.1901
  190DOPC   H6R23437   2.336   2.097  13.599 -1.3952  0.5141  4.1262
  190DOPC   H6S23438   2.402   2.265  13.627  0.5806 -0.2531  2.0366
  190DOPC   C2723439   2.506   2.103  13.734 -0.8568 -0.1010  0.0097
  190DOPC   H7R23440   2.608   2.146  13.731 -1.3229  1.0024 -0.4153
  190DOPC   H7S23441   2.527   1.995  13.719 -0.8531 -0.5443  2.6119
  190DOPC   C2823442   2.434   2.138  13.864  0.1935  0.1114 -0.6330
  190DOPC   H8R23443   2.330   2.157  13.830  0.7888  0.6063 -2.2879
  190DOPC   H8S23444   2.472   2.237  13.896 -0.3322  0.2755 -0.5164
  190DOPC   C2923445   2.453   2.026  13.964 -0.2805  0.6949  0.1228
  190DOPC   H9R23446   2.506   1.935  13.931 -0.1282 -0.6535  3.6798
  190DOPC  C21023447   2.425   2.035  14.094 -0.2567 -0.3666 -0.4775
  190DOPC  H10R23448   2.438   1.956  14.169  1.3610  0.2926 -0.0215
  190DOPC  C21123449   2.383   2.161  14.159 -0.4871 -0.6307 -0.3344
  190DOPC  H11R23450   2.330   2.223  14.083 -0.8561  0.4334  0.7672
  190DOPC  H11S23451   2.479   2.213  14.181  0.1227 -1.1402 -1.6390
  190DOPC  C21223452   2.304   2.148  14.291  0.2736 -0.3349 -0.1025
  190DOPC  H12R23453   2.214   2.087  14.271 -0.4147  1.1873 -1.9253
  190DOPC  H12S23454   2.259   2.246  14.317 -1.8475 -1.6222  1.4426
  190DOPC  C21323455   2.394   2.106  14.408  0.2345 -0.2994  0.3634
  190DOPC  H13R23456   2.457   2.192  14.438 -1.0354  0.7577  0.1146
  190DOPC  H13S23457   2.464   2.022  14.389 -0.1409 -0.6511  0.5261
  190DOPC  C21423458   2.306   2.070  14.532  0.2396 -0.3704 -0.0022
  190DOPC  H14R23459   2.237   1.985  14.510 -0.9326  0.3069  0.9499
  190DOPC  H14S23460   2.240   2.155  14.560  1.3950  0.8354 -0.8426
  190DOPC  C21523461   2.385   2.025  14.654 -0.0393 -0.5887  0.2312
  190DOPC  H15R23462   2.445   2.110  14.694 -1.5757  0.6501  0.0273
  190DOPC  H15S23463   2.459   1.947  14.627  1.3465  0.2142  1.5740
  190DOPC  C21623464   2.293   1.976  14.765  0.3601 -0.8100  0.3461
  190DOPC  H16R23465   2.229   1.896  14.721 -0.0114  0.1995 -1.0376
  190DOPC  H16S23466   2.227   2.050  14.816  0.0761 -0.8705  0.0700
  190DOPC  C21723467   2.370   1.922  14.882  0.4590  0.4064 -0.9886
  190DOPC  H17R23468   2.437   1.839  14.851  1.1339  0.6482 -0.2134
  190DOPC  H17S23469   2.294   1.880  14.951 -0.7245  1.5220 -1.5823
  190DOPC  C21823470   2.453   2.031  14.956  0.7042  0.7605  0.2097
  190DOPC  H18R23471   2.391   2.123  14.957 -3.3489 -1.6954  1.5169
  190DOPC  H18S23472   2.551   2.045  14.907  1.5880 -2.2505  0.9016
  190DOPC  H18T23473   2.462   2.013  15.065  0.7392 -1.4753 -0.1013
  190DOPC   C3323474   2.889   2.432  13.201 -0.7645  0.5423  0.3431
  190DOPC   H3X23475   2.797   2.370  13.202 -0.1185 -0.5158 -1.4122
  190DOPC   H3Y23476   2.861   2.538  13.184  1.9793  0.7828 -4.3588
  190DOPC   C3423477   2.957   2.414  13.335 -0.5353 -0.5395  0.0190
  190DOPC   H4X23478   3.058   2.457  13.321 -1.3238  1.0857 -0.9851
  190DOPC   H4Y23479   2.981   2.307  13.354  0.9480 -0.2560 -0.1053
  190DOPC   C3523480   2.890   2.487  13.455 -0.1917  0.1334  0.4098
  190DOPC   H5X23481   2.800   2.426  13.478 -0.1442 -0.1458 -0.1169
  190DOPC   H5Y23482   2.860   2.591  13.432 -0.1258  0.4574  1.7212
  190DOPC   C3623483   2.976   2.469  13.581 -0.1449 -0.5717 -0.4084
  190DOPC   H6X23484   2.975   2.362  13.611  2.2670 -1.1893 -2.2350
  190DOPC   H6Y23485   3.082   2.494  13.557 -0.4891  1.9834  0.3705
  190DOPC   C3723486   2.919   2.543  13.695 -0.1610  0.0214  0.0588
  190DOPC   H7X23487   2.887   2.639  13.649  0.6829 -1.0475 -2.9963
  190DOPC   H7Y23488   2.827   2.497  13.738 -1.1846 -0.3858 -2.3757
  190DOPC   C3823489   3.024   2.568  13.805  0.2102  0.5321  0.5454
  190DOPC   H8X23490   3.115   2.603  13.752 -1.4998  1.2751 -2.0952
  190DOPC   H8Y23491   3.048   2.471  13.855  0.5317  0.6093  0.5433
  190DOPC   C3923492   2.974   2.671  13.904  0.7398  0.7558  0.4156
  190DOPC   H9X23493   3.024   2.769  13.908 -3.7357  3.2876  0.5686
  190DOPC  C31023494   2.863   2.660  13.984 -0.2988  0.0447  0.4752
  190DOPC  H10X23495   2.835   2.744  14.049  1.0821  1.0404 -0.1500
  190DOPC  C31123496   2.767   2.539  13.993  0.0826  0.1904 -0.1247
  190DOPC  H11X23497   2.827   2.446  13.981  2.4009  1.0796  3.1703
  190DOPC  H11Y23498   2.689   2.543  13.914 -0.7818  0.6513  0.7331
  190DOPC  C31223499   2.702   2.541  14.133 -0.0426 -0.5634 -0.3270
  190DOPC  H12X23500   2.615   2.472  14.135 -1.9198  1.6366 -1.5617
  190DOPC  H12Y23501   2.659   2.640  14.157  1.4661 -0.0781  0.5293
  190DOPC  C31323502   2.795   2.495  14.245  0.3096  0.3088 -0.5989
  190DOPC  H13X23503   2.826   2.390  14.224  0.9815  0.5239 -0.6820
  190DOPC  H13Y23504   2.887   2.556  14.254 -0.5681  1.7595 -1.2778
  190DOPC  C31423505   2.724   2.498  14.380  0.7042  0.2116 -0.6500
  190DOPC  H14X23506   2.696   2.603  14.402 -0.5779  0.0655 -1.5579
  190DOPC  H14Y23507   2.632   2.436  14.377 -0.1457  1.4650 -0.7038
  190DOPC  C31523508   2.812   2.448  14.490 -0.0285 -0.2797  0.0155
  190DOPC  H15X23509   2.901   2.514  14.495  1.1145 -1.8160  1.3043
  190DOPC  H15Y23510   2.850   2.346  14.467  0.3292  0.2696 -2.0484
  190DOPC  C31623511   2.762   2.446  14.631 -0.1981  0.2480  0.1626
  190DOPC  H16X23512   2.720   2.547  14.651  3.5313  1.8501  0.6914
  190DOPC  H16Y23513   2.681   2.369  14.640  0.2969 -0.1964  1.0093
  190DOPC  C31723514   2.856   2.414  14.750  0.4515 -0.6385 -0.2165
  190DOPC  H17X23515   2.898   2.312  14.758  1.0134 -0.3392  0.8290
  190DOPC  H17Y23516   2.947   2.477  14.735  0.5921 -0.6513  0.5748
  190DOPC  C31823517   2.785   2.426  14.876 -0.3445 -0.1304 -0.3206
  190DOPC  H18X23518   2.860   2.423  14.958  0.6311 -0.4246 -1.1945
  190DOPC  H18Y23519   2.727   2.521  14.878  0.3770  0.3127 -0.1911
  190DOPC  H18Z23520   2.704   2.352  14.890 -1.2688  0.9499  0.2192
  191DOPC     N23521   4.839   2.087  12.263 -0.3135 -0.4524  0.6604
  191DOPC   C1223522   4.888   2.058  12.403 -0.1205  0.1836  0.1602
  191DOPC  H12A23523   4.893   1.951  12.418 -2.5232  0.0219  0.1221
  191DOPC  H12B23524   4.817   2.090  12.478  0.0831  0.0195  0.4246
  191DOPC   C1323525   4.711   2.013  12.241  0.0157 -0.1604 -0.4446
  191DOPC  H13A23526   4.731   1.912  12.272  0.5154 -0.0667 -0.4634
  191DOPC  H13B23527   4.648   2.045  12.324  0.6429 -1.2853  0.5032
  191DOPC  H13C23528   4.661   2.026  12.147 -2.1283 -0.2899  0.6100
  191DOPC   C1423529   4.940   2.038  12.160  1.0386  0.3120 -0.0733
  191DOPC  H14A23530   4.960   1.933  12.178  0.1455  0.1315 -0.0692
  191DOPC  H14B23531   4.900   2.046  12.060  1.8059  0.0845 -0.4022
  191DOPC  H14C23532   5.025   2.104  12.172  0.4912  0.6294  2.4910
  191DOPC   C1523533   4.822   2.234  12.240  0.0237  0.1387  0.3915
  191DOPC  H15A23534   4.915   2.289  12.252 -0.2930  1.1284 -1.2894
  191DOPC  H15B23535   4.738   2.268  12.298  1.8711  0.4726  3.0184
  191DOPC  H15C23536   4.797   2.248  12.135  0.1709  4.1185  0.7065
  191DOPC   C1123537   5.021   2.135  12.453  0.1651  1.2832  0.0953
  191DOPC  H11A23538   4.993   2.242  12.459 -0.6272  1.0941  0.0111
  191DOPC  H11B23539   5.040   2.105  12.558  3.3803  2.1158 -0.1512
  191DOPC     P23540   5.219   1.992  12.380 -0.1102  0.3065 -0.0828
  191DOPC   O1323541   5.345   2.010  12.306 -0.0701  0.3013 -0.0266
  191DOPC   O1423542   5.144   1.869  12.352 -0.4533 -0.1293 -0.0564
  191DOPC   O1223543   5.129   2.118  12.362 -0.3606 -0.1655 -0.3001
  191DOPC   O1123544   5.245   1.992  12.536 -0.0659 -0.1686  0.0333
  191DOPC    C123545   5.339   1.898  12.587  0.1839 -0.3679 -0.1122
  191DOPC    HA23546   5.427   1.953  12.628 -1.1512  1.1826  0.7917
  191DOPC    HB23547   5.390   1.833  12.512  1.1587  0.8462 -0.5358
  191DOPC    C223548   5.281   1.806  12.694 -0.1492  0.3589  0.4143
  191DOPC    HS23549   5.213   1.731  12.648 -1.1478  1.5426 -0.0923
  191DOPC   O2123550   5.210   1.888  12.785  0.7970  0.2005 -0.7670
  191DOPC   C2123551   5.116   1.839  12.855 -0.0780 -0.2253  0.3456
  191DOPC   O2223552   5.081   1.721  12.856 -0.8233 -0.1304 -0.6874
  191DOPC   C2223553   5.050   1.940  12.954  0.0375  0.9574 -0.4109
  191DOPC   H2R23554   4.942   1.949  12.929 -0.3432 -1.7978  0.0249
  191DOPC   H2S23555   5.095   2.042  12.953  0.4372  0.7805 -0.2423
  191DOPC    C323556   5.403   1.730  12.757 -0.0677  0.4333  0.4382
  191DOPC    HX23557   5.488   1.801  12.767  0.4449 -0.3674  2.0588
  191DOPC    HY23558   5.430   1.651  12.684 -0.1319  0.0495  0.8293
  191DOPC   O3123559   5.378   1.671  12.886  0.6954  0.2606 -0.2384
  191DOPC   C3123560   5.340   1.537  12.890 -0.3671 -0.0944 -0.1437
  191DOPC   O3223561   5.321   1.474  12.787 -0.6814  0.0561 -0.5459
  191DOPC   C3223562   5.305   1.499  13.031  0.7732 -0.0107  0.3203
  191DOPC   H2X23563   5.401   1.520  13.084  0.7476 -0.5616  0.5975
  191DOPC   H2Y23564   5.228   1.572  13.063 -0.5423 -0.7265 -1.1391
  191DOPC   C2323565   5.058   1.896  13.102  0.4317  0.3692  0.0476
  191DOPC   H3R23566   5.160   1.870  13.137  0.7416  0.1026 -1.0315
  191DOPC   H3S23567   5.001   1.804  13.128  0.9080 -0.4755 -1.7635
  191DOPC   C2423568   4.997   2.002  13.193  0.6604 -0.4312 -0.5465
  191DOPC   H4R23569   4.896   2.038  13.167 -0.1141  0.0698  2.7849
  191DOPC   H4S23570   5.071   2.083  13.172 -0.6715  0.7068 -0.9435
  191DOPC   C2523571   4.998   1.951  13.336 -0.3489 -0.0055  0.0924
  191DOPC   H5R23572   5.102   1.933  13.370 -0.4102 -1.0717 -0.2412
  191DOPC   H5S23573   4.962   1.846  13.331 -0.0513 -0.0814 -0.6097
  191DOPC   C2623574   4.923   2.046  13.441  0.4588  0.4274  0.2407
  191DOPC   H6R23575   4.818   2.062  13.409 -0.2950 -1.2031  1.7111
  191DOPC   H6S23576   4.966   2.147  13.457 -2.1360  1.3677  2.0233
  191DOPC   C2723577   4.915   1.969  13.573 -0.3749  0.2528 -0.7572
  191DOPC   H7R23578   5.010   1.963  13.630 -2.1423  2.2302  2.7701
  191DOPC   H7S23579   4.873   1.867  13.561 -1.6826  0.8359 -1.3670
  191DOPC   C2823580   4.816   2.045  13.666 -0.1682  0.1135 -0.5295
  191DOPC   H8R23581   4.798   1.977  13.751  1.7261  0.1813 -0.0155
  191DOPC   H8S23582   4.717   2.061  13.618  0.0760 -0.7598 -1.3424
  191DOPC   C2923583   4.875   2.178  13.720  0.0100 -0.1772  0.3293
  191DOPC   H9R23584   4.890   2.258  13.647 -0.1299  0.0016  0.4976
  191DOPC  C21023585   4.919   2.202  13.839 -0.3271  0.5541  0.0585
  191DOPC  H10R23586   4.934   2.308  13.864 -1.5341  0.3222  2.0194
  191DOPC  C21123587   4.936   2.102  13.949 -0.2289  0.7375 -0.2682
  191DOPC  H11R23588   5.045   2.087  13.961 -0.1818 -1.0879 -2.3675
  191DOPC  H11S23589   4.898   1.999  13.928  1.0471  0.1646  0.1491
  191DOPC  C21223590   4.876   2.154  14.082 -0.4178 -0.1044  0.3873
  191DOPC  H12R23591   4.767   2.168  14.067 -0.8045 -3.5920 -1.1236
  191DOPC  H12S23592   4.918   2.251  14.116  1.0053 -0.9366  1.1147
  191DOPC  C21323593   4.900   2.045  14.193  0.3929 -0.3393 -0.1955
  191DOPC  H13R23594   5.009   2.026  14.197  0.5066  0.3744  0.2058
  191DOPC  H13S23595   4.839   1.956  14.168  0.3262 -0.3030 -0.1617
  191DOPC  C21423596   4.843   2.087  14.333  0.0512  0.0117  1.2363
  191DOPC  H14R23597   4.738   2.110  14.307  0.9702  0.6271 -2.4048
  191DOPC  H14S23598   4.896   2.180  14.362  1.6216 -0.6993  0.7593
  191DOPC  C21523599   4.867   1.991  14.445 -0.0080 -0.2604 -0.2781
  191DOPC  H15R23600   4.970   1.954  14.429 -0.0863  0.4776 -2.9374
  191DOPC  H15S23601   4.794   1.909  14.428 -1.3940  0.8403  0.0939
  191DOPC  C21623602   4.852   2.057  14.582 -0.0374 -0.7692  0.7560
  191DOPC  H16R23603   4.778   2.139  14.568  0.8210 -0.1525 -0.3447
  191DOPC  H16S23604   4.952   2.098  14.609 -0.4332 -1.3126  3.3271
  191DOPC  C21723605   4.827   1.965  14.696  0.4876 -0.2708  0.2770
  191DOPC  H17R23606   4.750   1.889  14.672  0.0565  0.5466 -1.0234
  191DOPC  H17S23607   4.798   2.021  14.787  2.0592  1.0288  0.0246
  191DOPC  C21823608   4.948   1.875  14.736 -0.1467  0.8065 -0.7175
  191DOPC  H18R23609   4.919   1.825  14.831 -3.4812  2.7573 -0.5243
  191DOPC  H18S23610   5.041   1.934  14.746 -0.0766  0.9110 -1.8602
  191DOPC  H18T23611   4.972   1.792  14.666  0.1609  0.7606 -0.5590
  191DOPC   C3323612   5.261   1.352  13.046  0.6166 -0.3509  0.6386
  191DOPC   H3X23613   5.333   1.284  12.995 -1.1727 -0.2417 -2.2462
  191DOPC   H3Y23614   5.158   1.341  13.007  0.3881  0.9375  0.8536
  191DOPC   C3423615   5.244   1.302  13.191 -0.0608 -0.8473 -0.0103
  191DOPC   H4X23616   5.209   1.197  13.182 -2.3106 -0.0350 -1.6262
  191DOPC   H4Y23617   5.162   1.366  13.231  1.2690  0.7179  0.2869
  191DOPC   C3523618   5.372   1.306  13.275  0.0761 -0.0577 -0.5503
  191DOPC   H5X23619   5.382   1.412  13.305  0.4286 -1.1131  3.7065
  191DOPC   H5Y23620   5.457   1.289  13.206 -1.6633 -2.8165 -2.2057
  191DOPC   C3623621   5.350   1.219  13.397  0.1074  0.0479  0.7869
  191DOPC   H6X23622   5.248   1.245  13.433 -0.1684  0.9535 -0.5766
  191DOPC   H6Y23623   5.359   1.110  13.376  4.1771 -0.1107  2.3386
  191DOPC   C3723624   5.453   1.241  13.508  0.3537  0.1653  0.3889
  191DOPC   H7X23625   5.548   1.208  13.461  1.2688  1.6134  1.1366
  191DOPC   H7Y23626   5.452   1.350  13.528 -1.5678  0.6188 -1.7121
  191DOPC   C3823627   5.443   1.153  13.628 -0.1252  0.1586 -0.5038
  191DOPC   H8X23628   5.538   1.175  13.683  0.1897  3.9637 -2.2507
  191DOPC   H8Y23629   5.440   1.046  13.600 -3.5671  0.2005 -0.7263
  191DOPC   C3923630   5.322   1.183  13.712  0.0595 -0.0338  1.0820
  191DOPC   H9X23631   5.230   1.142  13.667  0.5718  0.0125 -0.0496
  191DOPC  C31023632   5.315   1.256  13.821 -0.6848  0.2707 -0.1755
  191DOPC  H10X23633   5.215   1.258  13.867 -0.2897  0.3436  0.6851
  191DOPC  C31123634   5.427   1.332  13.892 -0.3944  0.6204 -0.3654
  191DOPC  H11X23635   5.403   1.441  13.899  0.2979  0.7032  1.2871
  191DOPC  H11Y23636   5.527   1.323  13.844 -0.3824  0.0498 -0.2433
  191DOPC  C31223637   5.443   1.272  14.031  0.1349  0.1516 -0.2137
  191DOPC  H12X23638   5.347   1.258  14.085 -0.3177  0.9823 -0.7708
  191DOPC  H12Y23639   5.491   1.343  14.102 -1.2010  1.2148 -0.3201
  191DOPC  C31323640   5.518   1.137  14.037 -0.4111 -0.2230 -0.0951
  191DOPC  H13X23641   5.493   1.074  13.949 -1.4762 -0.6983  0.5446
  191DOPC  H13Y23642   5.625   1.166  14.028 -0.4602 -0.1632 -0.5135
  191DOPC  C31423643   5.501   1.060  14.170 -0.0200  0.7129 -0.5700
  191DOPC  H14X23644   5.392   1.059  14.195  0.2275  1.8859  0.7127
  191DOPC  H14Y23645   5.532   0.954  14.175 -0.1814  0.6380 -1.1656
  191DOPC  C31523646   5.565   1.123  14.292  0.2089  0.3536 -0.4136
  191DOPC  H15X23647   5.552   1.232  14.306  1.0063  0.4061 -0.0405
  191DOPC  H15Y23648   5.673   1.123  14.265  0.4196  0.7617  0.3959
  191DOPC  C31623649   5.555   1.045  14.421  0.2370  0.6160 -0.7060
  191DOPC  H16X23650   5.447   1.031  14.446 -0.0181 -0.1799 -2.1872
  191DOPC  H16Y23651   5.593   0.943  14.402 -0.1658  0.3426 -0.1000
  191DOPC  C31723652   5.635   1.115  14.539 -0.2588 -0.1202  0.1574
  191DOPC  H17X23653   5.743   1.116  14.511  0.0722  0.9895  1.3760
  191DOPC  H17Y23654   5.603   1.221  14.541  1.0919  0.3123 -0.1175
  191DOPC  C31823655   5.611   1.048  14.674  0.2613  0.1193 -0.2289
  191DOPC  H18X23656   5.504   1.028  14.698  0.2673  2.4359  2.0989
  191DOPC  H18Y23657   5.655   0.946  14.665 -0.4068 -0.0765 -1.7579
  191DOPC  H18Z23658   5.648   1.097  14.766 -0.0886 -2.2306  1.2551
  192DOPC     N23659   0.227   5.545  12.261 -0.1108 -0.3676 -0.2779
  192DOPC   C1223660   0.155   5.518  12.392 -1.1992 -0.3023 -0.6971
  192DOPC  H12A23661   0.208   5.435  12.434  0.8139  1.4648  0.4275
  192DOPC  H12B23662   0.053   5.488  12.372 -1.0921  0.8750 -3.4584
  192DOPC   C1323663   0.368   5.598  12.279 -0.0320  0.7850 -0.1035
  192DOPC  H13A23664   0.414   5.622  12.184  0.8763  2.5900  0.7286
  192DOPC  H13B23665   0.377   5.687  12.340  1.2560  0.3344  0.4058
  192DOPC  H13C23666   0.423   5.516  12.322 -1.0762 -0.5920 -1.2927
  192DOPC   C1423667   0.142   5.638  12.176  0.0195  0.1263 -0.2753
  192DOPC  H14A23668   0.114   5.716  12.246 -0.7379 -1.1887  0.9244
  192DOPC  H14B23669   0.178   5.681  12.083 -1.6711  2.6603  0.1285
  192DOPC  H14C23670   0.052   5.587  12.147  0.4947 -1.1834  0.4594
  192DOPC   C1523671   0.238   5.418  12.190 -0.1874  0.1422 -0.3432
  192DOPC  H15A23672   0.310   5.354  12.240 -1.0027  0.4247  1.2807
  192DOPC  H15B23673   0.266   5.436  12.088 -1.3171  1.3202 -0.4739
  192DOPC  H15C23674   0.144   5.365  12.192 -0.7334  1.1165  0.1278
  192DOPC   C1123675   0.159   5.634  12.498 -0.0192 -0.6042  0.9206
  192DOPC  H11A23676   0.116   5.721  12.443  0.0234  0.3751  2.3959
  192DOPC  H11B23677   0.087   5.603  12.577  0.8257 -2.3818  1.0355
  192DOPC     P23678   0.367   5.562  12.639  0.1112 -0.1884  0.1986
  192DOPC   O1323679   0.490   5.616  12.692 -0.2928 -0.2318 -0.5362
  192DOPC   O1423680   0.384   5.429  12.570 -0.1519  0.0683  0.2023
  192DOPC   O1223681   0.289   5.671  12.546 -0.4603  0.5136  0.0080
  192DOPC   O1123682   0.263   5.539  12.756 -0.3110  0.2835  0.0126
  192DOPC    C123683   0.206   5.652  12.823  0.5960  0.4266  0.3377
  192DOPC    HA23684   0.107   5.641  12.873 -0.5288 -1.4520 -2.1327
  192DOPC    HB23685   0.179   5.739  12.761 -0.4387  0.0274  0.2015
  192DOPC    C223686   0.298   5.708  12.932  0.0087 -0.0305 -0.1909
  192DOPC    HS23687   0.386   5.748  12.878 -1.1122  1.3388 -1.0819
  192DOPC   O2123688   0.326   5.608  13.028  0.1169 -0.4055 -0.9744
  192DOPC   C2123689   0.458   5.563  13.021  0.1503  0.1574 -0.0317
  192DOPC   O2223690   0.541   5.608  12.950 -0.5012 -0.4819 -0.1391
  192DOPC   C2223691   0.480   5.455  13.124  0.3476 -0.2035  0.3196
  192DOPC   H2R23692   0.545   5.374  13.086  1.8164  1.4841 -0.9454
  192DOPC   H2S23693   0.383   5.410  13.153  0.1917 -2.2696 -3.0005
  192DOPC    C323694   0.240   5.828  13.019 -0.1062 -0.4489  0.0522
  192DOPC    HX23695   0.154   5.778  13.067 -0.3573 -2.5095 -2.3149
  192DOPC    HY23696   0.217   5.906  12.943  3.7160  2.1205  1.2121
  192DOPC   O3123697   0.336   5.877  13.115  0.8502  0.1794  0.1309
  192DOPC   C3123698   0.436   5.960  13.073  0.3063 -0.6164  0.3922
  192DOPC   O3223699   0.463   5.979  12.958  0.2053 -0.1340 -0.4810
  192DOPC   C3223700   0.510   6.018  13.190 -1.2189 -0.0874 -0.4632
  192DOPC   H2X23701   0.526   6.123  13.159 -1.3082 -0.2253 -0.9935
  192DOPC   H2Y23702   0.462   6.012  13.290  1.2682  0.1174  0.8232
  192DOPC   C2323703   0.555   5.522  13.241 -0.2125  0.4172 -0.3059
  192DOPC   H3R23704   0.482   5.579  13.302  0.3331  3.4123 -2.2545
  192DOPC   H3S23705   0.641   5.582  13.202  0.6807 -0.4508  0.2655
  192DOPC   C2423706   0.603   5.407  13.328  0.3442 -0.1172 -0.3643
  192DOPC   H4R23707   0.688   5.354  13.281 -1.7732 -0.4676 -4.2062
  192DOPC   H4S23708   0.515   5.339  13.334 -0.1485  0.2448 -2.6834
  192DOPC   C2523709   0.629   5.454  13.469 -0.3705  0.8738 -0.2157
  192DOPC   H5R23710   0.533   5.489  13.513 -0.7352  1.3538 -1.3636
  192DOPC   H5S23711   0.709   5.529  13.482  1.1044 -0.5549 -0.7880
  192DOPC   C2623712   0.678   5.333  13.566  0.2671 -0.3804  0.8454
  192DOPC   H6R23713   0.766   5.277  13.530  0.5226  0.6049 -0.1244
  192DOPC   H6S23714   0.602   5.252  13.570 -0.5333  0.2344 -0.8506
  192DOPC   C2723715   0.708   5.400  13.706  0.2697 -0.6534  0.5424
  192DOPC   H7R23716   0.618   5.458  13.737  1.6325  0.7720  2.0157
  192DOPC   H7S23717   0.780   5.484  13.703 -0.6057  0.0893 -0.6509
  192DOPC   C2823718   0.735   5.306  13.815  0.0689  0.2970  0.1543
  192DOPC   H8R23719   0.642   5.246  13.810 -0.7880  1.6754 -1.2953
  192DOPC   H8S23720   0.751   5.364  13.908  0.7557  0.1252  0.1541
  192DOPC   C2923721   0.847   5.210  13.782 -0.3738 -0.6916 -0.2542
  192DOPC   H9R23722   0.835   5.139  13.699 -2.8045  0.2091 -0.7632
  192DOPC  C21023723   0.968   5.206  13.847  0.0815  0.0239  0.2033
  192DOPC  H10R23724   1.033   5.125  13.810  1.0398  0.9848 -0.2814
  192DOPC  C21123725   1.008   5.299  13.957 -0.1075  0.3021 -0.1661
  192DOPC  H11R23726   0.922   5.341  14.012  0.2789  1.4092 -0.3896
  192DOPC  H11S23727   1.059   5.387  13.913 -1.1090 -0.2441 -2.6261
  192DOPC  C21223728   1.084   5.231  14.071  0.1983  0.2536 -0.2415
  192DOPC  H12R23729   1.178   5.182  14.037 -0.1771  0.4384 -1.6305
  192DOPC  H12S23730   1.020   5.155  14.120 -0.8546 -0.2220 -2.2231
  192DOPC  C21323731   1.124   5.332  14.175  0.1125  0.0959  0.3640
  192DOPC  H13R23732   1.030   5.384  14.206 -0.6546  0.3986 -2.2526
  192DOPC  H13S23733   1.191   5.407  14.129 -0.3411 -0.5499 -1.4327
  192DOPC  C21423734   1.183   5.258  14.303  0.1888  0.3701  0.7770
  192DOPC  H14R23735   1.270   5.194  14.276 -0.9406 -0.6872 -0.4826
  192DOPC  H14S23736   1.107   5.193  14.351  0.6685 -1.7000 -1.1222
  192DOPC  C21523737   1.222   5.354  14.413 -0.5552 -0.0234  0.9674
  192DOPC  H15R23738   1.132   5.416  14.436  0.0262  1.8327 -1.4017
  192DOPC  H15S23739   1.298   5.425  14.375 -3.6617  2.9672 -0.1955
  192DOPC  C21623740   1.274   5.291  14.545  0.0823 -0.3425  0.5958
  192DOPC  H16R23741   1.368   5.235  14.526 -0.3960 -2.2169  3.1391
  192DOPC  H16S23742   1.194   5.218  14.570  0.6376 -1.1033  0.2038
  192DOPC  C21723743   1.306   5.398  14.648  0.0414 -0.3062  0.2062
  192DOPC  H17R23744   1.211   5.429  14.695  0.3025  2.6217 -0.9647
  192DOPC  H17S23745   1.335   5.492  14.595 -1.5419 -0.7194 -1.5104
  192DOPC  C21823746   1.407   5.356  14.744 -0.0964  0.2168  0.2755
  192DOPC  H18R23747   1.445   5.447  14.795  1.7999 -1.6264  2.3731
  192DOPC  H18S23748   1.483   5.308  14.679 -1.5354 -0.0474 -1.2640
  192DOPC  H18T23749   1.362   5.294  14.824  0.3450  0.2126  0.5223
  192DOPC   C3323750   0.642   5.942  13.190  0.4872 -0.2348  0.0143
  192DOPC   H3X23751   0.692   5.972  13.095  1.6945  2.1651  1.3197
  192DOPC   H3Y23752   0.627   5.832  13.188  1.3366 -0.4192  1.8952
  192DOPC   C3423753   0.740   5.978  13.307 -0.1691  0.1105  0.4623
  192DOPC   H4X23754   0.766   6.085  13.292  0.0946 -0.1336 -0.9252
  192DOPC   H4Y23755   0.828   5.913  13.291  0.4511  1.1396 -0.3828
  192DOPC   C3523756   0.690   5.950  13.451 -0.5698  0.2883 -0.2179
  192DOPC   H5X23757   0.613   6.029  13.464 -0.8622 -0.0411  0.0628
  192DOPC   H5Y23758   0.774   5.982  13.518  0.4427 -1.3551 -0.6556
  192DOPC   C3623759   0.660   5.807  13.486  0.3459 -0.1748 -0.3585
  192DOPC   H6X23760   0.580   5.763  13.421  1.5788 -1.2963 -1.1748
  192DOPC   H6Y23761   0.757   5.755  13.471  0.9469  0.5775  0.8384
  192DOPC   C3723762   0.609   5.789  13.633  0.5148 -1.3109  0.6409
  192DOPC   H7X23763   0.513   5.844  13.643  1.8901  1.9207 -2.1349
  192DOPC   H7Y23764   0.578   5.683  13.640  1.4787 -1.6974 -0.6059
  192DOPC   C3823765   0.712   5.831  13.740  0.2378 -0.2443 -0.1134
  192DOPC   H8X23766   0.738   5.936  13.717 -1.5031 -0.0350 -1.3849
  192DOPC   H8Y23767   0.801   5.767  13.723 -0.7407 -1.0479 -2.7510
  192DOPC   C3923768   0.659   5.812  13.879 -0.1458 -0.2511 -0.1096
  192DOPC   H9X23769   0.572   5.877  13.894  0.5024  0.0027  3.1706
  192DOPC  C31023770   0.689   5.735  13.981 -0.0501  0.2621 -1.0118
  192DOPC  H10X23771   0.635   5.746  14.076  0.2268 -2.1657 -0.5130
  192DOPC  C31123772   0.800   5.641  13.988 -0.3475 -0.0947  0.0258
  192DOPC  H11X23773   0.876   5.659  13.909  0.1279  2.2535  0.9418
  192DOPC  H11Y23774   0.751   5.541  13.986 -0.2130 -0.1705  0.3776
  192DOPC  C31223775   0.883   5.642  14.114 -0.0360 -1.1683 -0.2404
  192DOPC  H12X23776   0.938   5.739  14.118 -0.3209 -1.0189  0.0475
  192DOPC  H12Y23777   0.964   5.566  14.109  0.5498 -0.9708  3.4709
  192DOPC  C31323778   0.814   5.614  14.245  0.0063 -0.2382 -0.6946
  192DOPC  H13X23779   0.730   5.685  14.262 -0.4661 -1.0055  0.2871
  192DOPC  H13Y23780   0.766   5.514  14.246 -1.2757  0.3566 -0.0719
  192DOPC  C31423781   0.905   5.626  14.371 -0.6195 -0.7685 -0.5198
  192DOPC  H14X23782   0.869   5.558  14.452 -1.0522 -0.4346 -0.4316
  192DOPC  H14Y23783   1.001   5.581  14.338 -0.2831  0.1883 -0.8526
  192DOPC  C31523784   0.926   5.765  14.434  0.0471  0.1449 -0.4008
  192DOPC  H15X23785   0.835   5.800  14.486  0.6239 -0.5979  1.1770
  192DOPC  H15Y23786   0.955   5.832  14.350 -0.5954 -1.0753 -1.6382
  192DOPC  C31623787   1.031   5.774  14.551  0.5614 -0.3798  1.0097
  192DOPC  H16X23788   1.127   5.732  14.513  0.6407  0.6153  0.0710
  192DOPC  H16Y23789   1.068   5.877  14.567  0.1095 -0.1308  0.4718
  192DOPC  C31723790   0.993   5.701  14.676 -0.4963 -1.0803  0.4544
  192DOPC  H17X23791   0.909   5.751  14.729  1.8402  2.7362  0.9807
  192DOPC  H17Y23792   0.964   5.595  14.661 -1.4089 -0.6848 -0.8119
  192DOPC  C31823793   1.102   5.701  14.781 -0.6361 -0.2844 -0.0614
  192DOPC  H18X23794   1.073   5.626  14.858 -0.0795 -1.9591 -1.3978
  192DOPC  H18Y23795   1.204   5.699  14.738 -0.7308 -1.9427 -0.2825
  192DOPC  H18Z23796   1.100   5.801  14.829  0.1850  0.6996 -1.9823
  193DOPC     N23797   0.117   2.665  12.495 -0.1893  0.2155 -0.0203
  193DOPC   C1223798   0.077   2.703  12.641 -0.0652  0.2980  0.2272
  193DOPC  H12A23799   0.155   2.771  12.673  2.1685 -0.4367 -3.1717
  193DOPC  H12B23800   0.081   2.619  12.709 -1.5170 -0.0334 -0.0747
  193DOPC   C1323801   0.224   2.558  12.493 -0.3569 -0.0101  0.2791
  193DOPC  H13A23802   0.257   2.539  12.392  1.2405  0.5391  0.6560
  193DOPC  H13B23803   0.307   2.596  12.551  0.6236  0.9020 -1.5986
  193DOPC  H13C23804   0.195   2.468  12.545  0.4982 -1.4785 -1.6367
  193DOPC   C1423805   0.159   2.781  12.414  0.1403 -0.7894 -0.2047
  193DOPC  H14A23806   0.074   2.842  12.385  0.1249 -0.1195  1.1550
  193DOPC  H14B23807   0.228   2.846  12.466  0.4940 -1.5933  0.3564
  193DOPC  H14C23808   0.204   2.754  12.320 -2.2553  0.4908 -1.8409
  193DOPC   C1523809  -0.006   2.605  12.434  0.1069  0.0302 -0.3192
  193DOPC  H15A23810  -0.093   2.669  12.432 -0.6717 -0.9942 -0.4513
  193DOPC  H15B23811  -0.044   2.532  12.505 -0.2295 -0.4789 -1.0101
  193DOPC  H15C23812   0.004   2.574  12.331 -1.7263  0.7452 -0.7607
  193DOPC   C1123813  -0.059   2.768  12.665 -0.6884  0.2637  0.0314
  193DOPC  H11A23814  -0.062   2.825  12.760 -1.6356  0.2217  0.0346
  193DOPC  H11B23815  -0.070   2.847  12.589 -0.0612 -0.1872 -0.5416
  193DOPC     P23816  -0.183   2.559  12.762 -0.1936  0.1582 -0.0284
  193DOPC   O1323817  -0.098   2.442  12.731  0.5748 -0.0911  0.5263
  193DOPC   O1423818  -0.321   2.524  12.753  0.1227  0.2871  0.2729
  193DOPC   O1223819  -0.162   2.673  12.661  0.3279  0.0714 -0.3031
  193DOPC   O1123820  -0.151   2.632  12.898 -0.1921 -0.2587  1.0875
  193DOPC    C123821  -0.236   2.636  13.014 -0.5867 -0.6827  0.1832
  193DOPC    HA23822  -0.337   2.590  12.999 -0.6961 -0.2126 -0.6214
  193DOPC    HB23823  -0.257   2.742  13.039  0.1578 -0.5159  0.1046
  193DOPC    C223824  -0.153   2.568  13.128  0.1090 -0.5450 -0.2797
  193DOPC    HS23825  -0.049   2.605  13.140 -0.5805  1.2554  0.5235
  193DOPC   O2123826  -0.178   2.427  13.107  0.0669  0.1746  0.4907
  193DOPC   C2123827  -0.078   2.357  13.154 -0.5269 -0.0643 -0.4080
  193DOPC   O2223828   0.026   2.400  13.207 -0.2374  0.1510 -0.1582
  193DOPC   C2223829  -0.125   2.219  13.155 -0.4477 -0.7021  0.9731
  193DOPC   H2R23830  -0.161   2.203  13.052 -1.2840  1.6023  0.8654
  193DOPC   H2S23831  -0.212   2.214  13.224  0.0137 -0.4221  1.5925
  193DOPC    C323832  -0.223   2.604  13.256  0.0376  0.0478 -0.4380
  193DOPC    HX23833  -0.325   2.560  13.252 -0.0319  0.2555 -1.0185
  193DOPC    HY23834  -0.236   2.714  13.256 -1.9910 -0.1554  0.2546
  193DOPC   O3123835  -0.162   2.558  13.380 -0.4386  0.7809  0.4143
  193DOPC   C3123836  -0.055   2.619  13.415 -0.7781 -0.1673 -0.5305
  193DOPC   O3223837  -0.013   2.728  13.376 -0.0999  0.3031  0.8318
  193DOPC   C3223838   0.016   2.538  13.521  0.0944 -0.7152 -0.2451
  193DOPC   H2X23839   0.060   2.450  13.468 -1.5790 -1.3479 -0.6527
  193DOPC   H2Y23840   0.083   2.607  13.577  0.3007  1.5726 -3.0731
  193DOPC   C2323841  -0.010   2.120  13.183 -0.7733  0.1462 -0.9584
  193DOPC   H3R23842   0.079   2.160  13.130  0.0077 -1.6745 -1.0908
  193DOPC   H3S23843  -0.036   2.017  13.149 -1.9750  0.4993 -1.1491
  193DOPC   C2423844   0.025   2.122  13.338  0.0198  0.4180 -0.2354
  193DOPC   H4R23845   0.049   2.225  13.370  3.6597 -0.6064  0.8466
  193DOPC   H4S23846   0.116   2.061  13.361  1.3313  2.5332  0.4717
  193DOPC   C2523847  -0.096   2.094  13.428  0.0648  0.0023 -0.3312
  193DOPC   H5R23848  -0.137   1.999  13.387  1.1879 -0.1443 -1.1628
  193DOPC   H5S23849  -0.172   2.175  13.422 -2.0654 -1.8410  0.4383
  193DOPC   C2623850  -0.071   2.076  13.576 -0.5414 -0.3578  0.8564
  193DOPC   H6R23851  -0.006   2.153  13.623 -1.4224 -0.2960  2.0290
  193DOPC   H6S23852  -0.013   1.981  13.577  0.0467 -0.1701 -2.9236
  193DOPC   C2723853  -0.202   2.080  13.661 -0.7305  0.0975 -0.1196
  193DOPC   H7R23854  -0.284   2.040  13.598  0.9172 -0.3123 -2.1327
  193DOPC   H7S23855  -0.220   2.188  13.679  1.7355  0.5932 -0.2119
  193DOPC   C2823856  -0.205   2.007  13.802  0.9006 -0.0266 -0.0657
  193DOPC   H8R23857  -0.189   1.900  13.778 -0.0823  0.3107 -2.4453
  193DOPC   H8S23858  -0.304   2.025  13.849 -1.1913 -0.2676 -3.9852
  193DOPC   C2923859  -0.105   2.091  13.890 -0.9352 -0.1620  0.7193
  193DOPC   H9R23860  -0.018   2.131  13.836  0.7398 -1.7197  2.1846
  193DOPC  C21023861  -0.114   2.107  14.023  0.4672  0.5104  0.0486
  193DOPC  H10R23862  -0.035   2.167  14.072  0.0901  0.2388  0.9914
  193DOPC  C21123863  -0.228   2.048  14.107 -0.0529 -0.2510  0.8115
  193DOPC  H11R23864  -0.285   1.971  14.051 -2.4259  0.5826  1.9451
  193DOPC  H11S23865  -0.310   2.120  14.129 -0.7585 -1.0381  0.8522
  193DOPC  C21223866  -0.179   1.984  14.237 -0.2034  0.0586  0.1658
  193DOPC  H12R23867  -0.122   2.061  14.293 -1.1054  0.4795  0.5216
  193DOPC  H12S23868  -0.112   1.899  14.211 -1.4307 -0.8753 -0.0729
  193DOPC  C21323869  -0.300   1.915  14.307  0.3750 -0.8254  0.2018
  193DOPC  H13R23870  -0.350   1.856  14.227  0.2663 -1.6601  0.8752
  193DOPC  H13S23871  -0.360   2.000  14.346  0.3862 -1.2792  1.2259
  193DOPC  C21423872  -0.261   1.830  14.424 -0.2771  0.4700 -0.2657
  193DOPC  H14R23873  -0.211   1.745  14.374 -1.2614 -0.3687  0.1507
  193DOPC  H14S23874  -0.354   1.794  14.473 -0.4311 -0.7520 -1.3983
  193DOPC  C21523875  -0.164   1.888  14.532 -0.1301  0.2421 -0.0992
  193DOPC  H15R23876  -0.062   1.909  14.493  0.1882 -1.3384 -0.1834
  193DOPC  H15S23877  -0.154   1.802  14.603  0.6266  0.9063  0.6192
  193DOPC  C21623878  -0.223   2.009  14.612  0.2102 -0.3366 -0.6022
  193DOPC  H16R23879  -0.318   1.974  14.658  0.6159 -0.9098 -0.1845
  193DOPC  H16S23880  -0.253   2.087  14.539  2.3257  0.6044 -0.5167
  193DOPC  C21723881  -0.131   2.072  14.717  0.0027  0.1386 -0.0466
  193DOPC  H17R23882  -0.104   2.012  14.806  2.4850  2.3033  0.7524
  193DOPC  H17S23883  -0.182   2.159  14.762 -2.2220 -0.3810 -1.3678
  193DOPC  C21823884  -0.001   2.114  14.669 -0.0926  0.2008  0.0716
  193DOPC  H18R23885   0.051   2.024  14.631  0.7432  0.5585  0.3273
  193DOPC  H18S23886   0.066   2.156  14.748 -0.3279  2.5529 -0.8835
  193DOPC  H18T23887  -0.003   2.186  14.585 -1.5062  0.1352  0.0395
  193DOPC   C3323888  -0.083   2.478  13.623 -0.5172 -0.1689  0.3290
  193DOPC   H3X23889  -0.027   2.409  13.689 -0.9862 -0.4835  0.4027
  193DOPC   H3Y23890  -0.148   2.402  13.573  1.3011 -1.6005  0.0355
  193DOPC   C3423891  -0.146   2.581  13.721 -0.4357 -0.2392 -0.3259
  193DOPC   H4X23892  -0.222   2.639  13.664  0.3127  0.7092 -0.3778
  193DOPC   H4Y23893  -0.067   2.646  13.765  0.0533 -0.8847 -0.2318
  193DOPC   C3523894  -0.212   2.511  13.840 -0.6801 -0.1072 -0.3207
  193DOPC   H5X23895  -0.143   2.436  13.885 -1.3899 -0.1529  0.7407
  193DOPC   H5Y23896  -0.298   2.452  13.804 -0.8073  0.7709 -1.5228
  193DOPC   C3623897  -0.268   2.610  13.942  0.3776  0.0253  0.0471
  193DOPC   H6X23898  -0.181   2.663  13.985 -0.4470  1.6114 -0.1611
  193DOPC   H6Y23899  -0.338   2.677  13.887  0.9103  0.1728 -0.4564
  193DOPC   C3723900  -0.351   2.548  14.057 -0.2973  0.1566  0.1322
  193DOPC   H7X23901  -0.388   2.633  14.119  1.6336  0.4385  0.9712
  193DOPC   H7Y23902  -0.435   2.490  14.014  0.3148 -0.1752 -0.6538
  193DOPC   C3823903  -0.271   2.455  14.143 -0.6094  0.0598 -0.4507
  193DOPC   H8X23904  -0.169   2.496  14.163 -0.7144  0.6025 -1.0138
  193DOPC   H8Y23905  -0.254   2.370  14.074 -1.3587  0.4364 -1.1077
  193DOPC   C3923906  -0.355   2.404  14.255 -0.0271  0.0436  0.1748
  193DOPC   H9X23907  -0.462   2.389  14.232 -0.1775 -0.7488  1.2953
  193DOPC  C31023908  -0.322   2.399  14.384 -0.3591 -0.4091  0.5680
  193DOPC  H10X23909  -0.393   2.361  14.458 -0.3981  0.8621  1.2126
  193DOPC  C31123910  -0.189   2.452  14.441 -0.2622 -0.4948  0.3256
  193DOPC  H11X23911  -0.125   2.509  14.369  0.2158 -1.2972  0.0956
  193DOPC  H11Y23912  -0.126   2.370  14.481  0.9661  0.1323 -0.2578
  193DOPC  C31223913  -0.202   2.547  14.562 -0.5288 -0.4894 -0.4866
  193DOPC  H12X23914  -0.264   2.635  14.534 -2.4473 -0.4464  3.2210
  193DOPC  H12Y23915  -0.106   2.594  14.591 -1.1837 -0.6816  2.2748
  193DOPC  C31323916  -0.240   2.474  14.698 -0.3333 -0.0595  0.8432
  193DOPC  H13X23917  -0.338   2.422  14.683  0.8632 -2.2709  0.2641
  193DOPC  H13Y23918  -0.158   2.402  14.719  1.7516  1.5541 -1.2873
  193DOPC  C31423919  -0.242   2.571  14.820 -0.0336 -0.5320  0.0802
  193DOPC  H14X23920  -0.138   2.609  14.828  0.2197 -1.4310  1.3722
  193DOPC  H14Y23921  -0.296   2.667  14.808  0.1314 -0.4796 -0.2678
  193DOPC  C31523922  -0.285   2.503  14.946  0.7057 -0.2835 -0.1405
  193DOPC  H15X23923  -0.263   2.394  14.946  1.8132 -0.0813 -0.9571
  193DOPC  H15Y23924  -0.395   2.510  14.948  0.6453 -0.7057 -1.4693
  193DOPC  C31623925  -0.239   2.573  15.079 -0.2844  0.3118 -0.0045
  193DOPC  H16X23926  -0.131   2.556  15.096  0.6172  4.0754 -0.9977
  193DOPC  H16Y23927  -0.255   2.683  15.068 -0.1346  0.7181  3.0522
  193DOPC  C31723928  -0.304   2.520  15.212  0.5323 -0.2425 -0.4544
  193DOPC  H17X23929  -0.409   2.556  15.210 -0.2613 -1.4971  4.5268
  193DOPC  H17Y23930  -0.295   2.410  15.202 -0.8292 -0.2679 -1.6507
  193DOPC  C31823931  -0.234   2.582  15.328  0.2529 -0.2119 -0.3072
  193DOPC  H18X23932  -0.311   2.572  15.408 -2.5887  2.6298 -2.4316
  193DOPC  H18Y23933  -0.145   2.524  15.361 -0.1468 -0.7559 -0.1579
  193DOPC  H18Z23934  -0.201   2.687  15.315 -1.2034  0.1556 -1.3751
  194DOPC     N23935   0.947   1.856  12.602  0.2089 -0.0931  0.4458
  194DOPC   C1223936   1.079   1.890  12.656 -0.4562  0.2838  0.0575
  194DOPC  H12A23937   1.087   1.994  12.685  0.5730 -0.0177  0.9086
  194DOPC  H12B23938   1.155   1.871  12.582 -0.0417  0.6254  0.3932
  194DOPC   C1323939   0.850   1.841  12.715  0.2629 -0.0528  0.5239
  194DOPC  H13A23940   0.876   1.913  12.791 -1.2741 -1.2374  2.2621
  194DOPC  H13B23941   0.746   1.854  12.690 -0.2940 -4.5749 -0.3298
  194DOPC  H13C23942   0.857   1.745  12.764 -2.2422 -0.3296  0.4498
  194DOPC   C1423943   0.955   1.724  12.529  0.6894  0.2661  0.1695
  194DOPC  H14A23944   0.859   1.697  12.487 -0.7632  3.3335  1.2034
  194DOPC  H14B23945   1.009   1.734  12.436 -2.6212 -0.5235 -2.0022
  194DOPC  H14C23946   0.997   1.643  12.588  0.1177  0.5577  0.9958
  194DOPC   C1523947   0.903   1.965  12.511  0.7342 -1.2981  0.4121
  194DOPC  H15A23948   0.971   1.974  12.427 -0.7842 -1.2077 -0.8567
  194DOPC  H15B23949   0.907   2.060  12.561  1.9464 -1.7264  1.1851
  194DOPC  H15C23950   0.804   1.945  12.474 -0.9701 -1.2044  4.4398
  194DOPC   C1123951   1.136   1.815  12.791  0.0714 -0.1200  0.2069
  194DOPC  H11A23952   1.060   1.848  12.865 -2.9353 -0.0514 -2.6802
  194DOPC  H11B23953   1.125   1.705  12.780  2.3958 -0.3015 -0.9163
  194DOPC     P23954   1.386   1.795  12.735 -0.3877 -0.4369 -0.1169
  194DOPC   O1323955   1.494   1.890  12.702 -0.1964  0.3821 -0.1376
  194DOPC   O1423956   1.331   1.719  12.622 -0.5945 -0.5447 -0.2761
  194DOPC   O1223957   1.272   1.870  12.820  0.1038  0.2939 -0.0823
  194DOPC   O1123958   1.451   1.687  12.832 -0.3312 -0.0622 -0.0081
  194DOPC    C123959   1.390   1.664  12.963  0.5551 -0.7623  0.5998
  194DOPC    HA23960   1.417   1.558  12.983  0.0854 -0.9595  0.2107
  194DOPC    HB23961   1.280   1.671  12.968  0.6310  1.9102 -0.0318
  194DOPC    C223962   1.439   1.757  13.077  0.2665 -0.3433 -0.1942
  194DOPC    HS23963   1.412   1.862  13.053  0.9281 -0.1623 -0.1825
  194DOPC   O2123964   1.587   1.737  13.078 -0.1684  0.1088  0.3563
  194DOPC   C2123965   1.655   1.849  13.106 -0.0436  0.6644 -0.4321
  194DOPC   O2223966   1.609   1.963  13.126  0.1266  0.0606  0.1834
  194DOPC   C2223967   1.808   1.819  13.109  0.6333  0.5574 -0.7440
  194DOPC   H2R23968   1.849   1.851  13.011  0.5586  2.2546 -0.2553
  194DOPC   H2S23969   1.835   1.713  13.129 -4.6270 -1.0333 -0.5430
  194DOPC    C323970   1.364   1.725  13.216 -0.1739  0.5524  0.3537
  194DOPC    HX23971   1.385   1.618  13.237  1.0622  1.0665  1.9209
  194DOPC    HY23972   1.255   1.737  13.200 -0.2927  1.0997  1.4690
  194DOPC   O3123973   1.426   1.816  13.312  1.0316  0.3858 -0.7631
  194DOPC   C3123974   1.366   1.930  13.328 -0.0270 -0.9271  0.0554
  194DOPC   O3223975   1.264   1.965  13.273  0.1537  1.2073  0.3754
  194DOPC   C3223976   1.455   2.016  13.413  0.3515 -0.0772 -0.6453
  194DOPC   H2X23977   1.564   2.021  13.394  0.7199 -0.4059  1.1472
  194DOPC   H2Y23978   1.414   2.119  13.403 -0.8682 -0.4199  0.5377
  194DOPC   C2323979   1.879   1.904  13.213  0.4952 -0.7681 -0.4740
  194DOPC   H3R23980   1.839   1.875  13.312  2.1767  0.9744  0.7952
  194DOPC   H3S23981   1.858   2.012  13.197  1.5776 -0.0751  2.2511
  194DOPC   C2423982   2.022   1.864  13.236  0.2423 -0.1908 -0.4471
  194DOPC   H4R23983   2.086   1.900  13.153 -0.6630 -0.2728 -1.1890
  194DOPC   H4S23984   2.020   1.753  13.242 -0.9838 -0.2297 -1.3567
  194DOPC   C2523985   2.079   1.929  13.363 -0.0908  0.0125  0.2406
  194DOPC   H5R23986   2.055   2.037  13.374  0.9368  0.3393 -0.5383
  194DOPC   H5S23987   2.190   1.934  13.355 -0.0199  0.7386  1.4726
  194DOPC   C2623988   2.052   1.851  13.495 -0.6365 -0.3296  0.0835
  194DOPC   H6R23989   2.095   1.750  13.483 -0.6209 -0.5427  1.7833
  194DOPC   H6S23990   1.942   1.838  13.507 -0.6612 -1.0262 -0.8042
  194DOPC   C2723991   2.119   1.907  13.623  0.0134  0.1540 -0.2397
  194DOPC   H7R23992   2.082   2.012  13.628  4.1020  1.7358  0.0922
  194DOPC   H7S23993   2.229   1.915  13.617 -0.0783  0.5198 -2.0894
  194DOPC   C2823994   2.075   1.825  13.744  0.9454 -0.1905 -0.4533
  194DOPC   H8R23995   2.114   1.722  13.735 -0.4200 -0.9705  1.6746
  194DOPC   H8S23996   1.965   1.816  13.731  1.2740 -1.0143 -3.2481
  194DOPC   C2923997   2.116   1.884  13.872  0.4393 -0.0893 -0.5133
  194DOPC   H9R23998   2.198   1.955  13.851 -0.7539  0.8218 -2.3549
  194DOPC  C21023999   2.061   1.866  13.996 -0.9580  0.2842 -0.8769
  194DOPC  H10R24000   2.102   1.919  14.083 -1.7471 -0.3345 -0.1039
  194DOPC  C21124001   1.953   1.768  14.026 -0.4770 -0.1552  0.3668
  194DOPC  H11R24002   1.961   1.689  13.948  0.6774  0.3169 -0.0050
  194DOPC  H11S24003   1.854   1.818  14.027  0.2365  1.4229  3.4211
  194DOPC  C21224004   1.979   1.692  14.165  0.3340 -0.0116  0.1403
  194DOPC  H12R24005   1.890   1.631  14.190 -0.7524  2.0938  1.7374
  194DOPC  H12S24006   1.965   1.771  14.241 -0.7730  1.5178 -1.5785
  194DOPC  C21324007   2.109   1.608  14.177  0.6705  0.0706  0.2205
  194DOPC  H13R24008   2.193   1.675  14.147  0.5051 -0.1621 -0.8132
  194DOPC  H13S24009   2.116   1.526  14.102  0.0564  1.1828 -1.1168
  194DOPC  C21424010   2.120   1.560  14.328  0.3141  0.4497  0.0513
  194DOPC  H14R24011   2.197   1.480  14.326 -0.3253 -0.1678 -0.4402
  194DOPC  H14S24012   2.023   1.509  14.350  0.8846 -1.1435 -0.9579
  194DOPC  C21524013   2.158   1.668  14.433 -0.3861  0.5157 -0.4286
  194DOPC  H15R24014   2.072   1.737  14.447 -1.0856 -0.5131  0.5938
  194DOPC  H15S24015   2.231   1.749  14.412 -1.7900  2.2546  1.0023
  194DOPC  C21624016   2.178   1.613  14.571 -0.1630 -0.4910 -0.3592
  194DOPC  H16R24017   2.125   1.517  14.590 -1.0921 -0.0349 -0.5573
  194DOPC  H16S24018   2.125   1.687  14.636  0.2008  1.0658 -1.7593
  194DOPC  C21724019   2.324   1.609  14.619  0.2225  0.2416  0.0950
  194DOPC  H17R24020   2.375   1.708  14.619  0.6931  0.0331  2.0380
  194DOPC  H17S24021   2.373   1.551  14.537  0.9643 -0.6635  1.1520
  194DOPC  C21824022   2.342   1.551  14.758 -0.4310 -0.1470  0.3367
  194DOPC  H18R24023   2.452   1.550  14.773 -0.6045 -1.1385  1.7330
  194DOPC  H18S24024   2.286   1.455  14.762 -0.3209 -0.3553 -1.7872
  194DOPC  H18T24025   2.305   1.620  14.837  0.7534  0.6966  0.1925
  194DOPC   C3324026   1.433   1.993  13.567 -0.3330 -0.4889 -0.4841
  194DOPC   H3X24027   1.483   1.898  13.596  2.4500  0.7727 -0.8008
  194DOPC   H3Y24028   1.327   1.974  13.592 -0.1404  1.1582  1.8881
  194DOPC   C3424029   1.493   2.108  13.645 -0.8988  0.0886 -0.5371
  194DOPC   H4X24030   1.443   2.204  13.617 -3.9891 -1.1134  0.4072
  194DOPC   H4Y24031   1.599   2.118  13.613 -0.2142 -0.2778  1.4428
  194DOPC   C3524032   1.482   2.101  13.796  0.6306  0.6624 -0.9109
  194DOPC   H5X24033   1.526   2.008  13.837 -0.6736 -0.8133 -2.6825
  194DOPC   H5Y24034   1.373   2.092  13.816  1.0757 -1.3777  1.0104
  194DOPC   C3624035   1.528   2.227  13.872 -0.1835  0.4677 -0.3234
  194DOPC   H6X24036   1.637   2.221  13.894 -0.1182  1.5456 -0.2984
  194DOPC   H6Y24037   1.528   2.305  13.793  0.0942 -0.9639 -1.7946
  194DOPC   C3724038   1.438   2.257  13.993 -0.0941  0.0013 -0.4400
  194DOPC   H7X24039   1.464   2.360  14.025  1.1895 -0.3492 -0.3235
  194DOPC   H7Y24040   1.331   2.247  13.966  0.3113 -2.1240 -1.4876
  194DOPC   C3824041   1.470   2.180  14.123 -0.7972 -0.4921  0.1234
  194DOPC   H8X24042   1.411   2.222  14.208 -1.1358  1.3836 -0.9603
  194DOPC   H8Y24043   1.581   2.187  14.130 -0.8944  0.1294  1.3955
  194DOPC   C3924044   1.424   2.041  14.117  0.5860  0.5688  0.2499
  194DOPC   H9X24045   1.382   2.019  14.018 -0.0428  0.8908  0.4385
  194DOPC  C31024046   1.435   1.934  14.205  1.1245  0.3787  0.1891
  194DOPC  H10X24047   1.401   1.832  14.182 -0.2790  1.1894 -1.5596
  194DOPC  C31124048   1.475   1.961  14.344 -0.0160  0.1097 -0.3787
  194DOPC  H11X24049   1.428   1.893  14.418  2.1818 -2.0674 -0.8280
  194DOPC  H11Y24050   1.472   2.068  14.374  0.0776 -0.1969  0.7995
  194DOPC  C31224051   1.619   1.920  14.350 -0.9729  0.1750  0.1913
  194DOPC  H12X24052   1.684   1.976  14.279 -0.4228 -2.8864 -1.9290
  194DOPC  H12Y24053   1.626   1.812  14.325  1.3257  0.5081 -0.9141
  194DOPC  C31324054   1.687   1.943  14.493 -0.0797 -0.2331  0.0115
  194DOPC  H13X24055   1.688   2.053  14.509 -1.5139 -0.5766  3.1695
  194DOPC  H13Y24056   1.631   1.891  14.574 -1.3545 -0.1847 -0.8060
  194DOPC  C31424057   1.829   1.888  14.505  0.2033  0.1173  0.6000
  194DOPC  H14X24058   1.813   1.779  14.493  0.8705 -0.0503  1.1829
  194DOPC  H14Y24059   1.888   1.926  14.418 -3.0832 -0.1665 -1.9297
  194DOPC  C31524060   1.893   1.908  14.643 -0.2332  0.3415  0.4891
  194DOPC  H15X24061   1.882   2.015  14.671  1.4644  0.0133  2.6868
  194DOPC  H15Y24062   2.002   1.885  14.636 -0.3434  0.0292 -0.3588
  194DOPC  C31624063   1.830   1.821  14.751  0.0503  0.3751 -0.1655
  194DOPC  H16X24064   1.722   1.843  14.766 -0.4717  1.1324 -3.9083
  194DOPC  H16Y24065   1.835   1.712  14.734  0.0031  0.5762 -1.6088
  194DOPC  C31724066   1.893   1.856  14.889  0.0803  0.6916 -0.1795
  194DOPC  H17X24067   1.998   1.819  14.892 -0.2400 -0.2934 -0.5908
  194DOPC  H17Y24068   1.905   1.963  14.917  2.9945  0.1378  1.1444
  194DOPC  C31824069   1.819   1.791  14.999 -0.0940  0.1437 -0.0669
  194DOPC  H18X24070   1.819   1.681  14.984 -1.1629  0.0352  0.6045
  194DOPC  H18Y24071   1.882   1.807  15.089  0.5292  1.1737 -0.6652
  194DOPC  H18Z24072   1.712   1.816  15.014 -0.0034 -0.0727  1.0196
  195DOPC     N24073   5.375   2.322  12.615 -0.7313  0.4301  0.1453
  195DOPC   C1224074   5.493   2.257  12.543  0.3657  0.6112  0.3584
  195DOPC  H12A24075   5.533   2.320  12.464 -0.1491  2.2001  1.3222
  195DOPC  H12B24076   5.447   2.168  12.502 -2.4620  1.6380  1.0621
  195DOPC   C1324077   5.314   2.216  12.707 -0.0043 -0.7805  0.4267
  195DOPC  H13A24078   5.261   2.142  12.649  0.8879 -1.5644  0.5708
  195DOPC  H13B24079   5.398   2.156  12.740  0.7191  0.1933  0.4005
  195DOPC  H13C24080   5.253   2.261  12.784  0.8421  1.8444 -0.3323
  195DOPC   C1424081   5.276   2.364  12.516  0.1990  0.4884 -0.6771
  195DOPC  H14A24082   5.187   2.389  12.573  2.1984  1.7200  2.1429
  195DOPC  H14B24083   5.310   2.444  12.452  0.7710  0.0419 -0.9369
  195DOPC  H14C24084   5.241   2.285  12.451 -0.3418 -1.5523  1.8811
  195DOPC   C1524085   5.417   2.437  12.700 -0.8296  0.2187 -0.5931
  195DOPC  H15A24086   5.335   2.474  12.760 -1.3220  0.5262 -1.4336
  195DOPC  H15B24087   5.465   2.514  12.643 -1.5755  0.6800 -0.6139
  195DOPC  H15C24088   5.503   2.408  12.759  0.8941  0.6956 -2.7547
  195DOPC   C1124089   5.623   2.225  12.627 -0.3419  0.3164  0.1719
  195DOPC  H11A24090   5.691   2.182  12.551  0.3787  1.7592 -0.0370
  195DOPC  H11B24091   5.681   2.318  12.646  3.5011 -1.1133 -3.1914
  195DOPC     P24092   5.682   2.145  12.867  0.0841  0.0775  0.2047
  195DOPC   O1324093   5.720   2.285  12.895 -0.2026 -0.4309  0.0344
  195DOPC   O1424094   5.792   2.044  12.851  0.7049  0.4065 -0.2020
  195DOPC   O1224095   5.598   2.132  12.733  0.0953 -0.3949 -0.2021
  195DOPC   O1124096   5.565   2.102  12.970  0.2867 -0.0334  0.0765
  195DOPC    C124097   5.547   1.968  12.996  0.4294 -0.0979 -0.1786
  195DOPC    HA24098   5.605   1.897  12.934 -2.1862 -1.3232 -1.3723
  195DOPC    HB24099   5.440   1.946  12.976  0.3673  0.4692 -0.5057
  195DOPC    C224100   5.580   1.935  13.147  0.2514  0.1952  0.1227
  195DOPC    HS24101   5.518   2.004  13.208 -0.1668 -1.6519  1.9009
  195DOPC   O2124102   5.721   1.951  13.173  0.9267  0.3421  0.1216
  195DOPC   C2124103   5.756   2.056  13.253  0.1064  0.4359  0.3887
  195DOPC   O2224104   5.676   2.123  13.309  0.1026  0.4833  0.0151
  195DOPC   C2224105   5.906   2.040  13.279 -0.0008 -0.3123  0.0418
  195DOPC   H2R24106   5.970   2.074  13.195 -0.1927  0.4512  0.1954
  195DOPC   H2S24107   5.933   1.933  13.296 -1.2156 -0.4303  1.4267
  195DOPC    C324108   5.527   1.799  13.183  0.0179 -0.5004 -0.4844
  195DOPC    HX24109   5.595   1.730  13.130  1.9800 -0.3218  1.6709
  195DOPC    HY24110   5.421   1.796  13.148 -0.2753  1.5980  0.0999
  195DOPC   O3124111   5.531   1.768  13.331  0.0075  0.0281 -0.5629
  195DOPC   C3124112   5.413   1.764  13.389  0.0353  0.0700 -0.3139
  195DOPC   O3224113   5.306   1.747  13.337  0.5359 -0.5493  0.4953
  195DOPC   C3224114   5.431   1.762  13.544 -0.0160  0.3088 -0.1936
  195DOPC   H2X24115   5.481   1.666  13.569  3.1562  2.1865  1.2354
  195DOPC   H2Y24116   5.493   1.851  13.567 -0.5687  0.5336  0.4770
  195DOPC   C2324117   5.939   2.123  13.400 -0.5046  0.9887  0.2496
  195DOPC   H3R24118   5.892   2.224  13.405 -0.2277  1.3120 -2.3284
  195DOPC   H3S24119   6.047   2.148  13.403 -0.4741  0.8603  0.2646
  195DOPC   C2424120   5.890   2.038  13.521 -0.1838  0.3991 -0.0606
  195DOPC   H4R24121   5.924   1.933  13.523 -1.9402 -0.2743 -1.8779
  195DOPC   H4S24122   5.779   2.040  13.515 -0.2556 -1.5306  0.1663
  195DOPC   C2524123   5.922   2.113  13.652  0.0370  0.2404 -0.5439
  195DOPC   H5R24124   5.850   2.086  13.732  2.1791  1.2539  1.8512
  195DOPC   H5S24125   5.906   2.223  13.641  0.8701  0.8422  3.0067
  195DOPC   C2624126   6.060   2.089  13.703  0.3504 -0.4632  0.3506
  195DOPC   H6R24127   6.129   2.114  13.620  0.5026 -0.0009  0.6084
  195DOPC   H6S24128   6.072   1.984  13.735  0.3089 -0.3118  0.8817
  195DOPC   C2724129   6.093   2.178  13.818 -0.2780 -0.3328 -0.4337
  195DOPC   H7R24130   6.095   2.286  13.794 -1.7722 -0.6627 -2.2600
  195DOPC   H7S24131   6.197   2.149  13.846  0.3025 -0.6950 -2.7929
  195DOPC   C2824132   6.002   2.168  13.943 -0.6711  0.0357  0.6507
  195DOPC   H8R24133   5.902   2.187  13.898 -0.0462  1.0759 -0.3642
  195DOPC   H8S24134   6.020   2.254  14.011  0.0234 -0.9461  1.7486
  195DOPC   C2924135   6.019   2.033  14.013  0.2673 -0.0712 -0.0255
  195DOPC   H9R24136   5.997   1.942  13.955 -2.3574 -0.7576  1.8645
  195DOPC  C21024137   6.067   2.006  14.139  0.2530 -0.0549  0.1376
  195DOPC  H10R24138   6.061   1.902  14.174 -1.4480 -0.6418 -1.6925
  195DOPC  C21124139   6.100   2.113  14.241 -0.2579 -0.4997 -0.3706
  195DOPC  H11R24140   6.046   2.209  14.227 -0.2671 -0.6380 -1.3399
  195DOPC  H11S24141   6.207   2.144  14.240 -1.0659  2.5711 -0.6147
  195DOPC  C21224142   6.060   2.056  14.378 -0.1814 -0.3495 -0.3398
  195DOPC  H12R24143   6.091   1.951  14.395 -1.8744 -0.9943 -1.0242
  195DOPC  H12S24144   5.949   2.054  14.385 -0.1777  0.7430  0.2753
  195DOPC  C21324145   6.122   2.130  14.493  0.7929  0.6101 -0.2049
  195DOPC  H13R24146   6.084   2.234  14.505 -0.0272  0.0524  2.6666
  195DOPC  H13S24147   6.226   2.145  14.455 -0.6486  2.9972 -3.7956
  195DOPC  C21424148   6.112   2.074  14.637 -0.0828 -0.1586 -0.3083
  195DOPC  H14R24149   6.157   1.972  14.633  4.1813  1.5041  0.2258
  195DOPC  H14S24150   6.003   2.062  14.656 -0.4498  2.1537 -0.7166
  195DOPC  C21524151   6.184   2.163  14.730 -0.4975 -0.0864 -0.3359
  195DOPC  H15R24152   6.139   2.264  14.735 -2.9801 -1.1132 -0.3025
  195DOPC  H15S24153   6.289   2.171  14.695  0.9326 -3.0355  2.6311
  195DOPC  C21624154   6.195   2.091  14.864  0.0250  0.2835  0.5914
  195DOPC  H16R24155   6.227   1.985  14.860  1.7102  0.6251  2.8756
  195DOPC  H16S24156   6.091   2.088  14.904 -1.3119 -2.8766 -2.6297
  195DOPC  C21724157   6.297   2.166  14.960  0.4293  0.0309 -0.0291
  195DOPC  H17R24158   6.260   2.271  14.956 -0.3049 -0.2475 -0.7939
  195DOPC  H17S24159   6.405   2.174  14.937  0.6011  1.2401  1.0125
  195DOPC  C21824160   6.285   2.114  15.104  0.1658  0.2577  0.2542
  195DOPC  H18R24161   6.181   2.091  15.137  0.3702 -0.6829  0.2913
  195DOPC  H18S24162   6.334   2.184  15.175  1.2385 -1.9193  1.7973
  195DOPC  H18T24163   6.323   2.010  15.116 -0.3262  0.1464  0.9682
  195DOPC   C3324164   5.295   1.748  13.602  0.5628  0.2534  0.1992
  195DOPC   H3X24165   5.235   1.663  13.564 -0.9975 -0.2897  3.4531
  195DOPC   H3Y24166   5.229   1.835  13.581  1.3788  0.9094  0.3210
  195DOPC   C3424167   5.297   1.722  13.759  0.2304 -1.1555 -0.1205
  195DOPC   H4X24168   5.373   1.790  13.803  0.0827 -0.7970 -0.4109
  195DOPC   H4Y24169   5.319   1.615  13.779 -1.8213 -1.7565 -0.8659
  195DOPC   C3524170   5.165   1.754  13.832 -0.2270  0.3652 -0.0440
  195DOPC   H5X24171   5.091   1.695  13.774 -0.5176 -0.1617  0.8481
  195DOPC   H5Y24172   5.134   1.860  13.819 -1.2354  0.3912  2.1943
  195DOPC   C3624173   5.164   1.703  13.972  1.0476 -0.3779 -0.1488
  195DOPC   H6X24174   5.059   1.692  14.005  1.0104  0.9008  0.2059
  195DOPC   H6Y24175   5.215   1.606  13.993  1.5229  0.3294  2.3889
  195DOPC   C3724176   5.215   1.810  14.074  0.0525  0.6155  1.8107
  195DOPC   H7X24177   5.323   1.828  14.054  0.1470  1.6890  3.1804
  195DOPC   H7Y24178   5.163   1.904  14.044 -0.6386 -0.0287  0.8997
  195DOPC   C3824179   5.185   1.771  14.220 -0.6453  0.0886  0.1983
  195DOPC   H8X24180   5.075   1.780  14.232 -1.0446 -0.6204 -2.3603
  195DOPC   H8Y24181   5.228   1.851  14.284 -3.0518 -0.5819  2.8615
  195DOPC   C3924182   5.219   1.634  14.274  0.2213  0.4884  0.2488
  195DOPC   H9X24183   5.146   1.554  14.260  1.7606 -1.4480  2.5454
  195DOPC  C31024184   5.333   1.602  14.343 -0.4375  0.3776  0.0764
  195DOPC  H10X24185   5.323   1.505  14.395  0.0642  1.2419  1.8845
  195DOPC  C31124186   5.443   1.695  14.381 -0.2535  0.4314 -0.0411
  195DOPC  H11X24187   5.428   1.796  14.335 -0.8755 -0.6428 -2.3740
  195DOPC  H11Y24188   5.526   1.645  14.325  2.3770  1.0629  2.9911
  195DOPC  C31224189   5.473   1.688  14.532  0.4580  0.3168  0.1497
  195DOPC  H12X24190   5.570   1.739  14.550 -0.5124  1.9994  0.7773
  195DOPC  H12Y24191   5.485   1.581  14.559  0.9364  0.6307  1.2365
  195DOPC  C31324192   5.352   1.751  14.610  0.0530  0.6346 -0.6077
  195DOPC  H13X24193   5.330   1.852  14.567  0.2467  1.0071  0.1637
  195DOPC  H13Y24194   5.258   1.694  14.597  0.8298 -0.9492  0.5322
  195DOPC  C31424195   5.390   1.758  14.757 -0.3784  0.4128 -0.1484
  195DOPC  H14X24196   5.298   1.768  14.818 -0.5234 -0.1604 -0.2697
  195DOPC  H14Y24197   5.435   1.664  14.794  1.6545  0.8700 -1.2669
  195DOPC  C31524198   5.471   1.879  14.796 -0.8813  0.2529  0.4063
  195DOPC  H15X24199   5.415   1.970  14.766  0.9640  1.7864  1.4197
  195DOPC  H15Y24200   5.569   1.883  14.744 -0.7954  0.5749  0.5933
  195DOPC  C31624201   5.503   1.902  14.947  0.1193  0.0335 -0.3830
  195DOPC  H16X24202   5.398   1.910  14.984 -0.7561  0.1133 -2.7127
  195DOPC  H16Y24203   5.559   1.821  14.998  0.7085  0.3120 -0.5765
  195DOPC  C31724204   5.582   2.027  14.968  0.0743  1.1017  0.0196
  195DOPC  H17X24205   5.691   2.006  14.955 -0.1886 -0.1913 -0.2282
  195DOPC  H17Y24206   5.562   2.104  14.890  0.5562  1.1983 -0.0132
  195DOPC  C31824207   5.564   2.100  15.100 -0.1092 -0.0215 -0.7065
  195DOPC  H18X24208   5.622   2.194  15.101 -0.5992  0.3553 -2.6473
  195DOPC  H18Y24209   5.458   2.119  15.125  0.6220  0.6413  2.3058
  195DOPC  H18Z24210   5.597   2.037  15.186 -0.2887  0.8060 -0.0262
  196DOPC     N24211   0.899   3.008  12.648  0.2101  0.3019  0.0115
  196DOPC   C1224212   0.908   3.159  12.669 -0.8173  0.4005  0.3113
  196DOPC  H12A24213   0.842   3.213  12.603  2.4188  1.9735 -1.8933
  196DOPC  H12B24214   1.000   3.200  12.632 -0.6065 -0.9402 -0.7611
  196DOPC   C1324215   0.884   2.984  12.501  0.2039 -0.5967  0.7329
  196DOPC  H13A24216   0.969   3.032  12.456 -0.2804  0.5739  1.0382
  196DOPC  H13B24217   0.880   2.877  12.487 -1.0029 -0.3911 -0.7527
  196DOPC  H13C24218   0.791   3.033  12.475 -0.0332 -1.5085 -0.1835
  196DOPC   C1424219   0.785   2.947  12.724 -0.4425  0.7462 -0.2871
  196DOPC  H14A24220   0.798   2.954  12.831  1.6861  0.2082 -0.4504
  196DOPC  H14B24221   0.700   3.008  12.697 -0.4014  1.4120  1.0275
  196DOPC  H14C24222   0.764   2.844  12.698  1.1166  0.4923 -0.6816
  196DOPC   C1524223   1.032   2.956  12.701 -0.2788 -0.0690 -0.6497
  196DOPC  H15A24224   1.024   2.849  12.712 -0.3014 -0.1845 -1.7213
  196DOPC  H15B24225   1.069   2.998  12.794  4.2080  0.2818 -2.3635
  196DOPC  H15C24226   1.116   2.970  12.634  0.7513 -2.6958 -0.0176
  196DOPC   C1124227   0.893   3.221  12.814  0.8185  0.2903  0.6779
  196DOPC  H11A24228   0.963   3.162  12.876  1.0037  0.5569  0.7238
  196DOPC  H11B24229   0.931   3.325  12.807 -0.4100  0.7055 -0.2670
  196DOPC     P24230   0.715   3.281  12.999 -0.2936  0.4249 -0.0461
  196DOPC   O1324231   0.593   3.227  13.052  0.4509 -0.7122  0.4717
  196DOPC   O1424232   0.726   3.423  12.997 -0.1130 -0.2960  0.8457
  196DOPC   O1224233   0.750   3.212  12.859 -0.2389  0.7455 -0.5839
  196DOPC   O1124234   0.840   3.226  13.088  0.3609  0.1087  0.1368
  196DOPC    C124235   0.848   3.091  13.126 -0.1485  0.0736 -0.1260
  196DOPC    HA24236   0.879   3.031  13.039 -1.2279 -0.0747 -0.4247
  196DOPC    HB24237   0.753   3.043  13.160  1.0374 -1.3009  1.4186
  196DOPC    C224238   0.940   3.067  13.248  0.4425 -0.2672  0.4497
  196DOPC    HS24239   0.931   2.960  13.276  0.7687 -0.3347  0.3009
  196DOPC   O2124240   0.914   3.147  13.362 -0.1797 -0.0679 -0.3526
  196DOPC   C2124241   0.807   3.105  13.428 -0.4426 -0.4686 -0.8438
  196DOPC   O2224242   0.718   3.032  13.391  0.3092  0.4086  0.0973
  196DOPC   C2224243   0.811   3.163  13.567  0.0760  0.0200 -0.4044
  196DOPC   H2R24244   0.790   3.272  13.562 -1.0949  0.1751  3.7639
  196DOPC   H2S24245   0.911   3.160  13.616  0.1086  1.0792 -0.3850
  196DOPC    C324246   1.085   3.097  13.199 -0.7438 -0.0008 -0.0376
  196DOPC    HX24247   1.070   3.186  13.134  0.1030  0.6294  0.5978
  196DOPC    HY24248   1.118   3.019  13.128 -4.1689  0.4541 -2.3626
  196DOPC   O3124249   1.181   3.110  13.308 -0.4328 -0.1398  0.7143
  196DOPC   C3124250   1.193   3.233  13.362  0.1464  1.1498 -0.0034
  196DOPC   O3224251   1.126   3.328  13.333  0.0946 -0.0236 -0.3927
  196DOPC   C3224252   1.313   3.242  13.446  0.0662  0.1930  0.5046
  196DOPC   H2X24253   1.388   3.181  13.392 -0.5541 -0.4822  0.3991
  196DOPC   H2Y24254   1.339   3.348  13.424  0.8365  0.4200  2.2900
  196DOPC   C2324255   0.716   3.093  13.665  0.5740  0.7997 -0.2730
  196DOPC   H3R24256   0.726   2.983  13.658 -0.9260  0.5038  1.4102
  196DOPC   H3S24257   0.610   3.116  13.640 -0.8457  0.6884  4.5885
  196DOPC   C2424258   0.743   3.131  13.814 -0.1116  0.0017 -0.2740
  196DOPC   H4R24259   0.786   3.233  13.816  0.3150 -0.1830  0.6447
  196DOPC   H4S24260   0.819   3.064  13.860  0.2971  0.5070 -0.2022
  196DOPC   C2524261   0.614   3.123  13.899 -0.5038 -0.0088 -1.1950
  196DOPC   H5R24262   0.593   3.014  13.894 -0.3787 -0.1938  1.0468
  196DOPC   H5S24263   0.524   3.175  13.859 -2.1874 -0.4436  1.6980
  196DOPC   C2624264   0.629   3.149  14.055 -0.0359  0.0982 -0.0798
  196DOPC   H6R24265   0.729   3.121  14.094 -0.5843 -0.3311  1.0647
  196DOPC   H6S24266   0.550   3.091  14.108  2.0067 -2.3533  0.4932
  196DOPC   C2724267   0.582   3.292  14.090 -0.0213 -0.3924 -0.3923
  196DOPC   H7R24268   0.472   3.300  14.079 -0.0098  1.6186  0.6119
  196DOPC   H7S24269   0.618   3.358  14.008 -0.8354 -0.9644 -1.2408
  196DOPC   C2824270   0.618   3.336  14.232  0.8982  0.6703 -0.0503
  196DOPC   H8R24271   0.727   3.335  14.256  0.3559 -0.5323  2.7801
  196DOPC   H8S24272   0.582   3.262  14.307 -0.8750  1.3290 -0.2183
  196DOPC   C2924273   0.551   3.465  14.264  0.4693  0.3775  0.1698
  196DOPC   H9R24274   0.584   3.550  14.203  1.6374  0.3499  0.7342
  196DOPC  C21024275   0.453   3.485  14.360  0.2960  0.5130  0.0122
  196DOPC  H10R24276   0.416   3.588  14.370 -1.5796  0.1451 -2.1348
  196DOPC  C21124277   0.379   3.388  14.455 -0.6082  0.1179  0.7782
  196DOPC  H11R24278   0.385   3.288  14.406  0.4678 -0.6856  2.4863
  196DOPC  H11S24279   0.273   3.420  14.471 -0.9888 -0.4783 -0.3971
  196DOPC  C21224280   0.443   3.377  14.599  0.2157  0.0021  0.5847
  196DOPC  H12R24281   0.444   3.474  14.653  1.6162  0.0760  0.4632
  196DOPC  H12S24282   0.551   3.358  14.586 -0.0424 -0.8131 -0.4057
  196DOPC  C21324283   0.376   3.266  14.682 -0.1837  0.7721 -0.1558
  196DOPC  H13R24284   0.397   3.171  14.628 -0.9025  0.7054 -0.3250
  196DOPC  H13S24285   0.266   3.273  14.676 -0.2914 -1.1753 -1.8857
  196DOPC  C21424286   0.432   3.252  14.825  1.0665 -0.8702 -0.2076
  196DOPC  H14R24287   0.411   3.348  14.877 -0.3445 -1.1084 -0.2987
  196DOPC  H14S24288   0.541   3.235  14.810  1.3114  0.2253  0.1593
  196DOPC  C21524289   0.363   3.137  14.903  0.2513  0.5126  0.8482
  196DOPC  H15R24290   0.374   3.040  14.850 -0.2768  1.7797 -1.7296
  196DOPC  H15S24291   0.256   3.164  14.916 -0.3105 -1.1342 -0.0659
  196DOPC  C21624292   0.438   3.115  15.035  0.0971 -0.1029 -0.2229
  196DOPC  H16R24293   0.542   3.088  15.003 -0.2036  0.4584 -1.7736
  196DOPC  H16S24294   0.395   3.034  15.098  0.5353  0.4281  0.7806
  196DOPC  C21724295   0.448   3.235  15.133  0.2313 -0.4538 -0.1599
  196DOPC  H17R24296   0.350   3.278  15.164 -0.4076 -0.7860 -1.6300
  196DOPC  H17S24297   0.495   3.319  15.079 -1.0641 -0.4259 -1.3041
  196DOPC  C21824298   0.531   3.201  15.256 -0.1998  0.1744  0.7293
  196DOPC  H18R24299   0.471   3.133  15.319 -0.3210 -0.3292  0.0858
  196DOPC  H18S24300   0.566   3.292  15.310 -0.8802  0.4079  0.7911
  196DOPC  H18T24301   0.625   3.150  15.227 -0.2736 -0.1206  1.0108
  196DOPC   C3324302   1.308   3.253  13.604  0.0855 -0.8179  0.0813
  196DOPC   H3X24303   1.270   3.354  13.631  0.1263 -0.6769 -0.3803
  196DOPC   H3Y24304   1.415   3.246  13.633  0.3096 -2.4918 -0.9750
  196DOPC   C3424305   1.229   3.145  13.685 -0.4770  0.5407  0.2332
  196DOPC   H4X24306   1.230   3.064  13.609  0.7601  0.7807 -0.0279
  196DOPC   H4Y24307   1.125   3.178  13.705 -0.6483  1.2443 -1.6043
  196DOPC   C3524308   1.309   3.079  13.803  0.7802 -0.6019  0.0677
  196DOPC   H5X24309   1.406   3.064  13.753  1.2558  2.1087 -0.0151
  196DOPC   H5Y24310   1.268   2.980  13.832  1.6487 -0.7154  0.9576
  196DOPC   C3624311   1.329   3.169  13.928  0.6092 -0.2936  0.2176
  196DOPC   H6X24312   1.413   3.124  13.985  4.3585  1.0251 -3.7041
  196DOPC   H6Y24313   1.366   3.270  13.903  0.8673 -0.4618 -0.0921
  196DOPC   C3724314   1.197   3.184  14.018 -0.3355  0.4484  0.0941
  196DOPC   H7X24315   1.235   3.263  14.087 -1.4470  1.1275 -0.0491
  196DOPC   H7Y24316   1.107   3.220  13.964 -1.3803  1.7909  2.5756
  196DOPC   C3824317   1.165   3.067  14.110 -0.4202 -0.1525  0.4228
  196DOPC   H8X24318   1.259   3.023  14.151 -0.3814 -1.6834 -1.1892
  196DOPC   H8Y24319   1.137   2.996  14.029  0.8912  1.3101 -1.4065
  196DOPC   C3924320   1.053   3.080  14.209 -0.2757 -0.2076 -0.1424
  196DOPC   H9X24321   0.963   3.122  14.162  0.7204 -0.4451 -2.4169
  196DOPC  C31024322   1.050   3.063  14.344  0.2831 -0.3704  0.1830
  196DOPC  H10X24323   0.951   3.072  14.389  0.0771  1.6853 -0.5710
  196DOPC  C31124324   1.169   3.032  14.430 -0.1524  0.0652  0.3357
  196DOPC  H11X24325   1.227   3.127  14.436  1.6782 -0.9872 -0.0009
  196DOPC  H11Y24326   1.229   2.961  14.369 -1.2785  0.1124 -0.8793
  196DOPC  C31224327   1.110   2.976  14.558  0.2482 -0.0877 -0.4265
  196DOPC  H12X24328   1.042   2.892  14.532 -0.4864  0.7969 -1.4595
  196DOPC  H12Y24329   1.057   3.063  14.603 -0.3492 -0.4808 -0.3527
  196DOPC  C31324330   1.214   2.917  14.655  0.7012  0.0216  0.4582
  196DOPC  H13X24331   1.163   2.856  14.733  1.4822 -0.3018  0.7252
  196DOPC  H13Y24332   1.276   2.849  14.592 -1.0571 -1.8275  0.6168
  196DOPC  C31424333   1.307   3.011  14.722 -0.6883 -0.0432  0.0600
  196DOPC  H14X24334   1.364   3.067  14.645  0.2117 -2.1249 -0.8374
  196DOPC  H14Y24335   1.240   3.087  14.770  0.1833  0.2377  0.8636
  196DOPC  C31524336   1.395   2.940  14.832  0.3978  0.1022  0.0851
  196DOPC  H15X24337   1.468   2.879  14.773 -1.2073 -1.0198 -0.8336
  196DOPC  H15Y24338   1.337   2.868  14.894  0.9224  0.4474  0.9928
  196DOPC  C31624339   1.480   3.053  14.901  0.0663 -0.3950 -0.1484
  196DOPC  H16X24340   1.573   3.008  14.942  1.4968  2.6305  0.2728
  196DOPC  H16Y24341   1.513   3.139  14.839  3.0332 -1.0204  0.3897
  196DOPC  C31724342   1.415   3.111  15.034 -0.4883  0.0577 -0.6519
  196DOPC  H17X24343   1.344   3.034  15.070  0.8426 -1.6024 -1.4312
  196DOPC  H17Y24344   1.494   3.118  15.111 -0.9872 -0.5291 -0.0769
  196DOPC  C31824345   1.343   3.242  15.009  0.0183 -0.4625  0.4092
  196DOPC  H18X24346   1.267   3.267  15.087 -0.3827  2.6687 -0.8729
  196DOPC  H18Y24347   1.408   3.331  15.012 -0.5694 -0.0188  0.1979
  196DOPC  H18Z24348   1.294   3.243  14.910 -1.3753  1.0310  1.0667
  197DOPC     N24349   1.644   0.488  12.282  0.3221  0.2882  0.0536
  197DOPC   C1224350   1.535   0.396  12.333 -0.5365  0.4187  0.7447
  197DOPC  H12A24351   1.449   0.393  12.268 -1.2433  0.9101  1.6226
  197DOPC  H12B24352   1.487   0.431  12.424  1.6888  1.5113  1.5712
  197DOPC   C1324353   1.727   0.435  12.176  0.8171  0.4287 -0.4685
  197DOPC  H13A24354   1.753   0.337  12.212 -0.1409  1.0423  2.1208
  197DOPC  H13B24355   1.670   0.430  12.084 -0.4451 -2.4402  0.3561
  197DOPC  H13C24356   1.820   0.489  12.175  1.5640 -0.8367 -0.9278
  197DOPC   C1424357   1.737   0.522  12.399 -0.1756 -0.5727 -0.0443
  197DOPC  H14A24358   1.690   0.571  12.484 -1.4556  0.3347 -1.2357
  197DOPC  H14B24359   1.778   0.431  12.442  2.4049  0.1296 -0.8460
  197DOPC  H14C24360   1.821   0.577  12.361 -1.1828  0.4214 -0.8961
  197DOPC   C1524361   1.578   0.615  12.235 -0.8349 -0.2465  0.6490
  197DOPC  H15A24362   1.511   0.587  12.156 -1.2818 -1.4383  1.4157
  197DOPC  H15B24363   1.653   0.685  12.200 -0.9360 -0.7469 -0.6110
  197DOPC  H15C24364   1.514   0.663  12.307 -0.6433  1.0636 -0.0204
  197DOPC   C1124365   1.573   0.247  12.368  0.3662 -0.7151 -0.3188
  197DOPC  H11A24366   1.599   0.183  12.281  0.6472  1.6726 -2.0916
  197DOPC  H11B24367   1.663   0.237  12.432 -0.9232  0.3762  1.7732
  197DOPC     P24368   1.424   0.235  12.581 -0.4787 -0.1667 -0.4120
  197DOPC   O1324369   1.345   0.129  12.647 -0.0715 -0.2963  0.2042
  197DOPC   O1424370   1.354   0.367  12.572  0.0431 -0.0585  0.1014
  197DOPC   O1224371   1.464   0.189  12.437  0.0056  0.5289 -0.1583
  197DOPC   O1124372   1.553   0.254  12.668  0.4406 -0.7819  0.5038
  197DOPC    C124373   1.658   0.155  12.684 -0.1352 -0.5501  0.2752
  197DOPC    HA24374   1.750   0.195  12.636 -0.9032  0.7652 -0.1381
  197DOPC    HB24375   1.647   0.065  12.620 -1.2412 -0.3357  0.1413
  197DOPC    C224376   1.694   0.126  12.840  0.2922  0.4494  0.4239
  197DOPC    HS24377   1.597   0.127  12.894  1.4296 -1.0705  2.6393
  197DOPC   O2124378   1.789   0.215  12.884 -0.1011 -0.1974 -0.5893
  197DOPC   C2124379   1.753   0.302  12.977  0.2579 -0.0718  0.3952
  197DOPC   O2224380   1.634   0.317  13.011  0.0710 -0.2973  0.1338
  197DOPC   C2224381   1.877   0.372  13.028 -0.1343 -0.4090 -0.3644
  197DOPC   H2R24382   1.884   0.474  12.984  1.9137  0.5144  1.9174
  197DOPC   H2S24383   1.964   0.314  12.990 -1.3948 -1.3328 -1.9978
  197DOPC    C324384   1.750  -0.018  12.848 -0.7883 -0.2498 -0.7723
  197DOPC    HX24385   1.823  -0.022  12.764 -0.5704  1.8962 -0.7533
  197DOPC    HY24386   1.665  -0.083  12.821  0.3958 -2.0679 -0.2926
  197DOPC   O3124387   1.811  -0.048  12.976 -0.0522 -0.4629  0.3527
  197DOPC   C3124388   1.736  -0.118  13.058  0.8531 -0.1291 -0.1785
  197DOPC   O3224389   1.617  -0.147  13.035  0.2939 -0.1866  0.4359
  197DOPC   C3224390   1.811  -0.167  13.182  1.0050 -0.5022 -0.3869
  197DOPC   H2X24391   1.763  -0.264  13.209  1.1140 -0.4452  0.0121
  197DOPC   H2Y24392   1.918  -0.187  13.162  1.3424  1.3771 -0.6939
  197DOPC   C2324393   1.860   0.386  13.181 -0.8474 -0.1489 -0.2282
  197DOPC   H3R24394   1.849   0.285  13.226  2.9566 -0.1643  1.0891
  197DOPC   H3S24395   1.774   0.452  13.202  1.9015  3.8261 -0.3043
  197DOPC   C2424396   1.981   0.455  13.245 -0.3075  0.1500  0.9053
  197DOPC   H4R24397   1.998   0.552  13.194  0.2662 -0.7116 -0.6226
  197DOPC   H4S24398   2.074   0.398  13.223 -0.1448  1.2328 -1.5110
  197DOPC   C2524399   1.969   0.490  13.397  0.1226  0.0455 -0.1720
  197DOPC   H5R24400   1.863   0.493  13.432  0.4022 -1.3783  0.8971
  197DOPC   H5S24401   2.023   0.586  13.413 -1.3901  0.7497  0.9763
  197DOPC   C2624402   2.027   0.389  13.489  0.4233 -0.2013 -0.1978
  197DOPC   H6R24403   2.136   0.399  13.471  0.2916  0.1525 -0.8311
  197DOPC   H6S24404   1.984   0.294  13.452 -2.0482  0.3622  0.9660
  197DOPC   C2724405   2.011   0.433  13.638  0.5404 -0.1670 -0.1104
  197DOPC   H7R24406   1.907   0.411  13.670 -0.1655  1.2319 -1.3209
  197DOPC   H7S24407   2.013   0.544  13.639 -1.8695 -0.0413  2.3451
  197DOPC   C2824408   2.114   0.375  13.733 -0.6350 -1.2421  0.4988
  197DOPC   H8R24409   2.156   0.461  13.790  0.1758  0.3342 -2.3252
  197DOPC   H8S24410   2.201   0.345  13.672 -2.1378 -0.5016 -2.1424
  197DOPC   C2924411   2.066   0.260  13.815 -0.0202 -0.1594  0.1281
  197DOPC   H9R24412   2.046   0.171  13.752 -0.8031  0.5456 -0.6498
  197DOPC  C21024413   2.028   0.269  13.944  0.6163  0.1507 -0.1922
  197DOPC  H10R24414   2.004   0.177  14.000  1.8804  0.7219  1.3787
  197DOPC  C21124415   2.045   0.392  14.032  0.2492  0.5651  0.5063
  197DOPC  H11R24416   2.038   0.483  13.967 -1.2326  1.3872  1.7371
  197DOPC  H11S24417   2.140   0.385  14.089  1.2049 -1.2771 -1.1896
  197DOPC  C21224418   1.929   0.405  14.136  0.0417 -0.9290  0.0470
  197DOPC  H12R24419   1.833   0.418  14.080 -0.6936 -0.4375  1.3775
  197DOPC  H12S24420   1.947   0.497  14.196 -2.5839 -0.2842 -0.0196
  197DOPC  C21324421   1.917   0.298  14.245  0.1690 -1.4072 -0.5200
  197DOPC  H13R24422   1.901   0.192  14.213 -1.7065 -1.6962  1.1700
  197DOPC  H13S24423   1.821   0.324  14.294  0.7402  0.8144 -0.4845
  197DOPC  C21424424   2.028   0.299  14.356  0.0481 -0.7304 -0.1488
  197DOPC  H14R24425   2.023   0.399  14.405 -1.0257 -0.1274 -1.4074
  197DOPC  H14S24426   2.129   0.289  14.310  0.2326  0.2438  0.0243
  197DOPC  C21524427   2.007   0.178  14.450  0.5474 -0.1190 -0.2028
  197DOPC  H15R24428   2.018   0.101  14.370  1.7601  1.4064 -1.5818
  197DOPC  H15S24429   1.905   0.191  14.491 -0.1641 -0.5630 -1.7437
  197DOPC  C21624430   2.119   0.180  14.560 -0.0975  0.3342 -0.7454
  197DOPC  H16R24431   2.113   0.276  14.615 -1.8827 -0.4222  0.4572
  197DOPC  H16S24432   2.217   0.182  14.507  0.5451  1.1649  0.4194
  197DOPC  C21724433   2.110   0.067  14.668  0.3967  0.3888 -0.7750
  197DOPC  H17R24434   2.020   0.095  14.727  1.3916  2.5661 -0.1726
  197DOPC  H17S24435   2.190   0.071  14.746 -1.3186 -0.4214  1.1177
  197DOPC  C21824436   2.086  -0.074  14.607 -0.0894  0.7175  0.3450
  197DOPC  H18R24437   1.987  -0.092  14.562 -0.1121 -2.5994  1.4710
  197DOPC  H18S24438   2.097  -0.154  14.683  0.6834  1.0326  0.5793
  197DOPC  H18T24439   2.165  -0.094  14.531  0.7246  1.7974  0.8648
  197DOPC   C3324440   1.796  -0.064  13.305 -0.5943  0.1927 -0.2348
  197DOPC   H3X24441   1.688  -0.043  13.319 -0.5361 -0.0554  0.6978
  197DOPC   H3Y24442   1.851   0.031  13.284 -0.3330  0.3435  1.0048
  197DOPC   C3424443   1.849  -0.126  13.434  0.1556  0.2804  0.6433
  197DOPC   H4X24444   1.956  -0.152  13.416 -0.1095 -0.6103  0.3061
  197DOPC   H4Y24445   1.789  -0.217  13.455  0.3960  0.0433  0.3041
  197DOPC   C3524446   1.857  -0.027  13.554 -0.2810  0.5606  0.7012
  197DOPC   H5X24447   1.755   0.014  13.566 -0.9790 -0.3425 -1.6554
  197DOPC   H5Y24448   1.925   0.055  13.523 -1.9256  1.6577 -0.1028
  197DOPC   C3624449   1.910  -0.078  13.689 -0.7271 -0.4485 -0.0364
  197DOPC   H6X24450   2.017  -0.107  13.689 -0.8401 -0.8804  0.0895
  197DOPC   H6Y24451   1.895  -0.002  13.768  1.5055 -2.7663  2.8517
  197DOPC   C3724452   1.821  -0.190  13.749  0.2364  0.0046  0.2094
  197DOPC   H7X24453   1.717  -0.155  13.738  0.3695  0.5309  0.5610
  197DOPC   H7Y24454   1.828  -0.269  13.672  2.5196  1.5096 -1.2602
  197DOPC   C3824455   1.857  -0.236  13.888 -0.3903  0.2450 -0.0501
  197DOPC   H8X24456   1.955  -0.287  13.889  1.4009  3.4277 -0.6119
  197DOPC   H8Y24457   1.783  -0.318  13.902 -0.2681  0.4727  2.4076
  197DOPC   C3924458   1.854  -0.137  14.010  1.1671 -0.2287 -1.1848
  197DOPC   H9X24459   1.758  -0.084  14.015  2.2353  2.1486 -3.3062
  197DOPC  C31024460   1.958  -0.106  14.093  0.7711 -0.6509  0.9550
  197DOPC  H10X24461   1.931  -0.043  14.179 -2.6912 -2.6334  1.5219
  197DOPC  C31124462   2.096  -0.160  14.106 -0.0128  0.2234 -0.1453
  197DOPC  H11X24463   2.158  -0.075  14.143  0.9228  0.8309 -2.8199
  197DOPC  H11Y24464   2.137  -0.205  14.013 -1.2298  0.8267 -1.0019
  197DOPC  C31224465   2.079  -0.269  14.213  0.3195  0.3745 -0.8159
  197DOPC  H12X24466   2.037  -0.363  14.170  1.1129 -0.5031  0.2645
  197DOPC  H12Y24467   2.020  -0.241  14.303  0.9615 -0.3567 -0.1504
  197DOPC  C31324468   2.220  -0.310  14.259 -0.3268 -0.3330  0.0293
  197DOPC  H13X24469   2.287  -0.332  14.173 -1.0752 -0.9437 -0.4072
  197DOPC  H13Y24470   2.255  -0.224  14.320  1.3324 -0.1230 -1.1402
  197DOPC  C31424471   2.202  -0.435  14.342  0.1518  0.6213 -0.1939
  197DOPC  H14X24472   2.117  -0.423  14.412  2.1767  0.2180  2.4684
  197DOPC  H14Y24473   2.181  -0.525  14.280  3.1654 -1.6557  1.7769
  197DOPC  C31524474   2.321  -0.451  14.435 -0.1167  0.1442 -0.2049
  197DOPC  H15X24475   2.312  -0.367  14.506  0.0835  1.7428 -1.9940
  197DOPC  H15Y24476   2.410  -0.446  14.368 -1.3559 -1.0558 -2.0396
  197DOPC  C31624477   2.311  -0.575  14.530 -1.0188  0.9375  0.1952
  197DOPC  H16X24478   2.208  -0.608  14.552  0.0373 -2.6323  0.5086
  197DOPC  H16Y24479   2.367  -0.662  14.487 -1.8138  0.2078  0.6100
  197DOPC  C31724480   2.378  -0.558  14.675 -0.2230  0.1118  0.1290
  197DOPC  H17X24481   2.488  -0.547  14.661  0.0902  0.9768  2.7184
  197DOPC  H17Y24482   2.329  -0.470  14.721 -2.3047 -0.3056 -1.1803
  197DOPC  C31824483   2.358  -0.677  14.768 -0.7132  0.2818 -0.4787
  197DOPC  H18X24484   2.252  -0.707  14.759 -1.2874  0.6843  3.2809
  197DOPC  H18Y24485   2.421  -0.760  14.730 -4.0105 -2.2241 -0.9136
  197DOPC  H18Z24486   2.378  -0.654  14.875  0.2772 -1.5091 -0.2510
  198DOPC     N24487   6.613   1.165  12.031 -0.0485  0.6373 -0.3401
  198DOPC   C1224488   6.568   1.261  12.144 -0.8172  0.7035 -0.3359
  198DOPC  H12A24489   6.502   1.205  12.209  1.2344  0.6451  1.8427
  198DOPC  H12B24490   6.520   1.345  12.096 -0.9922  0.5117 -0.5000
  198DOPC   C1324491   6.502   1.165  11.927 -0.4383  0.3050  0.3504
  198DOPC  H13A24492   6.510   1.255  11.869  2.0295 -0.8747 -1.3121
  198DOPC  H13B24493   6.511   1.084  11.857 -0.7285 -0.7832  1.5218
  198DOPC  H13C24494   6.409   1.152  11.981 -0.0611 -0.9496  0.7469
  198DOPC   C1424495   6.628   1.026  12.085  0.0974 -0.0967 -0.4855
  198DOPC  H14A24496   6.543   0.984  12.137  0.9063 -1.4065 -0.1706
  198DOPC  H14B24497   6.657   0.949  12.015 -0.2605 -0.4451 -0.2608
  198DOPC  H14C24498   6.699   1.025  12.166  0.5079 -1.0290 -0.8464
  198DOPC   C1524499   6.743   1.208  11.973  0.9179  0.7310 -0.1150
  198DOPC  H15A24500   6.784   1.130  11.910 -0.9840 -1.6984  1.4244
  198DOPC  H15B24501   6.813   1.234  12.051  1.7062 -0.3487 -0.4355
  198DOPC  H15C24502   6.724   1.300  11.921 -3.5860  0.2055  0.2212
  198DOPC   C1124503   6.687   1.308  12.238  0.3251  0.2120 -0.6099
  198DOPC  H11A24504   6.764   1.365  12.182  0.5796  1.7560  1.1918
  198DOPC  H11B24505   6.647   1.378  12.315  0.9932  0.2118 -0.2468
  198DOPC     P24506   6.707   1.142  12.436  0.1394 -0.2049  0.1962
  198DOPC   O1324507   6.823   1.119  12.519 -0.3309 -0.2240 -0.0798
  198DOPC   O1424508   6.622   1.021  12.422 -0.4236 -0.2095  0.2150
  198DOPC   O1224509   6.757   1.204  12.295  0.8299  0.1282 -0.2737
  198DOPC   O1124510   6.629   1.263  12.510  0.2513  0.1217  0.4068
  198DOPC    C124511   6.486   1.254  12.522 -0.3557 -0.4614 -0.5443
  198DOPC    HA24512   6.442   1.195  12.438 -0.2688 -2.8306  0.9653
  198DOPC    HB24513   6.452   1.356  12.496  1.6206 -0.3658 -3.1656
  198DOPC    C224514   6.450   1.214  12.674  0.1300  0.8616  0.1855
  198DOPC    HS24515   6.341   1.208  12.694  0.4618 -1.1318  1.7322
  198DOPC   O2124516   6.523   1.296  12.765 -0.0884  0.6062 -0.6242
  198DOPC   C2124517   6.442   1.378  12.830  0.2626  0.1562 -0.0925
  198DOPC   O2224518   6.324   1.396  12.803  0.0520 -0.1474 -0.3000
  198DOPC   C2224519   6.509   1.446  12.953  0.7639 -0.0019 -0.2783
  198DOPC   H2R24520   6.435   1.514  12.999 -0.2901 -1.3896  0.1570
  198DOPC   H2S24521   6.584   1.518  12.914 -1.4739  2.6928  0.0609
  198DOPC    C324522   6.492   1.067  12.703  0.3611  0.5832  0.6510
  198DOPC    HX24523   6.601   1.068  12.683  0.0467  0.1231 -1.2413
  198DOPC    HY24524   6.446   0.989  12.639  0.4793 -2.2836  3.8076
  198DOPC   O3124525   6.490   1.039  12.847  0.6631 -0.0022  0.1522
  198DOPC   C3124526   6.384   0.974  12.890  0.2992 -0.3355 -0.1462
  198DOPC   O3224527   6.272   0.963  12.837 -0.5130  0.3956 -0.2407
  198DOPC   C3224528   6.409   0.928  13.031  0.6252  0.0575 -0.1504
  198DOPC   H2X24529   6.518   0.917  13.049  1.0467  1.1242 -1.8579
  198DOPC   H2Y24530   6.366   1.007  13.097  2.4163 -0.6798  2.0401
  198DOPC   C2324531   6.569   1.347  13.061 -0.4940  0.0283 -0.0852
  198DOPC   H3R24532   6.658   1.384  13.116  1.6377 -2.1556 -1.8303
  198DOPC   H3S24533   6.599   1.250  13.016  1.6786  0.7546 -0.2996
  198DOPC   C2424534   6.468   1.305  13.172  0.1629  0.3453  0.2283
  198DOPC   H4R24535   6.395   1.241  13.118  0.4819  0.5603 -0.4636
  198DOPC   H4S24536   6.413   1.389  13.218  3.2412  1.2782  2.5885
  198DOPC   C2524537   6.520   1.200  13.276 -0.1973 -0.2031  0.7947
  198DOPC   H5R24538   6.593   1.135  13.224 -1.1486 -0.4942 -0.1972
  198DOPC   H5S24539   6.439   1.146  13.330  1.2551 -0.8921  2.3846
  198DOPC   C2624540   6.591   1.266  13.395  1.0246  0.2218  0.6164
  198DOPC   H6R24541   6.519   1.317  13.463  0.1211 -2.0806  1.4957
  198DOPC   H6S24542   6.665   1.339  13.355  0.0972  1.2086  0.6390
  198DOPC   C2724543   6.659   1.160  13.481 -0.1853 -0.2079  0.0366
  198DOPC   H7R24544   6.731   1.105  13.417  1.1245  0.5613  0.7991
  198DOPC   H7S24545   6.587   1.095  13.535  1.3784 -0.8927  1.3911
  198DOPC   C2824546   6.747   1.222  13.595  1.2967 -0.6288  0.5084
  198DOPC   H8R24547   6.823   1.292  13.553  1.7497 -0.4787  1.5406
  198DOPC   H8S24548   6.797   1.132  13.636 -1.9657 -2.0920  1.5601
  198DOPC   C2924549   6.659   1.300  13.697 -0.1749 -0.8326  1.1266
  198DOPC   H9R24550   6.613   1.394  13.666 -0.1259 -0.7855  1.1952
  198DOPC  C21024551   6.658   1.270  13.829  0.4337  0.1362  0.3922
  198DOPC  H10R24552   6.611   1.346  13.892  1.6614  1.2717 -0.0101
  198DOPC  C21124553   6.708   1.156  13.908  0.1178  0.5231 -0.0754
  198DOPC  H11R24554   6.794   1.189  13.971  0.2062  4.2172 -1.8736
  198DOPC  H11S24555   6.746   1.082  13.834 -0.7215 -0.6674  0.6474
  198DOPC  C21224556   6.597   1.100  14.005 -0.3121 -0.0803 -0.0444
  198DOPC  H12R24557   6.515   1.060  13.942  1.3752 -0.1189 -2.3551
  198DOPC  H12S24558   6.553   1.181  14.066  0.1672  0.3358 -0.2433
  198DOPC  C21324559   6.643   0.983  14.095 -0.2643  0.0552  0.2673
  198DOPC  H13R24560   6.723   1.023  14.160 -1.6729  0.7507  1.6512
  198DOPC  H13S24561   6.688   0.905  14.031 -0.2050  0.4168 -0.1352
  198DOPC  C21424562   6.528   0.923  14.175  0.1158 -0.5283 -0.3195
  198DOPC  H14R24563   6.445   0.890  14.109 -1.1089 -1.0345  1.3966
  198DOPC  H14S24564   6.480   1.011  14.223  0.5529  0.5151 -1.7050
  198DOPC  C21524565   6.566   0.822  14.292 -0.0723 -0.4462  0.6847
  198DOPC  H15R24566   6.646   0.870  14.353  1.3701 -2.0018  0.0777
  198DOPC  H15S24567   6.604   0.728  14.248  0.1776  0.0449 -0.1632
  198DOPC  C21624568   6.447   0.804  14.386 -0.6119  0.2182  0.0345
  198DOPC  H16R24569   6.351   0.784  14.334 -0.6209 -0.8973  0.4574
  198DOPC  H16S24570   6.432   0.897  14.444  0.7383  1.0557 -0.9001
  198DOPC  C21724571   6.479   0.699  14.496 -0.1234 -0.5944  0.3175
  198DOPC  H17R24572   6.501   0.603  14.443 -0.2561 -0.9951  0.9769
  198DOPC  H17S24573   6.402   0.686  14.574  1.3658 -0.5442  1.8704
  198DOPC  C21824574   6.602   0.747  14.577  0.0588 -0.0024 -0.3989
  198DOPC  H18R24575   6.599   0.690  14.672  1.1411 -2.4988 -1.7670
  198DOPC  H18S24576   6.600   0.854  14.605  1.2820  0.1758 -0.9013
  198DOPC  H18T24577   6.700   0.721  14.530  0.2047  0.0225 -0.1123
  198DOPC   C3324578   6.338   0.792  13.064  0.3032 -0.2702  0.1617
  198DOPC   H3X24579   6.371   0.709  12.998  1.8908 -1.3876  2.2353
  198DOPC   H3Y24580   6.229   0.813  13.058  0.3537  0.5494  1.5787
  198DOPC   C3424581   6.368   0.747  13.209  0.5522 -0.1690  0.5723
  198DOPC   H4X24582   6.468   0.704  13.231  0.4952 -1.7152 -1.8255
  198DOPC   H4Y24583   6.287   0.671  13.221  0.0580  0.5992  2.3679
  198DOPC   C3524584   6.330   0.855  13.317  0.3030  0.3461 -0.0401
  198DOPC   H5X24585   6.232   0.898  13.284  0.9340  0.4462 -1.9318
  198DOPC   H5Y24586   6.409   0.931  13.298  1.1291 -0.7484 -1.1217
  198DOPC   C3624587   6.311   0.799  13.459  0.5467 -0.4127  0.7905
  198DOPC   H6X24588   6.209   0.755  13.465 -0.4144  0.1955 -5.1634
  198DOPC   H6Y24589   6.380   0.715  13.480  0.2074 -0.9732 -0.2782
  198DOPC   C3724590   6.350   0.901  13.574  0.2076  0.1641  0.1185
  198DOPC   H7X24591   6.446   0.948  13.544 -0.4047  0.4494 -1.5206
  198DOPC   H7Y24592   6.284   0.989  13.588  1.3197  0.9926  0.2939
  198DOPC   C3824593   6.366   0.832  13.707  0.1477 -0.1347  0.1951
  198DOPC   H8X24594   6.416   0.903  13.777  1.8987 -1.7366  0.6680
  198DOPC   H8Y24595   6.440   0.751  13.688 -1.8543 -1.9357 -0.3196
  198DOPC   C3924596   6.242   0.796  13.784  0.1711 -0.0113 -0.7634
  198DOPC   H9X24597   6.163   0.871  13.796  0.1838 -0.3547  1.8762
  198DOPC  C31024598   6.226   0.671  13.825 -0.3791 -1.4450  0.3165
  198DOPC  H10X24599   6.127   0.651  13.870 -0.8115  0.0006  0.0475
  198DOPC  C31124600   6.318   0.554  13.824 -0.2963 -0.2200  0.2131
  198DOPC  H11X24601   6.390   0.550  13.739 -0.5105  2.3266 -0.1759
  198DOPC  H11Y24602   6.262   0.459  13.831  0.2588 -0.5963 -0.3566
  198DOPC  C31224603   6.411   0.554  13.953  0.0022 -0.0052 -0.1371
  198DOPC  H12X24604   6.337   0.546  14.035 -0.0697 -2.2428 -0.3480
  198DOPC  H12Y24605   6.472   0.646  13.960  1.0582 -0.7789  1.3442
  198DOPC  C31324606   6.503   0.428  13.964  0.2702 -0.7440  0.2357
  198DOPC  H13X24607   6.436   0.342  13.946 -2.8532  1.3970  0.8241
  198DOPC  H13Y24608   6.573   0.442  13.879 -0.2645 -0.9259 -0.2444
  198DOPC  C31424609   6.575   0.412  14.099  0.0788  0.0938 -0.3792
  198DOPC  H14X24610   6.640   0.325  14.074  0.7115 -0.1226  1.8210
  198DOPC  H14Y24611   6.644   0.495  14.126 -0.6248  0.6896 -0.3723
  198DOPC  C31524612   6.484   0.381  14.212 -0.2153  0.3445  0.3936
  198DOPC  H15X24613   6.402   0.320  14.170 -1.0144  0.1944  2.0778
  198DOPC  H15Y24614   6.436   0.475  14.247 -2.2973  0.3147 -2.1325
  198DOPC  C31624615   6.538   0.307  14.322 -0.0372  0.0009 -0.3768
  198DOPC  H16X24616   6.560   0.208  14.276 -0.3392  1.4686 -3.9593
  198DOPC  H16Y24617   6.633   0.353  14.355 -1.3694  1.8477  1.0596
  198DOPC  C31724618   6.435   0.283  14.430 -0.9143 -0.3353 -0.2746
  198DOPC  H17X24619   6.417   0.389  14.460 -1.3770 -0.4176 -0.2557
  198DOPC  H17Y24620   6.343   0.237  14.388  0.4120 -1.4330 -2.1441
  198DOPC  C31824621   6.481   0.209  14.559  0.0358  1.0061 -0.0064
  198DOPC  H18X24622   6.570   0.264  14.597  0.7786 -1.1988  1.7190
  198DOPC  H18Y24623   6.392   0.210  14.625 -0.3548  4.1776 -0.4499
  198DOPC  H18Z24624   6.513   0.108  14.524 -1.5927  0.1003  0.9856
  199DOPC     N24625   5.799   1.307  12.263 -0.3213  0.6212 -0.0787
  199DOPC   C1224626   5.714   1.276  12.386  0.4040 -0.2359  0.3096
  199DOPC  H12A24627   5.666   1.181  12.365  1.1257 -1.1582  2.4990
  199DOPC  H12B24628   5.640   1.353  12.400  2.2315  2.2614 -2.5632
  199DOPC   C1324629   5.868   1.441  12.271 -0.4711  0.0009  0.6371
  199DOPC  H13A24630   5.913   1.472  12.178 -0.3166 -1.8761  0.0506
  199DOPC  H13B24631   5.803   1.525  12.289  3.1792  3.4655 -0.8552
  199DOPC  H13C24632   5.937   1.437  12.353  1.6499  0.1396 -1.0622
  199DOPC   C1424633   5.714   1.309  12.137  0.4747 -0.2898  0.7411
  199DOPC  H14A24634   5.777   1.320  12.051  0.5568  1.3385  0.9755
  199DOPC  H14B24635   5.660   1.216  12.134 -0.4456  0.2659 -0.9176
  199DOPC  H14C24636   5.639   1.386  12.147  1.6392  1.1698 -1.1239
  199DOPC   C1524637   5.901   1.198  12.246  1.0277 -0.1632 -0.0333
  199DOPC  H15A24638   5.970   1.193  12.328  0.8489 -2.6810  0.0436
  199DOPC  H15B24639   5.947   1.208  12.148  0.8452 -1.0805 -0.2191
  199DOPC  H15C24640   5.853   1.101  12.239 -0.9658  0.6983  0.7583
  199DOPC   C1124641   5.790   1.273  12.518  0.3989 -0.4556  0.3591
  199DOPC  H11A24642   5.722   1.225  12.591  0.5717 -0.3679  0.5771
  199DOPC  H11B24643   5.885   1.217  12.511  0.0563 -0.8833 -1.3592
  199DOPC     P24644   5.739   1.508  12.632 -0.2138  0.1802 -0.0790
  199DOPC   O1324645   5.602   1.494  12.578  0.3099  0.7680  0.1654
  199DOPC   O1424646   5.807   1.638  12.629 -0.0171  0.0980  0.3552
  199DOPC   O1224647   5.822   1.407  12.551 -0.5362 -0.3492 -0.9692
  199DOPC   O1124648   5.743   1.455  12.782  0.2955 -0.1870 -0.0662
  199DOPC    C124649   5.871   1.446  12.848 -0.3377 -0.9180 -0.0671
  199DOPC    HA24650   5.939   1.532  12.828  0.2288 -1.0521  1.1687
  199DOPC    HB24651   5.929   1.360  12.809 -0.6841 -1.1010 -0.1744
  199DOPC    C224652   5.864   1.416  13.001  0.3601  0.0151 -0.1578
  199DOPC    HS24653   5.960   1.455  13.041 -0.7286  2.3515  0.2944
  199DOPC   O2124654   5.851   1.275  13.019  0.6325 -0.5690 -0.3755
  199DOPC   C2124655   5.869   1.225  13.137  1.0330 -0.7196 -0.3785
  199DOPC   O2224656   5.935   1.277  13.225  0.3341  0.1720  0.4010
  199DOPC   C2224657   5.805   1.085  13.136  0.4335 -0.2726 -0.1436
  199DOPC   H2R24658   5.890   1.017  13.119  1.1396  0.7704 -0.9424
  199DOPC   H2S24659   5.738   1.060  13.051 -0.3433 -2.2425  0.9959
  199DOPC    C324660   5.751   1.509  13.063  0.4161 -0.1442  0.2370
  199DOPC    HX24661   5.660   1.485  13.003 -0.7628 -0.9493  2.2514
  199DOPC    HY24662   5.779   1.616  13.051  0.1519 -0.1323 -0.3561
  199DOPC   O3124663   5.715   1.475  13.202  0.0790 -0.2024  0.4104
  199DOPC   C3124664   5.796   1.528  13.295 -0.1203  0.4630  0.0329
  199DOPC   O3224665   5.893   1.599  13.262  0.3781 -0.3349 -0.0511
  199DOPC   C3224666   5.757   1.464  13.425 -0.2988  0.5891 -0.5765
  199DOPC   H2X24667   5.646   1.463  13.422 -0.3291  0.5116  0.2313
  199DOPC   H2Y24668   5.795   1.359  13.423 -0.4526  0.5312 -0.5019
  199DOPC   C2324669   5.738   1.030  13.268  0.2112 -0.7169 -0.0468
  199DOPC   H3R24670   5.639   1.074  13.290  0.6600  0.8855 -1.1053
  199DOPC   H3S24671   5.794   1.070  13.355  2.0767 -0.5305 -1.2718
  199DOPC   C2424672   5.737   0.882  13.281 -0.1992  0.0542 -0.3404
  199DOPC   H4R24673   5.837   0.842  13.258 -0.3085  0.8503 -2.4130
  199DOPC   H4S24674   5.669   0.841  13.203  2.3240  0.0141 -2.6443
  199DOPC   C2524675   5.689   0.819  13.418  0.4267 -0.6585  0.2679
  199DOPC   H5R24676   5.677   0.709  13.407 -0.7781 -0.6271  1.0377
  199DOPC   H5S24677   5.587   0.860  13.436  1.0430  0.6385  0.9182
  199DOPC   C2624678   5.774   0.852  13.539 -0.0628 -0.4070  0.1185
  199DOPC   H6R24679   5.744   0.955  13.568 -0.2647 -0.5190  0.3067
  199DOPC   H6S24680   5.882   0.853  13.511  0.1112  1.0448  0.7662
  199DOPC   C2724681   5.732   0.763  13.658  0.3689 -0.3975  0.3050
  199DOPC   H7R24682   5.694   0.663  13.628 -0.1125  0.0705 -0.6699
  199DOPC   H7S24683   5.648   0.816  13.706 -0.7921 -1.7207 -0.2034
  199DOPC   C2824684   5.845   0.747  13.763  0.0132  0.1442  0.1244
  199DOPC   H8R24685   5.896   0.844  13.778 -0.4494  0.9622 -2.8594
  199DOPC   H8S24686   5.907   0.672  13.708 -1.6647 -1.0841 -0.1847
  199DOPC   C2924687   5.798   0.698  13.895  0.2181  0.5729  0.0859
  199DOPC   H9R24688   5.782   0.590  13.903  1.2224  0.4952  1.3893
  199DOPC  C21024689   5.809   0.758  14.017  0.0116  0.0830 -0.5223
  199DOPC  H10R24690   5.806   0.703  14.113 -1.0378  2.1623  0.6993
  199DOPC  C21124691   5.814   0.906  14.052  0.1870 -0.3838 -0.1852
  199DOPC  H11R24692   5.736   0.941  14.123 -0.0339 -0.3025 -0.4633
  199DOPC  H11S24693   5.788   0.957  13.957  3.2423 -1.2250 -1.6010
  199DOPC  C21224694   5.948   0.962  14.100 -0.7917  0.7873  0.3766
  199DOPC  H12R24695   6.036   0.924  14.045  0.2026  1.3656  1.5067
  199DOPC  H12S24696   5.964   0.921  14.202 -2.5153  0.3711  0.5165
  199DOPC  C21324697   5.964   1.115  14.116  0.2878 -0.1124  0.1924
  199DOPC  H13R24698   6.070   1.138  14.139  0.2202 -0.6476  1.0853
  199DOPC  H13S24699   5.901   1.140  14.204 -0.7232 -1.1120 -0.2213
  199DOPC  C21424700   5.933   1.190  13.984 -0.9553  0.2248  0.2508
  199DOPC  H14R24701   5.952   1.299  13.992 -2.6913  0.6912 -1.1456
  199DOPC  H14S24702   5.826   1.175  13.955 -0.8332 -0.4139  0.1187
  199DOPC  C21524703   6.020   1.143  13.868 -0.1239  0.0354 -0.4521
  199DOPC  H15R24704   6.038   1.034  13.856  0.0557 -0.0653  0.6272
  199DOPC  H15S24705   6.122   1.185  13.880  0.1121 -0.5845 -0.2181
  199DOPC  C21624706   5.957   1.212  13.742  0.2682 -0.3611 -0.1367
  199DOPC  H16R24707   5.943   1.318  13.773  0.0252 -0.7192  1.0383
  199DOPC  H16S24708   5.856   1.168  13.734 -0.1620  0.3522  0.9958
  199DOPC  C21724709   6.041   1.207  13.617 -0.3999 -0.2802 -0.0335
  199DOPC  H17R24710   5.985   1.217  13.522  0.9551 -0.5241 -0.8750
  199DOPC  H17S24711   6.089   1.107  13.618  0.3513  0.0115  2.6055
  199DOPC  C21824712   6.159   1.307  13.605  0.0713  0.2243 -0.3885
  199DOPC  H18R24713   6.122   1.411  13.591 -1.8851 -0.3612  0.1369
  199DOPC  H18S24714   6.221   1.284  13.515  1.1348 -1.0799  0.6317
  199DOPC  H18T24715   6.225   1.305  13.694  1.7934  0.1870 -1.6117
  199DOPC   C3324716   5.807   1.542  13.549 -0.2725 -0.2990  0.7539
  199DOPC   H3X24717   5.788   1.650  13.529  2.6530  0.3929  1.2387
  199DOPC   H3Y24718   5.918   1.532  13.550 -0.2508 -0.2555 -0.1254
  199DOPC   C3424719   5.730   1.493  13.672 -0.4658  0.1885 -0.0668
  199DOPC   H4X24720   5.761   1.389  13.695  0.8901  0.1466 -1.8773
  199DOPC   H4Y24721   5.621   1.484  13.652 -0.2867 -3.3440 -0.0708
  199DOPC   C3524722   5.759   1.579  13.795 -0.3845  0.3451 -0.0503
  199DOPC   H5X24723   5.859   1.577  13.843 -1.3066  0.9556  2.0155
  199DOPC   H5Y24724   5.694   1.542  13.877 -0.4614 -2.0217 -1.0762
  199DOPC   C3624725   5.720   1.729  13.780  0.2077  0.1344  0.1744
  199DOPC   H6X24726   5.764   1.767  13.685  0.0600 -2.5887 -1.0816
  199DOPC   H6Y24727   5.611   1.730  13.755  0.4870  0.1546 -1.0887
  199DOPC   C3724728   5.751   1.810  13.911 -0.3129 -0.3196 -0.0083
  199DOPC   H7X24729   5.861   1.817  13.922 -0.3521  3.7610 -0.5216
  199DOPC   H7Y24730   5.723   1.918  13.901  1.6468  0.3695  1.3441
  199DOPC   C3824731   5.691   1.748  14.043 -0.1043 -0.4061 -0.3639
  199DOPC   H8X24732   5.728   1.644  14.046  1.0018 -0.0128  0.2939
  199DOPC   H8Y24733   5.581   1.737  14.033 -0.4967  1.1362  1.5367
  199DOPC   C3924734   5.712   1.835  14.164 -0.1787 -0.4570 -0.2246
  199DOPC   H9X24735   5.653   1.927  14.162 -1.4096 -1.2225 -0.0129
  199DOPC  C31024736   5.792   1.808  14.267  0.7322  0.6089 -0.3565
  199DOPC  H10X24737   5.792   1.884  14.347  1.0599  0.3435 -0.0980
  199DOPC  C31124738   5.866   1.675  14.283  0.7767 -0.2261 -0.2374
  199DOPC  H11X24739   5.953   1.671  14.214  0.6846 -1.7903 -0.3034
  199DOPC  H11Y24740   5.798   1.589  14.264 -2.1007  2.1754 -1.7311
  199DOPC  C31224741   5.934   1.656  14.414  0.4393 -0.3430  0.2007
  199DOPC  H12X24742   5.856   1.662  14.493 -0.5840  0.8801 -0.8505
  199DOPC  H12Y24743   6.010   1.737  14.424 -1.2772  1.6530 -1.7032
  199DOPC  C31324744   6.005   1.523  14.424  0.6228  0.7371 -0.5993
  199DOPC  H13X24745   5.936   1.441  14.396  2.0778 -0.9427  0.5939
  199DOPC  H13Y24746   6.089   1.521  14.351  0.4475 -0.7295 -0.7863
  199DOPC  C31424747   6.064   1.487  14.560  0.3376  0.1526  0.0246
  199DOPC  H14X24748   5.981   1.484  14.635 -0.2165 -0.3499 -0.5901
  199DOPC  H14Y24749   6.092   1.379  14.558  1.5115  0.4274  0.6383
  199DOPC  C31524750   6.177   1.583  14.605 -0.5654 -0.3661  0.1630
  199DOPC  H15X24751   6.135   1.685  14.606 -0.8159 -0.4697  0.8196
  199DOPC  H15Y24752   6.251   1.585  14.522 -0.7745  1.6577 -0.0177
  199DOPC  C31624753   6.239   1.558  14.737 -0.4909  0.2016  0.4334
  199DOPC  H16X24754   6.157   1.543  14.810 -0.2983 -0.4337  0.5256
  199DOPC  H16Y24755   6.294   1.463  14.721 -0.6203  0.0632  0.8111
  199DOPC  C31724756   6.336   1.658  14.793 -0.1452 -0.4920  0.7686
  199DOPC  H17X24757   6.433   1.651  14.739 -0.1594 -1.0592  0.8092
  199DOPC  H17Y24758   6.281   1.752  14.773 -0.5291 -0.0880  3.3678
  199DOPC  C31824759   6.369   1.636  14.941  0.0492 -0.0170  0.1634
  199DOPC  H18X24760   6.414   1.726  14.988 -1.3205  0.8936 -0.2144
  199DOPC  H18Y24761   6.275   1.620  14.998  1.6641  0.8698  3.3063
  199DOPC  H18Z24762   6.433   1.547  14.958 -2.2933 -1.4728  1.7976
  200DOPC     N24763   1.345   2.222  12.862 -0.5626  0.0004  0.4362
  200DOPC   C1224764   1.337   2.364  12.917 -0.3223 -0.0050 -0.5351
  200DOPC  H12A24765   1.420   2.415  12.871  0.6779  0.8388  1.9911
  200DOPC  H12B24766   1.351   2.351  13.024 -1.2753 -0.6390 -0.4786
  200DOPC   C1324767   1.298   2.221  12.723 -0.6506  0.1692  0.5402
  200DOPC  H13A24768   1.363   2.283  12.663  0.2740  0.5271  1.8835
  200DOPC  H13B24769   1.302   2.119  12.686  0.9461 -0.2087  1.6687
  200DOPC  H13C24770   1.195   2.255  12.719 -0.7443 -0.0733  0.8422
  200DOPC   C1424771   1.257   2.125  12.936  0.0386 -0.2295 -0.9080
  200DOPC  H14A24772   1.178   2.190  12.970  0.1831  0.3041 -1.5661
  200DOPC  H14B24773   1.221   2.049  12.868 -0.0378  1.8772 -3.3903
  200DOPC  H14C24774   1.299   2.097  13.032 -2.7824 -0.5143  0.3560
  200DOPC   C1524775   1.485   2.164  12.877  0.4877  0.4843  0.2169
  200DOPC  H15A24776   1.497   2.084  12.806  1.2751  1.6328 -0.9784
  200DOPC  H15B24777   1.500   2.128  12.978 -2.2025 -1.1204  0.1442
  200DOPC  H15C24778   1.562   2.239  12.862  0.8119  0.2737  0.8058
  200DOPC   C1124779   1.205   2.438  12.893 -0.1861  0.2802 -0.5210
  200DOPC  H11A24780   1.206   2.546  12.922 -2.4411  0.2635 -0.2143
  200DOPC  H11B24781   1.194   2.451  12.784 -0.3155  0.6854 -0.4618
  200DOPC     P24782   0.955   2.392  13.008 -0.2212 -0.0994 -0.2872
  200DOPC   O1324783   0.858   2.318  12.928  0.1809 -0.1094 -0.2136
  200DOPC   O1424784   0.929   2.536  13.018 -0.0004  0.3703 -0.2857
  200DOPC   O1224785   1.098   2.360  12.945  0.0773 -0.2141 -0.0984
  200DOPC   O1124786   0.971   2.324  13.148  0.3995  0.3613  0.3974
  200DOPC    C124787   1.084   2.346  13.236 -0.0621 -0.6635 -0.4011
  200DOPC    HA24788   1.157   2.411  13.183  0.6413 -1.0015  0.1420
  200DOPC    HB24789   1.120   2.246  13.266  0.7673  0.1471  1.4999
  200DOPC    C224790   1.051   2.421  13.365 -0.2511 -1.1540  0.5695
  200DOPC    HS24791   1.141   2.445  13.426 -1.2488 -0.2458  1.7372
  200DOPC   O2124792   0.969   2.333  13.439  0.2677  0.3297  0.1650
  200DOPC   C2124793   0.961   2.353  13.570  0.4260  0.7088 -0.3531
  200DOPC   O2224794   1.020   2.443  13.621 -0.3379  0.4520 -0.2242
  200DOPC   C2224795   0.863   2.251  13.636 -0.0649 -0.0960  0.1189
  200DOPC   H2R24796   0.911   2.151  13.636  0.8677  0.2393 -2.8279
  200DOPC   H2S24797   0.774   2.236  13.572 -0.9840 -0.0928  1.3724
  200DOPC    C324798   0.975   2.557  13.327  0.1018  0.1809  0.1854
  200DOPC    HX24799   0.875   2.525  13.291  1.2294 -2.6979 -0.6910
  200DOPC    HY24800   1.029   2.597  13.238 -0.1149  1.5805  0.6532
  200DOPC   O3124801   0.957   2.646  13.441 -0.0805 -0.2825 -0.3997
  200DOPC   C3124802   1.065   2.717  13.474 -0.6522  0.6722 -0.1406
  200DOPC   O3224803   1.170   2.716  13.415 -0.1169 -0.4274  0.0635
  200DOPC   C3224804   1.048   2.806  13.602 -0.0569 -0.4095 -0.2632
  200DOPC   H2X24805   1.143   2.811  13.659 -0.2115 -1.0672  0.0599
  200DOPC   H2Y24806   1.031   2.908  13.562 -0.1571 -0.9807 -1.7068
  200DOPC   C2324807   0.814   2.295  13.783  0.6562  0.0679  0.5011
  200DOPC   H3R24808   0.745   2.215  13.818 -0.1523  0.2475 -0.6393
  200DOPC   H3S24809   0.752   2.387  13.778  1.6758  0.7890  0.7658
  200DOPC   C2424810   0.928   2.315  13.873 -0.2834 -0.1425 -0.9397
  200DOPC   H4R24811   0.950   2.423  13.857 -1.5537  0.2135 -0.3959
  200DOPC   H4S24812   1.016   2.251  13.850  0.3385  0.6579 -0.8320
  200DOPC   C2524813   0.897   2.291  14.026  0.6115 -0.5980 -0.2610
  200DOPC   H5R24814   0.995   2.293  14.079 -0.1231  0.9324  1.1279
  200DOPC   H5S24815   0.849   2.190  14.027  1.9865 -1.3186 -2.1382
  200DOPC   C2624816   0.799   2.401  14.079 -0.2224  0.2714  0.1708
  200DOPC   H6R24817   0.716   2.403  14.006  0.7072 -0.2501 -0.9251
  200DOPC   H6S24818   0.849   2.500  14.070  0.9563 -0.4339 -1.7074
  200DOPC   C2724819   0.751   2.373  14.225 -1.0515 -0.9205  0.4993
  200DOPC   H7R24820   0.702   2.274  14.228 -1.5329 -0.7827 -1.4195
  200DOPC   H7S24821   0.656   2.427  14.245 -0.1866  0.0029  2.3562
  200DOPC   C2824822   0.863   2.405  14.326 -0.1761  0.7720 -0.2088
  200DOPC   H8R24823   0.929   2.492  14.301  2.6962 -1.3618 -0.6600
  200DOPC   H8S24824   0.943   2.330  14.307  0.9429  2.3455 -2.1612
  200DOPC   C2924825   0.810   2.403  14.474 -0.4947 -1.4372  0.1901
  200DOPC   H9R24826   0.729   2.475  14.493  0.3074 -0.0853 -1.3469
  200DOPC  C21024827   0.854   2.334  14.582  0.3752  0.0923  0.1010
  200DOPC  H10R24828   0.813   2.351  14.682  0.3276  0.1117  0.0790
  200DOPC  C21124829   0.965   2.234  14.579 -0.5748 -0.0879 -0.3938
  200DOPC  H11R24830   0.944   2.147  14.513  0.3781 -1.4424  1.0158
  200DOPC  H11S24831   0.991   2.180  14.673  0.7685 -0.3814 -0.9015
  200DOPC  C21224832   1.104   2.300  14.546 -0.1033  0.6175 -0.3213
  200DOPC  H12R24833   1.116   2.380  14.623 -1.5713  0.5662  0.0067
  200DOPC  H12S24834   1.103   2.353  14.448  0.3545  0.3699 -0.4602
  200DOPC  C21324835   1.226   2.203  14.550 -0.6320  0.5097  0.7720
  200DOPC  H13R24836   1.303   2.235  14.476  0.5608 -2.4496  0.5864
  200DOPC  H13S24837   1.198   2.101  14.514  0.2774  0.4338  0.2479
  200DOPC  C21424838   1.290   2.183  14.693 -0.2264  0.1348  0.8903
  200DOPC  H14R24839   1.216   2.117  14.740 -0.2623 -0.1003  0.5091
  200DOPC  H14S24840   1.287   2.283  14.742 -1.4245  0.5135  0.0711
  200DOPC  C21524841   1.428   2.117  14.681 -0.7986 -0.2617 -0.7046
  200DOPC  H15R24842   1.490   2.205  14.653  0.8421 -1.2639 -0.3394
  200DOPC  H15S24843   1.423   2.046  14.595 -1.5384 -1.3075  0.1780
  200DOPC  C21624844   1.485   2.060  14.817 -0.8181 -0.4999  0.5123
  200DOPC  H16R24845   1.589   2.021  14.810 -0.7613 -0.2153 -0.3500
  200DOPC  H16S24846   1.428   1.968  14.841 -0.0243 -1.7193 -1.8947
  200DOPC  C21724847   1.476   2.160  14.934 -0.2821  0.0449  0.1949
  200DOPC  H17R24848   1.370   2.185  14.956 -0.5672 -0.4835 -0.5294
  200DOPC  H17S24849   1.532   2.251  14.905  3.1600 -1.3891  1.7739
  200DOPC  C21824850   1.536   2.115  15.069  0.3133 -0.0219  0.0162
  200DOPC  H18R24851   1.646   2.100  15.069  0.3141 -0.0786 -1.0788
  200DOPC  H18S24852   1.481   2.030  15.116  0.4817 -1.3061 -1.9788
  200DOPC  H18T24853   1.516   2.205  15.131 -0.3456 -1.6972  2.3760
  200DOPC   C3324854   0.935   2.758  13.693 -0.2197  0.2394  0.2674
  200DOPC   H3X24855   0.944   2.647  13.693  0.3092  0.2764  0.7169
  200DOPC   H3Y24856   0.836   2.800  13.667 -0.2871  0.4103  0.7924
  200DOPC   C3424857   0.962   2.794  13.840  0.7804  0.1091  0.0211
  200DOPC   H4X24858   0.986   2.903  13.834  2.2260 -0.2425 -1.1475
  200DOPC   H4Y24859   1.056   2.746  13.873 -0.2596 -1.8162  0.2811
  200DOPC   C3524860   0.839   2.760  13.930  0.0440  0.1159  0.6753
  200DOPC   H5X24861   0.812   2.653  13.938  3.9947 -0.8949  3.6552
  200DOPC   H5Y24862   0.748   2.807  13.886  0.0440 -0.0559  0.4915
  200DOPC   C3624863   0.848   2.815  14.074  0.2214 -0.7805 -0.2405
  200DOPC   H6X24864   0.936   2.778  14.129  1.0943  2.7699  1.0336
  200DOPC   H6Y24865   0.864   2.925  14.060  0.2565 -0.6918  0.4824
  200DOPC   C3724866   0.711   2.795  14.148 -0.0954 -0.4315 -0.5104
  200DOPC   H7X24867   0.625   2.836  14.091  2.1877  3.4547 -1.5585
  200DOPC   H7Y24868   0.704   2.687  14.173 -1.1627 -0.2869 -0.1276
  200DOPC   C3824869   0.713   2.868  14.288  0.1214  0.1603 -0.1026
  200DOPC   H8X24870   0.706   2.976  14.263 -0.4752 -0.0442 -0.8934
  200DOPC   H8Y24871   0.808   2.843  14.340 -0.1557 -0.5176  0.0880
  200DOPC   C3924872   0.587   2.833  14.360 -0.2780  0.2767  0.1470
  200DOPC   H9X24873   0.506   2.791  14.299  0.6300  0.7817 -1.4390
  200DOPC  C31024874   0.569   2.877  14.486 -0.1735 -0.3487 -0.7069
  200DOPC  H10X24875   0.470   2.861  14.531  0.4374 -0.5454  0.6196
  200DOPC  C31124876   0.664   2.946  14.576  0.8591 -0.3102 -0.2251
  200DOPC  H11X24877   0.608   3.010  14.647  0.5832 -0.8980  0.0946
  200DOPC  H11Y24878   0.744   3.003  14.524  0.3154  0.6811 -0.0004
  200DOPC  C31224879   0.732   2.840  14.664 -0.1843 -0.1484  0.1195
  200DOPC  H12X24880   0.826   2.871  14.715  0.8468 -0.0916 -1.7541
  200DOPC  H12Y24881   0.766   2.768  14.587 -1.7598  0.6904 -1.4327
  200DOPC  C31324882   0.646   2.770  14.781  1.1327 -0.2467  0.0851
  200DOPC  H13X24883   0.561   2.838  14.804  1.5460  0.6960 -1.0583
  200DOPC  H13Y24884   0.595   2.676  14.751  0.6919  0.1146 -0.3223
  200DOPC  C31424885   0.739   2.747  14.904  0.1863 -0.4166  0.0792
  200DOPC  H14X24886   0.821   2.677  14.875  1.6192  0.8333  0.9885
  200DOPC  H14Y24887   0.791   2.844  14.917 -0.4457  0.2216 -1.8469
  200DOPC  C31524888   0.689   2.712  15.045 -0.2543  0.6865 -0.1461
  200DOPC  H15X24889   0.606   2.777  15.079 -2.7836 -2.6276  0.4740
  200DOPC  H15Y24890   0.770   2.724  15.120 -1.3716  0.3325  1.1561
  200DOPC  C31624891   0.622   2.578  15.054 -0.3911 -0.0121 -0.3711
  200DOPC  H16X24892   0.528   2.593  14.997 -1.0213 -2.1683  0.0119
  200DOPC  H16Y24893   0.692   2.505  15.008  1.3023  1.6793 -0.6198
  200DOPC  C31724894   0.583   2.546  15.206 -0.1021 -0.2815  0.5176
  200DOPC  H17X24895   0.553   2.439  15.208 -2.6324  0.3104 -1.1295
  200DOPC  H17Y24896   0.681   2.564  15.255 -0.6963  3.1659  0.7376
  200DOPC  C31824897   0.476   2.636  15.267  0.2176  0.0413 -0.4717
  200DOPC  H18X24898   0.498   2.740  15.236  0.1001  0.1899 -0.0551
  200DOPC  H18Y24899   0.379   2.608  15.220  0.0130 -2.0884  1.0518
  200DOPC  H18Z24900   0.463   2.629  15.377  0.1123 -2.5994 -0.5873
  201SOD    SOD24901   3.928   5.863  17.671  0.0857 -0.2085 -0.2648
  202SOD    SOD24902   1.992   3.107   9.510  0.3557 -0.3543  0.2961
  203SOD    SOD24903   3.777   6.231  17.208 -0.0638  0.2272 -0.0085
  204SOD    SOD24904   6.323   3.609  10.150 -0.3034 -0.4379 -0.1908
  205SOD    SOD24905   6.131   0.535  19.768 -0.0782  0.0624  0.6875
  206SOD    SOD24906   4.129   3.718  10.683 -0.4145  0.1326  0.2327
  207SOD    SOD24907   4.784   6.668  11.393 -0.0958  0.2422  0.3588
  208SOD    SOD24908   4.439   6.187  19.565 -0.0944  0.1155 -0.1292
  209SOD    SOD24909   1.600   6.125  11.286  0.1169  0.1105 -0.3418
  210SOD    SOD24910   5.331   2.305  17.947 -0.0502 -0.3003 -0.3609
  211SOD    SOD24911   0.064   2.519  18.940  0.2087  0.1503  0.6891
  212SOD    SOD24912   5.070   1.669  19.045 -0.0089 -0.2905  0.1870
  213SOD    SOD24913   5.787   0.846  10.725 -0.0378  0.6299  0.3939
  214SOD    SOD24914   3.224   3.404  18.142  0.0177  0.0251 -0.1310
  215SOD    SOD24915   1.423   0.271  19.161  0.0121 -0.3973  0.3534
  216SOD    SOD24916   5.614   1.442  19.530 -0.1416 -0.1638 -0.4396
  217SOD    SOD24917   4.209   1.467  10.711  0.1360  0.0157 -0.3077
  218SOD    SOD24918   6.311   6.495  18.236  0.1705  0.1401 -0.0403
  219SOD    SOD24919   2.393   4.399  18.131  0.2597 -0.2071  0.1731
  220SOD    SOD24920   4.516   3.738  12.326  0.2248  0.2177 -0.1358
  221SOD    SOD24921   1.416   1.451  11.421 -0.3299  0.3993 -0.2391
  222SOD    SOD24922   6.373   5.469  18.322 -0.2347 -0.2834  0.0384
  223SOD    SOD24923   1.932   6.085  12.247  0.0896 -0.2597 -0.0765
  224SOD    SOD24924   5.513   4.670   9.514  0.1970  0.1583 -0.0275
  225SOD    SOD24925   0.442   3.641  10.714 -0.1968 -0.0625 -0.1445
  226SOD    SOD24926   4.689   5.437  20.616 -0.3819 -0.2714  0.0896
  227CLA    CLA24927   0.513   4.357  10.877 -0.1573 -0.0654 -0.2068
  228CLA    CLA24928   1.429   3.268   9.829 -0.5980 -0.3172 -0.1800
  229CLA    CLA24929   5.728   0.610  10.103 -0.1013  0.3042  0.1351
  230CLA    CLA24930   1.477   1.642  19.161  0.1194  0.1126  0.0246
  231CLA    CLA24931   5.143   2.520  19.725 -0.2161 -0.3029  0.0945
  232CLA    CLA24932   3.187   4.331  19.291 -0.2228 -0.0872  0.0714
  233CLA    CLA24933   5.639   4.337  18.687  0.6819 -0.1521  0.0231
  234CLA    CLA24934   2.532   4.487  17.933  0.0557 -0.1390 -0.2342
  235CLA    CLA24935   2.852   6.365  11.307 -0.0763 -0.3577 -0.4067
  236CLA    CLA24936   6.014   0.961  18.232  0.4042 -0.0852 -0.2750
  237CLA    CLA24937   6.494   6.410  19.391  0.1021  0.4418  0.2388
  238CLA    CLA24938   1.637   2.065  11.157  0.1513 -0.2544  0.0288
  239CLA    CLA24939   3.818   1.699  10.558 -0.2601  0.2076  0.1176
  240CLA    CLA24940   0.336   0.436  18.768 -0.2014  0.0295 -0.3045
  241CLA    CLA24941   5.772   2.465  11.174  0.1090 -0.2776  0.0236
  242CLA    CLA24942   0.324   2.902  18.608  0.0687  0.1191  0.0865
  243CLA    CLA24943   3.010   2.002  11.842 -0.3830  0.3393 -0.0137
  244CLA    CLA24944   3.461   5.751  11.140 -0.2646 -0.0454  0.4888
  245CLA    CLA24945   1.673   2.322   9.664  0.0161 -0.7154 -0.1330
  246CLA    CLA24946   5.051   1.180  18.437  0.0720  0.3926  0.0570
  247CLA    CLA24947   4.978   1.482  10.678  0.1054 -0.0053 -0.5364
  248CLA    CLA24948   3.012   4.677  11.530  0.1154  0.1881  0.0975
  249CLA    CLA24949   3.391   3.915  11.601  0.2848  0.4329  0.0053
  250CLA    CLA24950   1.335   3.462  20.316  0.1407 -0.3192 -0.1207
  251CLA    CLA24951   5.104   6.722  20.269 -0.0600 -0.2110 -0.3135
  252CLA    CLA24952   6.542   5.502  10.590  0.0415 -0.1756  0.0863
  253TIP3   OH224953   5.684   1.650  19.594 -0.1347  0.3448  0.4063
  253TIP3    H124954   5.734   1.704  19.532  2.1158 -1.9695  0.0504
  253TIP3    H224955   5.727   1.665  19.679 -0.2481 -0.0018  0.5264
  254TIP3   OH224956   1.203   6.226  19.033  0.3759  0.0578  0.3728
  254TIP3    H124957   1.247   6.223  18.948  0.5112 -2.3711  0.4621
  254TIP3    H224958   1.124   6.277  19.017  0.3855 -0.3709 -1.2276
  255TIP3   OH224959   4.722   3.250  17.574 -0.1700  0.3411  0.2084
  255TIP3    H124960   4.790   3.219  17.514  0.5335 -1.8117  1.9994
  255TIP3    H224961   4.640   3.218  17.537  0.1825 -0.3671  0.0219
  256TIP3   OH224962   6.612   2.293  18.479 -0.0856 -0.5200  0.4407
  256TIP3    H124963   6.706   2.300  18.462 -0.2927 -0.6239 -0.8112
  256TIP3    H224964   6.599   2.340  18.562  0.9426  0.2083  0.2069
  257TIP3   OH224965   1.872   3.028  18.562  0.2397  0.0748 -0.0118
  257TIP3    H124966   1.794   2.992  18.604 -0.7284  1.1118 -0.8702
  257TIP3    H224967   1.877   3.118  18.593  1.5936 -0.2177  0.6786
  258TIP3   OH224968   3.088   4.319  17.990  0.4498  0.3584  0.1084
  258TIP3    H124969   3.006   4.287  18.026  1.0730 -0.4235  0.8587
  258TIP3    H224970   3.080   4.306  17.895 -0.9468  1.8458 -0.0200
  259TIP3   OH224971   6.208   5.725  18.716  0.5261  0.0758 -0.0549
  259TIP3    H124972   6.259   5.771  18.783 -1.0263  0.7081  0.7321
  259TIP3    H224973   6.150   5.668  18.765 -2.5262  2.4626 -0.5965
  260TIP3   OH224974   1.987   1.934  20.281  0.1144 -0.1366  0.8521
  260TIP3    H124975   1.957   1.854  20.324  1.2677 -0.2897  1.4140
  260TIP3    H224976   1.990   1.999  20.351  0.3029  0.0830  0.6420
  261TIP3   OH224977   1.783   1.591  20.650 -0.1061  0.6949  0.2101
  261TIP3    H124978   1.745   1.550  20.728 -0.3845  0.1585 -0.1959
  261TIP3    H224979   1.816   1.675  20.680 -1.7170  1.2306  0.5647
  262TIP3   OH224980   3.070   3.816  20.838  0.1736 -0.2147 -1.0088
  262TIP3    H124981   2.999   3.879  20.827  0.0645 -0.0915  0.2110
  262TIP3    H224982   3.030   3.731  20.819 -0.2126 -0.1082 -0.6868
  263TIP3   OH224983   3.649   3.837  20.409 -0.0075 -0.4452 -0.1866
  263TIP3    H124984   3.705   3.774  20.454 -0.5178 -1.1964 -0.5814
  263TIP3    H224985   3.561   3.800  20.415 -0.2748  0.0963 -0.6538
  264TIP3   OH224986   5.836   1.036  18.859 -0.0163 -0.4679  0.2204
  264TIP3    H124987   5.748   1.032  18.822 -0.6802  2.7231  1.1287
  264TIP3    H224988   5.892   1.064  18.786 -0.5699  1.6130  0.5321
  265TIP3   OH224989   3.393   5.705  17.697 -0.6779 -0.1627 -0.4211
  265TIP3    H124990   3.330   5.775  17.688 -0.1238  0.0951 -2.8539
  265TIP3    H224991   3.439   5.724  17.779 -1.0699  1.8721 -0.6390
  266TIP3   OH224992   4.669   2.212  19.773  0.5276  0.1817  0.0606
  266TIP3    H124993   4.642   2.300  19.797 -0.3222 -0.3976  1.3051
  266TIP3    H224994   4.764   2.216  19.769  0.5058  1.0924  0.3621
  267TIP3   OH224995   2.625   3.641  20.384  0.3676  0.1883  0.0516
  267TIP3    H124996   2.607   3.694  20.306 -1.0637 -0.8136 -0.3434
  267TIP3    H224997   2.559   3.571  20.381  0.8658 -0.3919  1.6834
  268TIP3   OH224998   0.129   2.193  19.667  0.2781  0.4159  0.2654
  268TIP3    H124999   0.110   2.265  19.608  2.1301  0.9170  0.2358
  268TIP3    H225000   0.120   2.114  19.613 -1.8495  0.5498  0.3255
  269TIP3   OH225001   1.917   0.109  18.694  0.1882 -0.4620 -0.3731
  269TIP3    H125002   1.887   0.181  18.749  0.4939 -1.2709  0.9067
  269TIP3    H225003   1.919   0.145  18.606 -0.1522  0.9364  0.1634
  270TIP3   OH225004   5.244   0.393  17.166 -0.7717  0.0734  0.0691
  270TIP3    H125005   5.296   0.350  17.234 -0.5440 -0.6800 -0.5551
  270TIP3    H225006   5.254   0.336  17.090 -0.9933  0.9123 -0.6038
  271TIP3   OH225007   1.179   2.695  18.277  0.2931 -0.2698  0.2570
  271TIP3    H125008   1.245   2.706  18.346  1.4223  1.2099 -0.9975
  271TIP3    H225009   1.159   2.601  18.278 -1.5639 -0.0382  4.1721
  272TIP3   OH225010   0.732   1.865  17.186  0.9491 -0.1783 -0.4611
  272TIP3    H125011   0.797   1.795  17.193 -0.2111 -1.4780 -1.8527
  272TIP3    H225012   0.758   1.913  17.106  0.2952 -0.6305 -0.9554
  273TIP3   OH225013   5.360   2.820  18.643 -0.2990 -0.4350  0.2085
  273TIP3    H125014   5.439   2.862  18.607 -1.0315  1.1686  0.3451
  273TIP3    H225015   5.290   2.845  18.581 -0.8345 -1.2247  0.4744
  274TIP3   OH225016   1.997   3.269  18.140  0.3293 -0.3675  0.4209
  274TIP3    H125017   1.991   3.224  18.056  1.3528 -1.0005  0.6716
  274TIP3    H225018   2.079   3.318  18.136 -1.7082  3.2925 -0.6671
  275TIP3   OH225019   5.768   0.018  17.514 -0.0461  0.1822  0.7358
  275TIP3    H125020   5.742   0.105  17.545 -0.8791  0.1803  0.0966
  275TIP3    H225021   5.816   0.035  17.433  2.9453  0.2518  2.3991
  276TIP3   OH225022   0.332   6.537  17.356 -0.0611 -0.1623 -0.2014
  276TIP3    H125023   0.368   6.506  17.273 -2.2583  1.2244 -1.7841
  276TIP3    H225024   0.406   6.576  17.402  1.5507 -2.4387 -0.6945
  277TIP3   OH225025   5.861   4.425  17.671 -0.3111 -0.3907  0.4626
  277TIP3    H125026   5.788   4.463  17.720  0.4725  0.7604  0.7739
  277TIP3    H225027   5.887   4.494  17.610  0.6374 -0.7120  0.4877
  278TIP3   OH225028   2.779   1.154  18.183 -0.0127 -0.1818  0.1880
  278TIP3    H125029   2.848   1.124  18.243  0.3162 -0.6443 -0.4132
  278TIP3    H225030   2.809   1.240  18.153  0.0859 -0.1903  0.2616
  279TIP3   OH225031   3.779   0.543  19.287  0.4097 -0.3058  0.3803
  279TIP3    H125032   3.805   0.593  19.209  0.4671  0.5908  0.9609
  279TIP3    H225033   3.837   0.467  19.288  1.1741  0.2697  0.1777
  280TIP3   OH225034   4.185   6.160  18.054  0.0676 -0.5382  0.3966
  280TIP3    H125035   4.166   6.226  18.121  1.0914 -2.7619  3.1128
  280TIP3    H225036   4.121   6.091  18.070  1.5520 -1.9783  0.4363
  281TIP3   OH225037   5.698   4.490  18.401  0.4771 -0.1673  0.1413
  281TIP3    H125038   5.685   4.452  18.488  0.6145  1.9552  1.1473
  281TIP3    H225039   5.793   4.499  18.393  0.4361  0.1875  0.0349
  282TIP3   OH225040   2.661   0.759  19.370 -0.3928 -0.1734 -0.4974
  282TIP3    H125041   2.693   0.772  19.280 -0.4040  1.2174 -0.3219
  282TIP3    H225042   2.687   0.669  19.392 -0.2253 -0.4697 -1.8220
  283TIP3   OH225043   1.410   2.083  18.427  0.1331 -0.2798 -0.4201
  283TIP3    H125044   1.457   2.078  18.510  1.3787 -0.2863 -1.0927
  283TIP3    H225045   1.374   1.996  18.413 -3.0424  0.5045  1.6921
  284TIP3   OH225046   5.796   2.500  10.863 -0.4473 -0.5023  0.0717
  284TIP3    H125047   5.806   2.488  10.957  0.0012 -1.5186 -0.0911
  284TIP3    H225048   5.851   2.575  10.841  0.1335 -0.8047  0.4874
  285TIP3   OH225049   1.718   1.171  10.679 -0.9439  0.2942 -0.3247
  285TIP3    H125050   1.705   1.077  10.669  0.1659  0.2076 -1.1537
  285TIP3    H225051   1.808   1.180  10.711 -1.4020  1.0331  0.8098
  286TIP3   OH225052   4.938   4.726  12.426 -0.1223  0.3683 -0.6615
  286TIP3    H125053   5.016   4.777  12.406 -0.9335  1.6449 -0.6767
  286TIP3    H225054   4.945   4.707  12.520 -0.3402  1.4458 -0.4221
  287TIP3   OH225055   1.734   0.648  10.304  0.6553 -0.1178 -0.4461
  287TIP3    H125056   1.747   0.607  10.389 -0.3116 -1.6408 -0.9857
  287TIP3    H225057   1.700   0.736  10.324 -1.4206 -1.1149  0.7602
  288TIP3   OH225058   0.586   1.131  12.107 -0.1751  0.6588 -0.2782
  288TIP3    H125059   0.546   1.072  12.042 -0.7095  0.9633 -0.2369
  288TIP3    H225060   0.655   1.078  12.148 -1.1310 -0.2064  0.2845
  289TIP3   OH225061   5.291   4.481  12.267 -0.3884 -0.2680  0.6245
  289TIP3    H125062   5.268   4.550  12.328 -0.3854 -0.5302  0.9224
  289TIP3    H225063   5.286   4.400  12.318 -0.3601 -0.4863  0.2890
  290TIP3   OH225064   0.040   5.157   9.494 -0.0595 -0.0787 -0.0088
  290TIP3    H125065   0.045   5.061   9.496 -0.6311 -0.1330 -0.9738
  290TIP3    H225066  -0.054   5.176   9.492  0.0278  0.5331  0.9144
  291TIP3   OH225067   3.239   6.284  10.746 -0.4352  0.0828 -0.3115
  291TIP3    H125068   3.247   6.278  10.651  2.8541  1.2102 -0.2305
  291TIP3    H225069   3.306   6.225  10.779 -2.2501 -1.1330  1.4144
  292TIP3   OH225070   3.264   1.184  10.640  0.8744 -0.3427  0.2010
  292TIP3    H125071   3.311   1.112  10.680  0.9320 -0.8792 -0.7919
  292TIP3    H225072   3.174   1.153  10.631  1.1993 -0.9038 -1.5724
  293TIP3   OH225073   5.176   2.653  12.055  0.5341  0.7043  0.6443
  293TIP3    H125074   5.198   2.671  11.963  0.1241  0.2158  0.4452
  293TIP3    H225075   5.260   2.661  12.101  0.4577  2.5908  0.5059
  294TIP3   OH225076   4.697   2.467  10.667  0.4955 -0.4236  0.2585
  294TIP3    H125077   4.765   2.405  10.642 -1.3147 -2.1096 -0.8471
  294TIP3    H225078   4.674   2.444  10.757  0.9394 -0.2790  0.4082
  295TIP3   OH225079   4.409   2.732   9.592 -0.4332 -0.3892 -0.5509
  295TIP3    H125080   4.355   2.786   9.649 -1.0714 -1.3076 -0.2720
  295TIP3    H225081   4.469   2.795   9.550  0.2635  0.2760  1.3221
  296TIP3   OH225082   6.626   3.845  11.645 -0.0308  0.1181  0.3260
  296TIP3    H125083   6.553   3.872  11.590  0.2554  2.1243  0.8413
  296TIP3    H225084   6.585   3.793  11.715 -0.4426 -2.0351 -1.4245
  297TIP3   OH225085   0.382   6.238  12.282  0.0146  0.2530 -0.2262
  297TIP3    H125086   0.316   6.199  12.224 -0.5056 -0.9375  1.1272
  297TIP3    H225087   0.357   6.331  12.286  0.5103  0.5539 -2.4477
  298TIP3   OH225088   0.908   2.678  12.077 -0.2841  0.5353 -0.3506
  298TIP3    H125089   0.912   2.583  12.065  1.6834  0.6895 -1.2554
  298TIP3    H225090   0.929   2.691  12.169 -2.9184  0.0207  0.4049
  299TIP3   OH225091   5.026   1.855  11.565 -0.1190  0.3843 -0.2194
  299TIP3    H125092   5.066   1.911  11.498 -1.1063  2.5517  0.8835
  299TIP3    H225093   5.044   1.900  11.648 -1.0032 -0.9373  0.7330
  300TIP3   OH225094   2.490   2.236   9.707  0.3408  0.3505 -0.1336
  300TIP3    H125095   2.432   2.312   9.699  1.1297  1.1069  0.9957
  300TIP3    H225096   2.441   2.174   9.761 -0.5121 -0.1800 -1.4790
  301TIP3   OH225097   2.318   5.242  11.353 -0.7404  0.0288 -0.2148
  301TIP3    H125098   2.258   5.171  11.375  0.4220 -1.0973 -0.5827
  301TIP3    H225099   2.294   5.267  11.264 -2.7580  1.8220  0.7297
  302TIP3   OH225100   6.383   2.619  10.049  0.2512 -1.1688  0.0322
  302TIP3    H125101   6.407   2.575  10.131  2.3369 -0.5750 -0.2055
  302TIP3    H225102   6.363   2.547   9.988  0.1835 -1.6625  0.6311
  303TIP3   OH225103   0.964   6.520  10.196  0.3892 -0.1927  0.0088
  303TIP3    H125104   0.943   6.572  10.118  0.9395  0.0945  0.0463
  303TIP3    H225105   0.879   6.487  10.226 -0.0132  0.8832  0.1182
  304TIP3   OH225106   2.614   5.049  11.771 -0.3447 -0.0816 -0.2833
  304TIP3    H125107   2.529   5.026  11.809 -0.1647 -1.0550 -0.4432
  304TIP3    H225108   2.678   5.026  11.839 -0.0222 -1.8136 -1.1375
  305TIP3   OH225109   3.087   0.760  11.311 -0.3920 -0.2497  0.2424
  305TIP3    H125110   3.041   0.684  11.347  0.6032 -0.2360  1.6641
  305TIP3    H225111   3.030   0.794  11.243 -2.2014 -0.5767  1.5348
  306TIP3   OH225112   4.747   5.052  10.159 -0.7405 -0.0701 -0.5883
  306TIP3    H125113   4.834   5.090  10.172  0.1350 -2.0119 -0.5254
  306TIP3    H225114   4.738   5.043  10.065 -0.6296 -0.3890 -0.5706
  307TIP3   OH225115   1.044   6.672  11.828 -0.6949 -0.2693 -0.4046
  307TIP3    H125116   0.955   6.640  11.811 -0.4322  0.3619 -3.8707
  307TIP3    H225117   1.074   6.703  11.742  1.8430  2.1632  1.1925
  308TIP3   OH225118   0.804   6.030  11.840  0.2590 -0.7929  0.2318
  308TIP3    H125119   0.864   6.017  11.767 -0.4444  2.5931 -1.0843
  308TIP3    H225120   0.717   6.027  11.801 -0.0872  3.2648  0.3200
  309TIP3   OH225121   0.345   3.798   9.612  1.4360  0.4340 -0.1875
  309TIP3    H125122   0.276   3.732   9.607  0.9497  0.8956  0.3748
  309TIP3    H225123   0.424   3.751   9.585  1.0280 -0.2803 -0.1754
  310TIP3   OH225124   3.259   4.145  11.399 -0.1050 -0.4299 -0.7606
  310TIP3    H125125   3.295   4.095  11.471 -1.1875 -0.9762 -0.5727
  310TIP3    H225126   3.265   4.236  11.427  2.6981 -0.3245 -1.4755
  311TIP3   OH225127   0.217   5.586   9.437  0.8984  0.3040  0.0061
  311TIP3    H125128   0.219   5.582   9.341 -0.1472 -0.0040 -0.0081
  311TIP3    H225129   0.133   5.626   9.457  0.1706 -1.5542  0.8441
  312TIP3   OH225130   5.064   4.471  11.441 -0.2974 -0.1827  0.7234
  312TIP3    H125131   5.131   4.483  11.508  1.4325 -1.1291 -0.7380
  312TIP3    H225132   4.981   4.474  11.488  0.7198  1.5417  2.5381
  313TIP3   OH225133   3.210   1.894  12.190 -0.0380 -0.1097  0.2587
  313TIP3    H125134   3.253   1.821  12.235  2.9317  1.7973  0.7922
  313TIP3    H225135   3.152   1.852  12.127 -1.3877 -2.8815  3.0730
  314TIP3   OH225136   1.354   2.823  13.246 -0.3601 -0.1237 -0.1817
  314TIP3    H125137   1.294   2.777  13.304 -1.7767  0.1549 -1.3765
  314TIP3    H225138   1.314   2.816  13.159  0.4779  1.5419 -0.7438
  315TIP3   OH225139   5.722   6.677  10.775 -0.5254  0.4886 -0.0322
  315TIP3    H125140   5.743   6.666  10.868 -0.2615  3.5114  0.3668
  315TIP3    H225141   5.805   6.663  10.730 -0.6142 -0.7916  0.1537
  316TIP3   OH225142   2.003   6.717  11.706  0.4014  0.0040  0.4255
  316TIP3    H125143   2.085   6.765  11.698  0.7245 -0.6863 -0.5992
  316TIP3    H225144   2.016   6.660  11.782  0.7635  0.0961  0.4348
  317TIP3   OH225145   3.953   0.331   9.824 -0.6703 -0.3521 -0.2420
  317TIP3    H125146   3.878   0.342   9.881 -0.2791  0.2958  0.1624
  317TIP3    H225147   3.944   0.243   9.788 -0.8113 -0.8537  0.9922
  318TIP3   OH225148   2.910   0.128  11.427 -0.0593  0.1196 -0.2880
  318TIP3    H125149   2.897   0.043  11.384  0.1091  0.3689 -0.8370
  318TIP3    H225150   2.851   0.187  11.382 -0.5060  0.2066  0.3946
  319TIP3   OH225151   5.526   3.172  11.464 -0.1774 -0.1327  0.0183
  319TIP3    H125152   5.498   3.145  11.377  1.1900  1.1103 -0.8622
  319TIP3    H225153   5.479   3.254  11.479 -2.1855 -1.4764  1.4839
  320TIP3   OH225154   6.640   4.461   9.274  0.6448 -0.2662 -0.0270
  320TIP3    H125155   6.552   4.476   9.238 -0.2072  0.7465  2.3009
  320TIP3    H225156   6.689   4.539   9.249 -0.0922  0.6747  1.2974
  321TIP3   OH225157   4.008   6.314   9.669  0.4324  0.6737 -0.1267
  321TIP3    H125158   4.078   6.260   9.705  0.9115  0.8538 -0.7675
  321TIP3    H225159   3.954   6.337   9.744 -1.8560 -3.5462 -0.1490
  322TIP3   OH225160   5.851   5.754  12.231  0.2781  0.1196 -0.5729
  322TIP3    H125161   5.930   5.793  12.194 -0.4454  0.2611 -2.0873
  322TIP3    H225162   5.788   5.827  12.237  0.0144 -0.1382 -0.1272
  323TIP3   OH225163   4.611   5.785  17.508 -0.1068  0.4419  0.2196
  323TIP3    H125164   4.516   5.795  17.501  0.0466  1.5627 -0.4111
  323TIP3    H225165   4.646   5.840  17.438  0.9672 -1.3599 -0.7548
  324TIP3   OH225166   4.978   2.089  20.576  0.4009 -0.8293 -0.2497
  324TIP3    H125167   4.914   2.027  20.609 -0.3445 -1.0983 -2.0425
  324TIP3    H225168   4.936   2.175  20.586  0.3321 -0.8739 -0.1595
  325TIP3   OH225169   5.831   2.175  17.981 -0.3978 -0.0405 -0.5020
  325TIP3    H125170   5.818   2.266  17.954  0.7164  0.1074 -0.5927
  325TIP3    H225171   5.923   2.158  17.963  0.1256 -0.3212  2.0606
  326TIP3   OH225172   3.274   1.866  18.446 -0.1188 -0.0621 -0.2488
  326TIP3    H125173   3.369   1.864  18.456 -0.3088  0.5814  2.4004
  326TIP3    H225174   3.245   1.778  18.470 -0.3136  0.4190  1.4168
  327TIP3   OH225175   3.292   0.966  20.551  0.7877  0.1894  0.4095
  327TIP3    H125176   3.274   0.882  20.593 -0.5161 -0.5008 -1.4425
  327TIP3    H225177   3.272   0.953  20.459  0.0631  2.6730  0.1267
  328TIP3   OH225178   5.479   3.298  19.742  0.4785 -0.9205 -0.0806
  328TIP3    H125179   5.541   3.362  19.778  1.6404 -1.7205 -0.6123
  328TIP3    H225180   5.402   3.350  19.720  0.7931  0.0347  0.9611
  329TIP3   OH225181   4.595   1.494  18.522 -0.1830 -0.0909  0.5998
  329TIP3    H125182   4.641   1.415  18.491 -1.3374 -0.1966 -0.9465
  329TIP3    H225183   4.509   1.462  18.550 -0.6073  0.5914  0.1035
  330TIP3   OH225184   5.458   6.080  17.586 -0.7088  0.1740 -0.0029
  330TIP3    H125185   5.464   6.143  17.515 -0.8009  0.4908  0.2697
  330TIP3    H225186   5.388   6.020  17.559 -1.5524  0.9760  0.3537
  331TIP3   OH225187   5.920   6.144  18.725  0.6422 -0.0527  0.0223
  331TIP3    H125188   5.999   6.185  18.761  0.3164 -0.0121  0.7005
  331TIP3    H225189   5.950   6.059  18.692  1.2217  0.4975 -0.9234
  332TIP3   OH225190   5.315   5.834  18.347 -0.5829 -0.1890  0.0673
  332TIP3    H125191   5.228   5.817  18.310 -0.4261  0.3781 -0.5821
  332TIP3    H225192   5.340   5.751  18.388 -0.3399 -1.1858 -1.9807
  333TIP3   OH225193   6.321   3.329  19.728  0.3405 -0.4179  0.4455
  333TIP3    H125194   6.328   3.370  19.814  1.0346  0.0875  0.1658
  333TIP3    H225195   6.410   3.299  19.710  0.6239  1.0410 -0.8317
  334TIP3   OH225196   1.495   3.328  17.776  0.1615 -0.1106 -0.2320
  334TIP3    H125197   1.411   3.364  17.805  0.8459  1.4085 -0.1056
  334TIP3    H225198   1.470   3.261  17.712 -1.1570  0.2278 -0.1079
  335TIP3   OH225199   2.840   2.220  18.249 -0.3065 -0.7315  0.0030
  335TIP3    H125200   2.889   2.235  18.330 -0.6115 -3.7561  0.8624
  335TIP3    H225201   2.907   2.193  18.186 -0.0527  1.7333 -0.8825
  336TIP3   OH225202   1.975   1.333  19.309  0.3557 -0.2871 -0.3827
  336TIP3    H125203   1.904   1.385  19.271 -0.3666 -0.8701  0.1271
  336TIP3    H225204   2.053   1.360  19.261 -0.1226  0.7266 -0.6291
  337TIP3   OH225205   2.789   2.041  17.920 -0.1266  0.2552  0.2314
  337TIP3    H125206   2.853   2.072  17.984  0.4033  0.6423 -0.4703
  337TIP3    H225207   2.773   2.117  17.863  1.1366 -0.6733 -1.4752
  338TIP3   OH225208   2.232   5.329  20.570  0.3379  0.3170 -0.2807
  338TIP3    H125209   2.325   5.316  20.551  0.6261  1.4670  0.2519
  338TIP3    H225210   2.209   5.409  20.523  0.1844  1.2349  1.2815
  339TIP3   OH225211   6.055   4.271  17.922 -0.2387 -0.2623 -0.2634
  339TIP3    H125212   5.987   4.330  17.954  1.7462  1.0340  1.8796
  339TIP3    H225213   6.102   4.323  17.857  1.8558  0.8854  2.0188
  340TIP3   OH225214   4.858   6.362  18.187  0.4948  0.4149  0.1118
  340TIP3    H125215   4.857   6.331  18.278 -1.4167 -2.7815 -0.8573
  340TIP3    H225216   4.797   6.436  18.187 -1.4222 -1.0711  1.0654
  341TIP3   OH225217   3.051   4.842  19.613 -0.5249 -0.7223  0.1669
  341TIP3    H125218   3.096   4.821  19.531 -0.2812 -0.3687  0.2096
  341TIP3    H225219   3.004   4.923  19.595  1.3565  0.6464  1.0285
  342TIP3   OH225220   6.731   1.999  20.561  0.2120  0.0340  1.1458
  342TIP3    H125221   6.804   1.967  20.614  0.9680  1.6888  1.1537
  342TIP3    H225222   6.752   2.090  20.544  0.3291 -0.5528 -2.5862
  343TIP3   OH225223   6.719   1.268  18.855  0.0805  0.0235  0.1222
  343TIP3    H125224   6.760   1.213  18.789 -2.3237  0.1682 -1.5960
  343TIP3    H225225   6.628   1.239  18.858 -0.1836  0.8941  2.4766
  344TIP3   OH225226   2.851   4.619  18.083  0.6541 -0.2661  0.2029
  344TIP3    H125227   2.775   4.564  18.063  0.1019  0.4595  0.2537
  344TIP3    H225228   2.863   4.671  18.004 -0.0473  0.9107  0.8449
  345TIP3   OH225229   0.866   1.662  19.707  0.4908  0.0881  0.4318
  345TIP3    H125230   0.802   1.610  19.756  0.6008 -1.7268 -1.2245
  345TIP3    H225231   0.951   1.623  19.730  0.6217 -0.1337 -0.3980
  346TIP3   OH225232   6.088   3.175  18.056  0.5626 -0.0822 -0.3289
  346TIP3    H125233   6.072   3.195  17.964  0.4513 -0.8729 -0.4852
  346TIP3    H225234   6.084   3.261  18.100 -0.2822  0.1946 -0.9215
  347TIP3   OH225235   1.920   6.709  18.146  0.2849 -0.2916  0.3350
  347TIP3    H125236   1.903   6.615  18.143 -1.3605 -0.0075 -2.2579
  347TIP3    H225237   1.835   6.749  18.130  1.3372  1.5703 -1.0204
  348TIP3   OH225238   4.157   3.734  19.265 -0.5949  0.4340  0.0411
  348TIP3    H125239   4.112   3.739  19.349 -0.2298 -0.9406  0.3469
  348TIP3    H225240   4.201   3.818  19.255  0.1954  0.2467  1.7143
  349TIP3   OH225241   3.211   2.346  19.814 -0.2305 -0.3399  0.9517
  349TIP3    H125242   3.174   2.261  19.792 -0.2474 -0.3489  1.0154
  349TIP3    H225243   3.213   2.347  19.910  0.5149 -0.5981  0.9465
  350TIP3   OH225244   4.557   3.999  18.847 -0.2978  0.0370 -0.3937
  350TIP3    H125245   4.497   3.943  18.896  0.6012  0.2002  0.9466
  350TIP3    H225246   4.590   3.942  18.777 -0.3202 -0.7416  0.2091
  351TIP3   OH225247   5.604   4.465  17.765 -0.0072  0.0076 -0.0998
  351TIP3    H125248   5.556   4.438  17.687 -1.0556  2.1915 -0.2779
  351TIP3    H225249   5.554   4.427  17.838  0.3354 -1.0989 -0.4237
  352TIP3   OH225250   6.678   4.653  19.486 -0.0372  0.0652 -0.0464
  352TIP3    H125251   6.652   4.572  19.442 -0.9279 -0.3873  1.2670
  352TIP3    H225252   6.613   4.717  19.457  0.1564  0.1056 -0.4035
  353TIP3   OH225253   1.369   2.506  20.520 -0.3452 -0.7328 -0.6957
  353TIP3    H125254   1.355   2.585  20.468  0.7363 -0.1798 -0.1731
  353TIP3    H225255   1.311   2.441  20.480 -2.1668  0.6235 -0.3921
  354TIP3   OH225256   5.852   1.568  18.379  0.3710 -0.1289  0.3428
  354TIP3    H125257   5.845   1.663  18.393 -0.3470 -0.0304 -0.6213
  354TIP3    H225258   5.946   1.553  18.368  0.6999  0.1846  2.2828
  355TIP3   OH225259   2.607   5.475  19.281 -0.1479 -0.1309 -0.0440
  355TIP3    H125260   2.583   5.524  19.360 -0.6620 -1.1026  0.4172
  355TIP3    H225261   2.626   5.543  19.216  3.5624  0.8327  1.7685
  356TIP3   OH225262   3.723   2.189  17.720  0.5215  0.3649  0.1778
  356TIP3    H125263   3.683   2.254  17.778 -2.1802  0.0402 -1.1329
  356TIP3    H225264   3.764   2.241  17.651  0.2106  0.7090  0.2466
  357TIP3   OH225265   0.886   0.915  18.803 -0.5711 -0.6686  0.4243
  357TIP3    H125266   0.852   0.839  18.756  0.2823 -0.5680 -0.3788
  357TIP3    H225267   0.809   0.953  18.845 -1.6281 -0.0503 -1.8935
  358TIP3   OH225268   6.487   1.510  19.710  0.6433  0.5084 -0.0904
  358TIP3    H125269   6.478   1.581  19.774 -1.5212  0.5443 -0.3587
  358TIP3    H225270   6.423   1.531  19.642  1.3282 -0.7119 -1.1503
  359TIP3   OH225271   5.950   4.922  18.766  0.0970  0.6463  0.1287
  359TIP3    H125272   6.013   4.850  18.776 -0.8245 -0.1654  0.2323
  359TIP3    H225273   5.926   4.919  18.674  3.3237  3.6668 -1.0364
  360TIP3   OH225274   1.003   5.261  20.311  0.3005  0.3758 -0.3020
  360TIP3    H125275   1.065   5.221  20.371  1.2095  0.7108 -0.9932
  360TIP3    H225276   0.994   5.351  20.342  2.3507  1.1687 -1.7955
  361TIP3   OH225277   0.388   1.265  17.814  0.4232  0.2456 -0.1252
  361TIP3    H125278   0.335   1.323  17.870 -0.5019 -0.1448 -0.5830
  361TIP3    H225279   0.471   1.312  17.804  0.4513  0.5341  1.2034
  362TIP3   OH225280   2.556   4.045  17.895 -0.1903 -0.0214  0.1606
  362TIP3    H125281   2.580   3.968  17.844 -1.0216 -0.9621  1.1356
  362TIP3    H225282   2.619   4.112  17.868  0.4104 -0.9626 -0.8755
  363TIP3   OH225283   5.064   5.213  19.336 -0.0240  0.5828 -0.3074
  363TIP3    H125284   4.976   5.209  19.372  0.0612  0.7325 -0.0808
  363TIP3    H225285   5.095   5.302  19.357  1.8071 -0.7376  3.4823
  364TIP3   OH225286   2.809   4.178  17.509 -0.1206 -0.0656  0.2607
  364TIP3    H125287   2.805   4.222  17.425 -1.5524 -0.5757  0.0312
  364TIP3    H225288   2.808   4.084  17.488 -1.8547 -0.2104  0.8561
  365TIP3   OH225289   4.355   1.654  18.667 -0.6526  0.7971 -0.2140
  365TIP3    H125290   4.327   1.579  18.615  1.7664 -0.4913  0.2088
  365TIP3    H225291   4.355   1.623  18.757  1.2735  0.9430 -0.1159
  366TIP3   OH225292   0.036   0.734  20.306 -0.1846  0.4464  0.1331
  366TIP3    H125293   0.006   0.644  20.303 -0.6597  0.5395  1.5224
  366TIP3    H225294   0.056   0.751  20.398 -0.4866  1.8739 -0.0289
  367TIP3   OH225295   1.191   0.635  17.163 -0.2070  0.5602  0.1526
  367TIP3    H125296   1.125   0.686  17.209  0.1827  0.9078  0.3257
  367TIP3    H225297   1.178   0.658  17.070  0.8355  2.0194  0.3354
  368TIP3   OH225298   5.042   6.712  18.210 -0.1745 -0.0113  0.0994
  368TIP3    H125299   5.123   6.763  18.201 -0.6129  0.4281 -1.7638
  368TIP3    H225300   5.010   6.701  18.120 -1.0118 -2.1231  0.5942
  369TIP3   OH225301   0.013   2.519  18.105 -0.5030  0.3571 -0.5802
  369TIP3    H125302   0.092   2.540  18.056 -0.8660  0.0501 -1.3339
  369TIP3    H225303  -0.023   2.442  18.059 -1.8235  1.1563 -0.9656
  370TIP3   OH225304   1.092   1.197  20.120  0.1153  0.1030 -0.1077
  370TIP3    H125305   1.114   1.288  20.100  0.6399  0.2801  1.1791
  370TIP3    H225306   1.169   1.163  20.166 -0.9493 -0.2994  1.4369
  371TIP3   OH225307   4.027   3.794  18.737  0.0843  0.3350  0.4374
  371TIP3    H125308   3.983   3.730  18.682  0.3529  0.4091  0.1393
  371TIP3    H225309   4.088   3.743  18.791 -0.8372  0.1440  1.3375
  372TIP3   OH225310   1.662   3.846  20.720  0.2859 -0.7441  0.7206
  372TIP3    H125311   1.673   3.873  20.629  2.7585 -2.4538  0.4170
  372TIP3    H225312   1.601   3.772  20.717 -0.6467  0.0041  0.6604
  373TIP3   OH225313   1.825   4.856  17.486 -0.1662 -0.1440 -0.1349
  373TIP3    H125314   1.912   4.883  17.455 -0.5967 -0.3954 -1.6229
  373TIP3    H225315   1.834   4.763  17.505 -0.0294 -0.1025  0.0035
  374TIP3   OH225316   2.223   1.972  19.080  0.1237 -0.2178  0.1851
  374TIP3    H125317   2.237   2.042  19.143 -0.0480  1.8538 -1.9281
  374TIP3    H225318   2.282   1.902  19.107  0.0550  0.5740  2.5806
  375TIP3   OH225319   0.442   4.178  19.206  0.3149  0.1181  0.1403
  375TIP3    H125320   0.497   4.128  19.266  0.7602  0.2470 -0.1551
  375TIP3    H225321   0.361   4.127  19.200  0.7564 -0.5752 -0.1537
  376TIP3   OH225322   3.826   2.045  19.908 -0.0675 -0.1019 -0.3669
  376TIP3    H125323   3.840   2.137  19.933 -0.4154  0.3809 -1.8659
  376TIP3    H225324   3.885   1.996  19.965  0.0510  1.0387  0.5317
  377TIP3   OH225325   2.093   5.704  19.462  0.3751  0.2206 -0.1418
  377TIP3    H125326   2.111   5.625  19.412 -1.1336 -1.5623  1.9193
  377TIP3    H225327   2.141   5.773  19.417  1.5100 -1.7981 -2.2139
  378TIP3   OH225328   4.274   6.247  20.787  0.2598 -0.0309 -0.4787
  378TIP3    H125329   4.292   6.163  20.830 -0.8142  0.1807  0.4101
  378TIP3    H225330   4.218   6.225  20.713 -0.1731 -0.0759 -0.1374
  379TIP3   OH225331   0.998   1.595  18.986  0.2028 -0.0556 -0.2147
  379TIP3    H125332   0.941   1.671  18.991  2.1107  1.3777  0.9194
  379TIP3    H225333   1.017   1.573  19.077  0.8634 -0.9737 -0.5628
  380TIP3   OH225334   4.117   3.374  18.469  0.9912  0.4909 -0.5829
  380TIP3    H125335   4.130   3.284  18.501 -1.7975  0.6750  1.4041
  380TIP3    H225336   4.101   3.364  18.376  2.0651 -0.9010 -0.6619
  381TIP3   OH225337   5.267   5.252  18.298  0.2365  0.0998  0.4886
  381TIP3    H125338   5.245   5.322  18.236  1.9191  0.7180  0.5438
  381TIP3    H225339   5.248   5.171  18.251 -3.0040  0.5152  0.8893
  382TIP3   OH225340   4.133   4.181  19.184 -0.0744 -0.2442  0.4279
  382TIP3    H125341   4.087   4.137  19.255 -1.4876  0.2277 -0.1562
  382TIP3    H225342   4.066   4.232  19.140  1.3803  2.1260  0.7652
  383TIP3   OH225343   0.467   5.768  18.858  0.1044  0.0322  0.1090
  383TIP3    H125344   0.392   5.806  18.903 -0.0522  1.7723 -1.4774
  383TIP3    H225345   0.538   5.769  18.922 -0.2478  1.9111  0.5183
  384TIP3   OH225346   4.646   1.510  19.245  0.5173  0.5557  0.5655
  384TIP3    H125347   4.647   1.499  19.150  3.4789  1.5413  0.3794
  384TIP3    H225348   4.626   1.423  19.279  0.2525 -0.0140 -0.9607
  385TIP3   OH225349   5.575   4.789  21.272  0.0093 -0.2729  0.5488
  385TIP3    H125350   5.501   4.751  21.318 -1.0729  1.4278  0.2987
  385TIP3    H225351   5.536   4.848  21.208  1.5687  0.0303 -0.1752
  386TIP3   OH225352   6.486   1.200  20.400  0.1414  0.2027 -0.1351
  386TIP3    H125353   6.465   1.177  20.310 -0.8618 -2.4241  0.6943
  386TIP3    H225354   6.582   1.208  20.401  0.0966  1.4107 -1.6180
  387TIP3   OH225355   3.267   4.992  20.702 -0.5701  0.2002  0.1556
  387TIP3    H125356   3.319   5.063  20.663  0.0080 -0.5047 -0.3786
  387TIP3    H225357   3.195   4.979  20.640 -0.2220 -0.2254 -0.1639
  388TIP3   OH225358   3.003   0.364  19.074 -0.3003  0.2179  0.3711
  388TIP3    H125359   2.927   0.397  19.121 -0.6722  0.2735 -0.2577
  388TIP3    H225360   3.010   0.421  18.997  0.0151 -0.1631  0.1180
  389TIP3   OH225361   5.069   3.967  20.474  0.1286  0.4548 -0.7824
  389TIP3    H125362   5.012   3.925  20.410 -0.8158  0.9553 -0.2902
  389TIP3    H225363   5.010   4.016  20.531  0.8389 -0.6117  0.9779
  390TIP3   OH225364   0.297   0.380  18.445 -0.7714  0.5302  0.1012
  390TIP3    H125365   0.309   0.421  18.531 -0.3237 -1.4631  1.0369
  390TIP3    H225366   0.370   0.318  18.438 -1.2554  0.0958 -1.3879
  391TIP3   OH225367   5.465   4.902  19.656  0.0016  0.6053  0.2436
  391TIP3    H125368   5.414   4.822  19.648 -1.2303  1.2383  1.4113
  391TIP3    H225369   5.410   4.970  19.616  1.4618  0.7624 -1.6833
  392TIP3   OH225370   1.526   4.092  20.737 -0.3427  0.0657  0.1695
  392TIP3    H125371   1.463   4.021  20.753  0.2447 -0.5265 -0.0873
  392TIP3    H225372   1.605   4.064  20.782  0.8619 -0.8979 -2.3159
  393TIP3   OH225373   5.341   0.642  18.729  0.0119  0.1541 -0.2869
  393TIP3    H125374   5.302   0.607  18.649 -0.6491 -0.5359  0.3153
  393TIP3    H225375   5.331   0.571  18.793 -1.5183  1.4742  1.0156
  394TIP3   OH225376   5.985   1.652  18.853  0.6555 -0.4160  0.3347
  394TIP3    H125377   5.913   1.714  18.842  0.0870 -1.2709 -1.2489
  394TIP3    H225378   6.065   1.705  18.845  0.2174  0.4469  1.4609
  395TIP3   OH225379   6.235   1.045  19.164  0.7887  0.0328  0.3048
  395TIP3    H125380   6.275   0.991  19.096  2.5104  0.6431  0.7763
  395TIP3    H225381   6.144   1.014  19.168  1.5734 -2.5743  0.2990
  396TIP3   OH225382   4.615   1.552  20.230  0.1680 -0.0813 -0.0188
  396TIP3    H125383   4.633   1.460  20.252 -0.8329  0.1299  1.8636
  396TIP3    H225384   4.528   1.550  20.190  0.2619  0.0379 -0.2334
  397TIP3   OH225385   6.638   4.394  19.793  0.1569  0.3659  0.1268
  397TIP3    H125386   6.610   4.348  19.872  1.1201 -2.8739 -1.2256
  397TIP3    H225387   6.557   4.429  19.756 -0.7441 -0.6292  1.0675
  398TIP3   OH225388   6.389   1.632  17.707  0.6424 -0.1572  0.6233
  398TIP3    H125389   6.430   1.553  17.741  1.8267  0.6888  1.2459
  398TIP3    H225390   6.453   1.702  17.726 -1.1590  1.2564  1.8318
  399TIP3   OH225391   0.104   0.597  17.588  0.0641  0.0206 -0.3507
  399TIP3    H125392   0.037   0.546  17.542 -0.7198 -0.2012  0.9893
  399TIP3    H225393   0.070   0.606  17.677  1.9747 -0.3878  0.4597
  400TIP3   OH225394   5.699   1.689  17.784  0.6737 -0.3927 -0.0882
  400TIP3    H125395   5.661   1.719  17.701 -1.2306  0.5623  1.0628
  400TIP3    H225396   5.753   1.613  17.760  0.6311  0.1974 -2.2549
  401TIP3   OH225397   1.497   3.557  19.633  0.4649 -0.7458  0.0958
  401TIP3    H125398   1.456   3.622  19.576 -0.0372 -0.5506  0.6744
  401TIP3    H225399   1.528   3.489  19.574 -3.3271 -2.4264 -0.2102
  402TIP3   OH225400   4.250   3.188  20.325  0.1887 -0.3961  0.3540
  402TIP3    H125401   4.166   3.158  20.290  0.5230 -0.6651 -0.2210
  402TIP3    H225402   4.314   3.169  20.256  0.3443  2.2697 -0.3783
  403TIP3   OH225403   3.148   4.777  19.861 -0.0568 -0.7705 -0.0637
  403TIP3    H125404   3.123   4.821  19.780  1.8061  0.5403 -0.0085
  403TIP3    H225405   3.083   4.806  19.925 -0.0379  0.3324 -0.5131
  404TIP3   OH225406   5.004   4.446  18.630 -0.2866  0.2570 -0.3027
  404TIP3    H125407   4.949   4.433  18.553 -0.0793 -0.8795 -0.2733
  404TIP3    H225408   4.976   4.380  18.692  0.7322  0.0082 -0.0798
  405TIP3   OH225409   6.672   6.100  19.888 -0.4081  0.2640 -0.0745
  405TIP3    H125410   6.582   6.068  19.894 -0.3232 -0.1435 -0.8136
  405TIP3    H225411   6.683   6.122  19.795  0.9007 -1.6605 -0.4269
  406TIP3   OH225412   2.269   1.917  18.797 -0.0016  0.3709  0.3295
  406TIP3    H125413   2.212   1.845  18.771  0.8335 -1.0624  2.2213
  406TIP3    H225414   2.252   1.929  18.890  0.2173  2.3562  0.1560
  407TIP3   OH225415   3.610   6.501  19.467  0.3131 -0.0920  0.4078
  407TIP3    H125416   3.563   6.477  19.547  1.2991 -0.9979  0.7451
  407TIP3    H225417   3.591   6.594  19.454 -1.1391 -0.3093  0.8032
  408TIP3   OH225418   0.028   5.642  19.404 -0.0935 -0.3624 -0.5331
  408TIP3    H125419   0.017   5.565  19.347  0.3663 -0.6459 -0.2546
  408TIP3    H225420   0.008   5.717  19.348 -0.2632 -0.6726 -0.8936
  409TIP3   OH225421   2.669   6.659  18.174 -0.3043  0.0532 -0.2114
  409TIP3    H125422   2.583   6.683  18.141  0.6275  1.8184 -1.5014
  409TIP3    H225423   2.710   6.743  18.198  0.3716 -0.8814  2.2139
  410TIP3   OH225424   5.790   4.707  17.918  0.5661 -0.4710 -0.8820
  410TIP3    H125425   5.811   4.714  17.825  1.5417  1.1782 -0.5860
  410TIP3    H225426   5.701   4.743  17.925  0.8066  0.1698 -1.0726
  411TIP3   OH225427   4.067   3.391  19.992  0.0183  0.4948  0.6515
  411TIP3    H125428   4.151   3.350  20.014  0.1096  0.6480  0.5954
  411TIP3    H225429   4.077   3.417  19.901  0.1395  1.0717  0.8226
  412TIP3   OH225430   1.115   2.731  20.236 -0.3340 -0.1112  0.1591
  412TIP3    H125431   1.110   2.784  20.156 -1.7115  0.9364  0.8831
  412TIP3    H225432   1.041   2.670  20.229 -0.1179 -0.4011  0.3685
  413TIP3   OH225433   1.117   3.419  18.570 -0.1832  0.4061  0.5451
  413TIP3    H125434   1.130   3.513  18.578  1.2246  0.3461 -0.5810
  413TIP3    H225435   1.167   3.395  18.492 -1.7465 -1.0399 -0.0590
  414TIP3   OH225436   4.832   6.002  18.711  0.0414 -0.1248  0.0368
  414TIP3    H125437   4.738   6.012  18.727  0.0287 -0.0103 -0.0989
  414TIP3    H225438   4.845   6.042  18.625  0.3121  0.3825  0.3108
  415TIP3   OH225439   6.015   5.052  19.516  0.3621 -0.5223 -0.4738
  415TIP3    H125440   5.986   5.137  19.549 -0.4333 -1.4681  1.4126
  415TIP3    H225441   5.944   5.023  19.458  1.6119  0.9966 -2.9142
  416TIP3   OH225442   0.635   5.901  18.693 -0.4589 -0.2323  0.0114
  416TIP3    H125443   0.558   5.922  18.640  0.3200 -0.9003 -1.4413
  416TIP3    H225444   0.604   5.835  18.755 -1.0939 -0.4355 -0.5055
  417TIP3   OH225445   2.108   2.438  18.029  0.2834 -0.1826  0.4441
  417TIP3    H125446   2.021   2.402  18.011  0.9413 -1.8239  0.4199
  417TIP3    H225447   2.141   2.462  17.942 -0.0994  0.3593  0.4414
  418TIP3   OH225448   1.811   0.730  18.962 -0.0180 -0.8014  0.2665
  418TIP3    H125449   1.821   0.642  18.926  1.4456 -0.2806 -0.6954
  418TIP3    H225450   1.717   0.747  18.958 -0.3553 -2.3822  0.6786
  419TIP3   OH225451   4.654   6.252  19.465 -0.3124 -0.0981 -0.4867
  419TIP3    H125452   4.647   6.220  19.375 -0.1944  2.5447 -1.5317
  419TIP3    H225453   4.746   6.238  19.488  0.2805  1.3197 -1.7386
  420TIP3   OH225454   1.530   0.374  20.101  0.0256  0.5163  0.0366
  420TIP3    H125455   1.461   0.409  20.156  0.1471  0.4671  0.2228
  420TIP3    H225456   1.547   0.286  20.137  0.3120  0.6004  0.1091
  421TIP3   OH225457   3.766   2.093  19.584  0.3709 -0.2528  0.1376
  421TIP3    H125458   3.815   2.138  19.515 -0.0227  0.0466  0.0462
  421TIP3    H225459   3.776   2.149  19.661 -1.3860  0.8346 -0.3597
  422TIP3   OH225460   4.048   6.713  18.015  0.1279  0.0185  0.1278
  422TIP3    H125461   4.042   6.651  17.943 -0.6224 -0.4164  0.5469
  422TIP3    H225462   4.142   6.726  18.028  0.3029  1.6835 -2.2278
  423TIP3   OH225463   2.622   2.931  19.924  0.7070 -0.1156  1.0697
  423TIP3    H125464   2.569   2.962  19.851  1.7799 -0.7218 -0.0009
  423TIP3    H225465   2.695   2.885  19.883  0.2957 -2.2200  2.5447
  424TIP3   OH225466   3.044   1.313  19.385  0.3615  0.1446 -0.3970
  424TIP3    H125467   3.124   1.326  19.435 -1.0084  2.2926  1.4315
  424TIP3    H225468   3.013   1.226  19.412  0.8303  0.3198  0.7623
  425TIP3   OH225469   3.216   5.795  18.722  0.2756  0.3654  0.7649
  425TIP3    H125470   3.131   5.795  18.678  0.4490  3.3788  0.2383
  425TIP3    H225471   3.276   5.760  18.656 -0.4092 -1.1836  0.9179
  426TIP3   OH225472   3.980   3.785  19.039 -0.2041  0.4654 -0.1927
  426TIP3    H125473   4.045   3.846  19.004 -1.2993  1.7210 -0.0672
  426TIP3    H225474   3.983   3.798  19.134  0.2916 -0.4501 -0.0636
  427TIP3   OH225475   0.014   3.819  18.519  0.5243  0.2608 -0.2065
  427TIP3    H125476  -0.045   3.747  18.543 -1.1186  0.6325 -2.7428
  427TIP3    H225477   0.098   3.777  18.502 -0.0823 -0.8906 -0.4350
  428TIP3   OH225478   2.760   4.441  17.395  0.3122  0.6106  0.6286
  428TIP3    H125479   2.849   4.475  17.407  0.3732  0.8314 -0.3278
  428TIP3    H225480   2.722   4.440  17.483  1.2894  0.4341  1.0574
  429TIP3   OH225481   4.310   0.621  17.676  0.7766 -0.5074  0.3895
  429TIP3    H125482   4.325   0.713  17.701 -0.1776 -0.6999  1.7486
  429TIP3    H225483   4.385   0.600  17.620 -0.1694  1.8161 -2.0069
  430TIP3   OH225484   1.506   3.144  18.038 -0.1704  0.0339 -0.2789
  430TIP3    H125485   1.497   3.174  17.948  2.4131  1.4286 -0.1960
  430TIP3    H225486   1.478   3.052  18.036 -1.6027  0.4470 -2.1310
  431TIP3   OH225487   2.059   4.358  17.257  0.0319 -0.5137 -0.0117
  431TIP3    H125488   1.963   4.359  17.256  0.0323 -0.5606 -0.1631
  431TIP3    H225489   2.082   4.389  17.345 -0.1156 -0.1936 -0.0837
  432TIP3   OH225490   2.390   6.297  20.455  0.1442 -0.0394  0.9174
  432TIP3    H125491   2.424   6.349  20.528 -0.4017  1.1357  0.3705
  432TIP3    H225492   2.360   6.363  20.392 -1.3925 -1.0406  0.5783
  433TIP3   OH225493   2.181   1.099  19.128 -0.2346  0.2148 -0.0571
  433TIP3    H125494   2.106   1.043  19.107 -0.6319 -0.1614  2.1244
  433TIP3    H225495   2.154   1.186  19.101 -2.1600  0.3588  2.0722
  434TIP3   OH225496   1.923   5.028  20.764  0.4635 -0.4829 -0.6763
  434TIP3    H125497   1.866   4.952  20.778  0.8129 -0.7693 -0.7928
  434TIP3    H225498   2.011   4.996  20.787  0.6760 -0.2377 -1.1406
  435TIP3   OH225499   2.978   0.642  19.184  0.1413  0.3219 -0.2367
  435TIP3    H125500   3.027   0.615  19.261 -1.0595  1.6584  1.0412
  435TIP3    H225501   3.028   0.715  19.148 -0.6302  1.3952  0.8108
  436TIP3   OH225502   3.097   4.921  17.991 -0.4294  0.5052  0.5599
  436TIP3    H125503   3.176   4.921  18.045  0.5382 -0.1075 -0.7781
  436TIP3    H225504   3.116   4.984  17.921 -1.5376  1.0764  0.7390
  437TIP3   OH225505   3.504   5.058  19.987  0.0583  0.0331 -0.0550
  437TIP3    H125506   3.600   5.051  19.986  0.1817  0.9336  1.6543
  437TIP3    H225507   3.487   5.149  20.013 -1.2281 -0.4833  1.0082
  438TIP3   OH225508   2.235   5.489  18.461  0.4838 -0.1711  0.0896
  438TIP3    H125509   2.152   5.526  18.431 -0.0921 -1.3933  0.1343
  438TIP3    H225510   2.297   5.562  18.455  0.2889 -0.1144 -3.4894
  439TIP3   OH225511   6.547   5.061  20.181 -0.1668  0.0632 -0.2841
  439TIP3    H125512   6.564   4.971  20.153 -0.6248 -0.3860  0.7963
  439TIP3    H225513   6.602   5.073  20.259  0.0641  0.7955 -0.5543
  440TIP3   OH225514   4.932   3.411  18.512  0.7166 -0.0566 -0.0380
  440TIP3    H125515   4.870   3.441  18.578  1.2652  0.5249  0.2177
  440TIP3    H225516   4.980   3.340  18.554 -1.5389 -2.3894 -1.1005
  441TIP3   OH225517   0.921   4.719  17.635  0.0583  0.0651 -0.2768
  441TIP3    H125518   0.933   4.671  17.553  0.7445  0.4488 -0.4072
  441TIP3    H225519   0.867   4.662  17.689  2.2839 -1.6764  0.2610
  442TIP3   OH225520   5.713   6.481  17.815  0.0523 -0.7626  0.5004
  442TIP3    H125521   5.757   6.498  17.732  0.4873  0.2509  0.9287
  442TIP3    H225522   5.631   6.437  17.789 -0.5944  0.9805 -0.6001
  443TIP3   OH225523   0.145   4.887  17.796 -0.4447 -0.2100 -0.4667
  443TIP3    H125524   0.153   4.796  17.767 -0.6210 -0.2867 -0.2725
  443TIP3    H225525   0.209   4.934  17.742 -0.8618 -0.3288 -1.0805
  444TIP3   OH225526   5.194   4.946  18.720  0.3192 -0.2083  0.4154
  444TIP3    H125527   5.161   4.873  18.668 -0.1042  0.4948 -0.3168
  444TIP3    H225528   5.174   5.024  18.669 -0.0683  0.5090  1.6125
  445TIP3   OH225529   1.385   2.191  19.532 -0.0352  0.1463  0.0825
  445TIP3    H125530   1.319   2.123  19.544  0.6052 -0.5780 -0.4193
  445TIP3    H225531   1.394   2.230  19.619  0.0722 -0.8639  0.5441
  446TIP3   OH225532   4.360   3.695  20.868  0.3395 -0.1719  0.9104
  446TIP3    H125533   4.330   3.783  20.843 -0.2897 -0.2696  1.2867
  446TIP3    H225534   4.340   3.689  20.962  1.8421 -0.1369  1.2533
  447TIP3   OH225535   1.169   0.846  18.397 -0.2900 -0.3913  0.5183
  447TIP3    H125536   1.138   0.799  18.475 -2.3521  1.2038  0.7480
  447TIP3    H225537   1.121   0.929  18.399  1.3463  0.6582 -1.2329
  448TIP3   OH225538   5.879   3.633  17.229 -0.6763 -0.1164 -0.2684
  448TIP3    H125539   5.844   3.710  17.184  0.2834  1.5962  1.7918
  448TIP3    H225540   5.970   3.655  17.249 -0.3909 -1.7697  0.4186
  449TIP3   OH225541   6.069   5.471  17.686  0.4154 -0.4802 -0.1157
  449TIP3    H125542   5.992   5.425  17.651  0.2573 -0.6596  0.4547
  449TIP3    H225543   6.047   5.564  17.677  0.1035 -0.5315  0.1008
  450TIP3   OH225544   1.116   1.711  20.031 -0.3351 -0.7073 -0.1283
  450TIP3    H125545   1.049   1.779  20.033 -1.3302 -1.6811  0.7145
  450TIP3    H225546   1.176   1.733  20.102 -0.2505 -0.3352 -0.3117
  451TIP3   OH225547   1.982   0.617  20.750  0.2134  0.3503  0.4580
  451TIP3    H125548   1.959   0.661  20.831  0.8057  1.6636 -0.0601
  451TIP3    H225549   2.034   0.681  20.701  0.1417 -0.5185 -0.8220
  452TIP3   OH225550   3.444   0.933  17.270 -0.2921  0.2320  0.4565
  452TIP3    H125551   3.499   0.997  17.316  0.6213 -0.3155  0.1290
  452TIP3    H225552   3.424   0.974  17.186  1.5224 -0.5069 -0.3665
  453TIP3   OH225553   4.040   0.926  19.416  0.1796  0.0500  0.1507
  453TIP3    H125554   4.003   0.879  19.342  1.9390 -1.7583  0.3260
  453TIP3    H225555   3.991   0.895  19.492  0.0895 -0.0825  0.0368
  454TIP3   OH225556   2.823   5.041  17.426  0.1352  0.4290 -0.0244
  454TIP3    H125557   2.762   5.090  17.371 -1.6085 -2.9018 -1.3300
  454TIP3    H225558   2.803   5.070  17.515  0.0368  2.8274 -0.7441
  455TIP3   OH225559   0.486   3.216  20.508 -0.5068  0.0264 -0.2710
  455TIP3    H125560   0.525   3.247  20.590 -1.3057 -0.9766  0.5071
  455TIP3    H225561   0.462   3.296  20.461  0.0782  0.6089  0.4080
  456TIP3   OH225562   5.229   2.194  17.787  0.5044 -0.2718  0.2549
  456TIP3    H125563   5.268   2.109  17.766  1.1990  0.2596 -0.6974
  456TIP3    H225564   5.147   2.195  17.739  0.8089 -0.1481 -0.2724
  457TIP3   OH225565   5.463   5.544  17.792 -0.0791  0.0752  0.2101
  457TIP3    H125566   5.476   5.482  17.719 -0.1172  0.3093  0.0027
  457TIP3    H225567   5.399   5.607  17.759  0.5108  0.6515  0.1509
  458TIP3   OH225568   2.260   3.401  18.114  0.4350 -0.2643 -0.0749
  458TIP3    H125569   2.250   3.398  18.019 -0.9975  0.7575  0.0230
  458TIP3    H225570   2.325   3.469  18.129  3.3010 -2.6847 -0.4109
  459TIP3   OH225571   1.801   0.461  20.590 -0.1249  0.4745  0.9196
  459TIP3    H125572   1.818   0.377  20.633 -2.0128  0.4343  1.6708
  459TIP3    H225573   1.854   0.524  20.639  1.5367 -0.2730  0.1676
  460TIP3   OH225574   0.284   2.174  20.317 -0.0243 -0.1005 -0.4892
  460TIP3    H125575   0.371   2.206  20.341  0.4912 -0.0380 -2.2646
  460TIP3    H225576   0.272   2.095  20.369  0.8752  0.1836  0.1677
  461TIP3   OH225577   0.491   1.195  20.050 -0.1425 -0.6382 -0.3749
  461TIP3    H125578   0.395   1.194  20.058 -0.1405 -1.8071 -0.2524
  461TIP3    H225579   0.518   1.110  20.086  0.9607 -0.2177 -0.1795
  462TIP3   OH225580   0.124   5.095  20.350 -0.4295  0.8795 -0.1855
  462TIP3    H125581   0.186   5.091  20.277  0.6418  1.6043  0.6365
  462TIP3    H225582   0.119   5.005  20.382  0.7354  0.9087  0.1391
  463TIP3   OH225583   2.713   0.570  19.058  0.6914 -0.0462 -0.5958
  463TIP3    H125584   2.641   0.631  19.042 -0.4767 -1.1947  0.0587
  463TIP3    H225585   2.779   0.622  19.105 -1.3962  0.1594  2.3968
  464TIP3   OH225586   0.525   2.806  19.588  0.1366  0.7074 -0.0836
  464TIP3    H125587   0.446   2.861  19.585  0.3195  0.9576 -0.3704
  464TIP3    H225588   0.596   2.867  19.610 -0.0912  0.0927  2.7328
  465TIP3   OH225589   5.232   5.223  19.115  0.7223  0.5513  0.1990
  465TIP3    H125590   5.152   5.199  19.161  1.0909  0.7277  0.9509
  465TIP3    H225591   5.251   5.148  19.059 -0.4411  0.8684 -0.6410
  466TIP3   OH225592   5.569   6.062  18.229 -0.0231 -0.1879 -0.5876
  466TIP3    H125593   5.597   5.974  18.256  0.6267  0.0075 -0.6067
  466TIP3    H225594   5.489   6.078  18.280  1.2016  0.2079  1.3220
  467TIP3   OH225595   5.909   0.535  19.639  0.0291 -0.2237 -0.3129
  467TIP3    H125596   5.927   0.511  19.549 -1.0583 -2.8471  0.0979
  467TIP3    H225597   5.817   0.513  19.653 -0.1178  1.1002  1.1582
  468TIP3   OH225598   2.484   5.975  20.043 -0.9791  0.0874  0.0578
  468TIP3    H125599   2.487   6.052  19.986  0.0925 -0.0625 -0.0998
  468TIP3    H225600   2.495   6.009  20.131 -3.6650  0.4353  0.3321
  469TIP3   OH225601   2.471   2.439  20.795  0.7305  0.0946  0.1293
  469TIP3    H125602   2.496   2.493  20.870  0.5947 -1.1783  1.1287
  469TIP3    H225603   2.391   2.479  20.762  1.8247  1.8208 -0.5862
  470TIP3   OH225604   6.515   3.155  19.629 -0.3594  0.0247  0.0507
  470TIP3    H125605   6.602   3.168  19.665 -0.1921  1.1604 -0.6906
  470TIP3    H225606   6.530   3.132  19.537 -0.7695 -2.8635  0.6289
  471TIP3   OH225607   3.624   3.200  20.421 -0.0018 -0.1729  0.0650
  471TIP3    H125608   3.653   3.122  20.374 -0.6159 -1.3027  1.4815
  471TIP3    H225609   3.553   3.235  20.368  1.2362  0.3171 -1.3450
  472TIP3   OH225610   4.584   0.049  19.667  0.1370 -0.2031  0.5070
  472TIP3    H125611   4.568   0.111  19.596  1.0294 -0.4406  0.0777
  472TIP3    H225612   4.616   0.103  19.739  0.4571 -0.1001  0.2928
  473TIP3   OH225613   0.240   6.258  18.516 -0.2722 -0.1709  0.1981
  473TIP3    H125614   0.179   6.187  18.496  0.6373 -0.9330  0.0398
  473TIP3    H225615   0.316   6.214  18.555  0.6148  0.6236 -0.5742
  474TIP3   OH225616   3.015   6.408  17.956  0.3163 -0.5456  0.0536
  474TIP3    H125617   2.923   6.424  17.975  0.3824 -0.2181  0.1138
  474TIP3    H225618   3.048   6.494  17.928  0.3637 -0.8718 -0.9435
  475TIP3   OH225619   5.129   0.878  18.547 -0.2356  0.0661  0.1612
  475TIP3    H125620   5.083   0.945  18.495  1.2708  0.4906 -0.6990
  475TIP3    H225621   5.215   0.917  18.565  0.1242 -1.0460  0.9349
  476TIP3   OH225622   1.085   5.101  19.620 -0.2608 -0.2047  0.0228
  476TIP3    H125623   1.012   5.132  19.566  0.5289  0.7939 -0.4957
  476TIP3    H225624   1.045   5.035  19.678 -2.0826  1.9706  1.4124
  477TIP3   OH225625   3.600   2.419  18.798 -0.3364 -0.2901 -0.6018
  477TIP3    H125626   3.562   2.348  18.850 -1.2244 -0.1160 -1.0004
  477TIP3    H225627   3.690   2.427  18.830 -0.4079 -1.2024 -0.1513
  478TIP3   OH225628   6.634   4.502  19.252  0.0051  0.0664  0.1729
  478TIP3    H125629   6.543   4.488  19.226 -0.0441  0.2953  0.2171
  478TIP3    H225630   6.676   4.417  19.240 -0.8384 -0.8202  2.8170
  479TIP3   OH225631   0.285   5.355  18.088 -0.0606 -0.1371  0.2639
  479TIP3    H125632   0.245   5.409  18.020  0.8123 -0.9226 -0.9148
  479TIP3    H225633   0.372   5.335  18.055  0.8200  0.3415  2.1133
  480TIP3   OH225634   0.266   1.975  18.434 -0.1568  0.1489  0.5648
  480TIP3    H125635   0.191   2.031  18.412  0.0880  0.0874 -0.4345
  480TIP3    H225636   0.227   1.898  18.476 -0.6163  0.2998  0.4163
  481TIP3   OH225637   0.442   3.453  18.469 -0.3668 -0.4907 -0.0946
  481TIP3    H125638   0.426   3.361  18.489  1.2907 -1.4202 -2.5565
  481TIP3    H225639   0.508   3.451  18.400 -1.2946  2.4968 -1.2259
  482TIP3   OH225640   5.557   2.093  18.643  0.4427 -0.1585 -0.0212
  482TIP3    H125641   5.516   2.088  18.557 -0.0483  0.4392  0.1733
  482TIP3    H225642   5.598   2.179  18.645 -0.6336  0.3469  0.8243
  483TIP3   OH225643   4.557   6.478  21.028  0.0809 -0.3604 -0.6598
  483TIP3    H125644   4.521   6.450  21.112  0.6848 -0.9996 -0.5972
  483TIP3    H225645   4.578   6.396  20.983 -0.5647 -0.0341 -1.5827
  484TIP3   OH225646   4.952   1.147  16.942  0.7540 -0.5102 -0.0135
  484TIP3    H125647   4.876   1.100  16.976  0.3727  0.0739 -0.0348
  484TIP3    H225648   4.973   1.104  16.860 -1.8776  1.5619 -1.9325
  485TIP3   OH225649   2.864   3.507  20.356  0.0984 -0.9173 -0.0933
  485TIP3    H125650   2.833   3.444  20.421 -0.3418 -2.0274 -1.3306
  485TIP3    H225651   2.784   3.543  20.317  0.3560 -0.1395  0.0700
  486TIP3   OH225652   5.112   2.120  18.793 -0.4050 -0.5740 -0.0116
  486TIP3    H125653   5.143   2.087  18.709  1.6225 -0.4466  0.6248
  486TIP3    H225654   5.182   2.178  18.824 -1.1921 -0.4388  1.6584
  487TIP3   OH225655   2.066   4.190  18.085 -0.0672  0.0991  0.0886
  487TIP3    H125656   2.160   4.181  18.097  0.1746  0.6347 -1.2320
  487TIP3    H225657   2.054   4.282  18.060 -1.1276  0.4672  1.8000
  488TIP3   OH225658   0.817   0.217  18.895  0.0928 -0.0320  0.5743
  488TIP3    H125659   0.853   0.275  18.963  0.3742  1.6748 -0.9582
  488TIP3    H225660   0.811   0.272  18.818 -0.1533 -1.9413 -0.8321
  489TIP3   OH225661   4.617   6.125  18.891  0.1315 -0.1967 -0.0121
  489TIP3    H125662   4.602   6.032  18.910 -1.6733 -0.0663 -0.5906
  489TIP3    H225663   4.532   6.167  18.906  0.5627  1.1298 -1.0650
  490TIP3   OH225664   2.944   6.059  20.132  0.0268  0.8679 -0.3545
  490TIP3    H125665   3.039   6.065  20.141  0.4431  0.1475 -3.2333
  490TIP3    H225666   2.927   5.965  20.123 -0.3006  1.1159 -4.1160
  491TIP3   OH225667   6.714   0.072  19.377  0.0620  0.1886 -0.3251
  491TIP3    H125668   6.717   0.130  19.453  0.8973 -1.4124  0.9301
  491TIP3    H225669   6.806   0.058  19.354 -0.0997 -1.0858 -0.2342
  492TIP3   OH225670   6.251   0.357  19.714  0.3259  0.3133  0.6336
  492TIP3    H125671   6.327   0.342  19.770 -0.7364 -1.5637  1.6445
  492TIP3    H225672   6.247   0.280  19.658 -0.8397  0.4095  0.5755
  493TIP3   OH225673   4.116   3.640  18.273 -0.1080  0.6253  0.5895
  493TIP3    H125674   4.173   3.648  18.197 -1.0742 -1.5033 -0.4480
  493TIP3    H225675   4.139   3.556  18.312 -2.2964 -0.2036  0.2677
  494TIP3   OH225676   1.342   3.436  20.012  0.3275 -0.3797  0.3973
  494TIP3    H125677   1.378   3.467  20.095  0.2764  0.8718 -0.0288
  494TIP3    H225678   1.358   3.508  19.951 -1.2441 -0.5398 -0.2383
  495TIP3   OH225679   3.026   3.785  17.325 -0.6651 -0.0414 -0.3509
  495TIP3    H125680   3.005   3.699  17.289  0.9532 -0.2937 -0.7974
  495TIP3    H225681   2.958   3.843  17.291 -0.8712 -0.8520 -1.3648
  496TIP3   OH225682   0.267   5.585  18.759 -0.5964 -0.6790 -0.3737
  496TIP3    H125683   0.304   5.550  18.678  1.6942 -0.5908  0.5564
  496TIP3    H225684   0.337   5.639  18.796 -1.9469  0.1002  1.1770
  497TIP3   OH225685   5.184   0.508  20.395 -0.2648 -0.4639  0.0534
  497TIP3    H125686   5.180   0.417  20.427  0.5137 -0.0304  1.5000
  497TIP3    H225687   5.099   0.545  20.418 -0.0511 -0.4283  0.8362
  498TIP3   OH225688   2.145   3.162  17.308  0.8196  0.1949 -0.5659
  498TIP3    H125689   2.069   3.143  17.254 -0.1416  1.1105  0.4308
  498TIP3    H225690   2.140   3.256  17.326  0.8942 -0.1254  1.3936
  499TIP3   OH225691   0.705   1.742  20.679  0.0008 -0.4049 -0.3825
  499TIP3    H125692   0.762   1.684  20.628  1.3443 -0.8470  1.4809
  499TIP3    H225693   0.657   1.683  20.737 -0.1682  0.1925  0.0920
  500TIP3   OH225694   4.500   2.763  19.436 -0.5711  0.0572 -0.0884
  500TIP3    H125695   4.470   2.718  19.357 -0.1355 -2.0732  0.8971
  500TIP3    H225696   4.529   2.849  19.405 -0.6563 -0.6232 -2.1984
  501TIP3   OH225697   1.334   2.605  18.823 -0.8051 -0.6613 -0.1311
  501TIP3    H125698   1.402   2.540  18.810 -1.5876 -1.6277  0.4899
  501TIP3    H225699   1.296   2.584  18.908 -2.1278 -0.3789 -0.6257
  502TIP3   OH225700   6.714   6.242  19.231 -0.0129 -0.4285  0.1314
  502TIP3    H125701   6.648   6.201  19.175  0.6420  0.7184 -1.5682
  502TIP3    H225702   6.664   6.298  19.291 -0.6440 -0.5040 -0.3171
  503TIP3   OH225703   1.378   3.027  18.491 -0.5811 -0.2520 -0.4054
  503TIP3    H125704   1.286   3.008  18.474 -0.5751 -0.6935  0.0318
  503TIP3    H225705   1.405   3.083  18.418 -0.6130 -1.8898 -1.7238
  504TIP3   OH225706   5.815   5.151  20.248 -0.5730 -0.0916  0.3223
  504TIP3    H125707   5.869   5.133  20.171 -0.9292  0.0752  0.0341
  504TIP3    H225708   5.878   5.156  20.320 -0.0946  0.9161 -0.1438
  505TIP3   OH225709   1.194   5.545  19.374 -0.4568  0.2574 -0.0783
  505TIP3    H125710   1.238   5.505  19.448  0.6485  0.0202 -0.8333
  505TIP3    H225711   1.237   5.630  19.363 -1.2948  0.7283  0.1599
  506TIP3   OH225712   3.996   6.696  17.613 -0.2064  0.0671  0.0660
  506TIP3    H125713   3.956   6.647  17.541 -0.0941  1.0497 -0.6789
  506TIP3    H225714   4.024   6.628  17.674 -1.9996 -0.7084  0.1059
  507TIP3   OH225715   3.252   5.378  19.084 -0.3761 -0.2402  0.2416
  507TIP3    H125716   3.209   5.347  19.163  0.0305 -0.6517  0.3109
  507TIP3    H225717   3.258   5.300  19.028  0.8497 -0.3463  0.4962
  508TIP3   OH225718   6.136   6.605  18.322 -0.7573 -0.0978 -0.0340
  508TIP3    H125719   6.052   6.620  18.277  0.1402  0.5482 -1.5796
  508TIP3    H225720   6.145   6.678  18.382 -0.4001  0.9569 -1.3273
  509TIP3   OH225721   4.273   2.186  18.022  0.1227  0.1559  0.6212
  509TIP3    H125722   4.359   2.147  18.006 -0.6307 -1.3487  0.0469
  509TIP3    H225723   4.280   2.226  18.109  1.3031 -0.2162  0.7105
  510TIP3   OH225724   5.416   2.481  20.462  0.3291  0.3220 -0.2440
  510TIP3    H125725   5.496   2.490  20.515 -0.0557  0.0117  0.3979
  510TIP3    H225726   5.378   2.569  20.461  1.4395  0.8220 -1.7968
  511TIP3   OH225727   3.803   6.691  18.507  0.2854 -0.0606  0.7561
  511TIP3    H125728   3.741   6.621  18.484  1.5431 -1.3355  1.0675
  511TIP3    H225729   3.791   6.703  18.601  0.7904 -0.6130  0.8961
  512TIP3   OH225730   5.079   0.274  19.523  0.2038 -0.1162  0.0113
  512TIP3    H125731   5.072   0.335  19.450  0.3741 -0.7811 -0.5681
  512TIP3    H225732   5.010   0.209  19.507  0.5922 -0.5654  0.1566
  513TIP3   OH225733   2.648   4.171  20.650 -0.3546  0.0392 -0.4664
  513TIP3    H125734   2.729   4.122  20.668 -1.5005 -1.6102  0.4058
  513TIP3    H225735   2.578   4.110  20.673 -1.8598  1.5638 -0.8884
  514TIP3   OH225736   4.115   6.061  18.448 -0.5956  0.4102 -0.0605
  514TIP3    H125737   4.116   6.155  18.466 -1.0077  0.2774  0.6613
  514TIP3    H225738   4.030   6.031  18.478  0.1799 -0.5014  1.3373
  515TIP3   OH225739   6.188   5.078  19.822 -0.2209 -0.5534  0.6111
  515TIP3    H125740   6.164   5.004  19.766 -1.8668 -0.1290  0.6881
  515TIP3    H225741   6.275   5.057  19.854 -0.3110 -2.0531 -0.0416
  516TIP3   OH225742   2.945   1.046  19.239 -0.3086 -0.2702  0.2281
  516TIP3    H125743   3.018   1.006  19.288 -0.2961 -2.0696 -1.1442
  516TIP3    H225744   2.866   1.015  19.285 -0.2699  0.9335  1.1644
  517TIP3   OH225745   3.465   3.607  19.248  0.3513 -0.3570 -0.3953
  517TIP3    H125746   3.384   3.595  19.200  0.2182  0.2362 -0.3250
  517TIP3    H225747   3.438   3.632  19.336  0.5893 -1.4862  0.0245
  518TIP3   OH225748   1.250   2.946  19.230  0.1153  0.0676 -0.4427
  518TIP3    H125749   1.320   2.979  19.287 -0.7614  2.1447 -0.4902
  518TIP3    H225750   1.172   2.946  19.286 -0.0322 -1.4067 -0.6276
  519TIP3   OH225751   0.986   4.544  19.999  0.2701 -0.2299 -0.8175
  519TIP3    H125752   1.023   4.598  20.069 -1.7916  0.1590  0.0333
  519TIP3    H225753   0.892   4.555  20.008 -0.1300 -2.2994 -1.9797
  520TIP3   OH225754   6.070   1.132  17.772  0.3228  0.2565 -0.1816
  520TIP3    H125755   6.146   1.103  17.722  0.5243  0.3494  0.0653
  520TIP3    H225756   5.995   1.102  17.721  0.4817  1.9562 -1.5039
  521TIP3   OH225757   2.437   1.665  17.965 -0.1048  0.2491 -0.3158
  521TIP3    H125758   2.531   1.654  17.984  0.1037  1.0868 -0.8091
  521TIP3    H225759   2.435   1.689  17.872 -0.8093  0.3261 -0.2815
  522TIP3   OH225760   4.260   5.781  18.908 -0.1164 -0.3507  0.2374
  522TIP3    H125761   4.232   5.830  18.830 -1.0049  0.6618  1.1614
  522TIP3    H225762   4.185   5.725  18.929 -0.9214  1.2092  1.7897
  523TIP3   OH225763   1.289   4.503  19.980  0.0338  0.0666  0.2685
  523TIP3    H125764   1.372   4.548  19.968 -0.2396  0.2162 -1.2623
  523TIP3    H225765   1.223   4.568  19.960 -0.5085  0.1406  2.1304
  524TIP3   OH225766   2.739   2.800  17.721 -0.0466 -0.1917  0.6888
  524TIP3    H125767   2.741   2.705  17.735 -0.7242  0.1201  3.4285
  524TIP3    H225768   2.718   2.809  17.628 -0.4204 -2.7319  0.4362
  525TIP3   OH225769   1.712   5.767  20.904  0.0210 -0.2274 -0.1458
  525TIP3    H125770   1.722   5.695  20.967  2.1055  1.1222  1.2002
  525TIP3    H225771   1.801   5.786  20.875 -0.6363  0.8806 -1.5480
  526TIP3   OH225772   3.660   2.814  19.977 -0.0483  0.1013 -0.3104
  526TIP3    H125773   3.712   2.804  19.897  0.6432  0.5812  0.0702
  526TIP3    H225774   3.573   2.837  19.946  0.1832  0.1756 -0.9282
  527TIP3   OH225775   0.901   2.562  20.859  0.1596 -0.1812  0.0858
  527TIP3    H125776   0.948   2.541  20.778  0.3591  1.3927 -0.2463
  527TIP3    H225777   0.963   2.616  20.908 -0.4809  0.0455  0.6519
  528TIP3   OH225778   3.221   5.487  17.798 -0.0593 -0.3553 -0.3651
  528TIP3    H125779   3.153   5.464  17.735 -0.7578  1.0663 -0.1592
  528TIP3    H225780   3.251   5.574  17.770  0.5549 -0.2853  0.4843
  529TIP3   OH225781   6.590   1.159  19.114  0.1075  0.0835  0.0665
  529TIP3    H125782   6.628   1.246  19.111  2.7780 -1.0050 -2.0369
  529TIP3    H225783   6.556   1.150  19.203  0.6149  2.8625  0.6234
  530TIP3   OH225784   5.026   3.192  18.666 -0.1952  0.1547 -0.1957
  530TIP3    H125785   4.983   3.214  18.749  1.2206  0.4901  0.4831
  530TIP3    H225786   4.971   3.124  18.628 -1.0728  0.2480  0.8458
  531TIP3   OH225787   0.028   2.418  19.819 -0.6277  0.0571 -0.0982
  531TIP3    H125788   0.082   2.361  19.765 -0.6087 -0.8465  0.8344
  531TIP3    H225789  -0.054   2.426  19.771 -0.3883 -0.2184 -0.5591
  532TIP3   OH225790   3.043   3.137  20.080  0.0063  0.3872 -0.4147
  532TIP3    H125791   2.983   3.084  20.133  0.0916  0.6991  0.0011
  532TIP3    H225792   3.037   3.225  20.119  0.3868  0.5220 -0.6593
  533TIP3   OH225793   3.056   3.954  18.892  0.4802  0.7364 -0.3655
  533TIP3    H125794   3.010   3.902  18.827 -1.4355  0.7178  0.9253
  533TIP3    H225795   3.070   3.893  18.965 -1.5739  1.8611  1.0662
  534TIP3   OH225796   2.686   2.009  17.297 -1.1908  0.2854  0.2770
  534TIP3    H125797   2.722   1.927  17.263 -1.3752  0.6721 -0.9072
  534TIP3    H225798   2.619   1.982  17.360 -0.3348 -0.4525  0.8977
  535TIP3   OH225799   1.873   1.857  19.810  0.3025 -0.4959  0.0611
  535TIP3    H125800   1.926   1.935  19.821  0.8818 -0.8404 -0.2464
  535TIP3    H225801   1.788   1.889  19.779 -0.2638  0.2103  2.2007
  536TIP3   OH225802   3.079   3.299  20.480  0.5053  0.2658 -0.0921
  536TIP3    H125803   3.138   3.364  20.519  0.9141  0.7110 -1.4039
  536TIP3    H225804   3.136   3.225  20.461  0.3938  0.2266 -0.2682
  537TIP3   OH225805   2.633   4.515  19.193 -0.0117 -0.9273  0.1131
  537TIP3    H125806   2.605   4.496  19.104  0.6755 -0.9044 -0.1122
  537TIP3    H225807   2.720   4.475  19.200  1.7442  2.4061 -0.5517
  538TIP3   OH225808   6.146   4.026  19.801  0.0746  0.0160 -0.0295
  538TIP3    H125809   6.138   3.938  19.764  1.0152 -0.3843  0.6800
  538TIP3    H225810   6.101   4.082  19.738  2.0546 -0.5519 -2.1055
  539TIP3   OH225811   5.700   3.022  19.182  0.2179  0.0107  0.3636
  539TIP3    H125812   5.656   2.947  19.222 -2.0401  1.4067  0.6742
  539TIP3    H225813   5.743   2.986  19.104 -1.0460 -1.5531  0.3556
  540TIP3   OH225814   2.356   2.335  18.923  0.9135 -0.7005 -0.2071
  540TIP3    H125815   2.363   2.381  18.840  0.6290  0.3503  0.3318
  540TIP3    H225816   2.262   2.325  18.938  0.8663  1.1181  1.0253
  541TIP3   OH225817   5.154   3.127  19.557  0.0653 -0.0875  0.2635
  541TIP3    H125818   5.127   3.069  19.628 -0.7089 -0.7015 -0.5129
  541TIP3    H225819   5.199   3.070  19.495 -1.5350 -0.0666 -0.9566
  542TIP3   OH225820   6.650   0.413  19.211  0.5212  0.0140 -0.4379
  542TIP3    H125821   6.633   0.319  19.200  1.5339 -0.4061  1.1999
  542TIP3    H225822   6.745   0.418  19.226  0.4598  1.3030 -0.4007
  543TIP3   OH225823   1.592   2.420  17.901 -0.1710 -0.8133  0.3346
  543TIP3    H125824   1.548   2.498  17.869 -0.0727 -0.8146  0.1994
  543TIP3    H225825   1.683   2.430  17.875  0.1400 -0.2918  1.5642
  544TIP3   OH225826   2.786   0.388  19.822 -0.2713 -0.5448  0.5381
  544TIP3    H125827   2.756   0.308  19.779  1.3619 -0.0413 -1.7128
  544TIP3    H225828   2.856   0.359  19.881 -0.0527 -0.8539  0.1324
  545TIP3   OH225829   1.493   0.598  18.629 -0.3983  0.4825 -0.7336
  545TIP3    H125830   1.433   0.545  18.682 -1.8305  1.0837 -1.6804
  545TIP3    H225831   1.561   0.537  18.600 -1.0541 -0.4320 -0.3867
  546TIP3   OH225832   4.053   3.566  21.036 -0.3050 -0.2993  0.2152
  546TIP3    H125833   4.037   3.563  20.941  1.5513 -0.5347 -0.1343
  546TIP3    H225834   4.032   3.479  21.067 -0.8820 -0.2342  0.0248
  547TIP3   OH225835   6.273   2.049  17.293 -0.4353 -0.1333  0.0212
  547TIP3    H125836   6.279   1.978  17.357  1.0620  0.1834  0.2724
  547TIP3    H225837   6.277   2.005  17.208  2.9607 -0.2949  0.1343
  548TIP3   OH225838   2.389   5.253  20.023 -0.1650  0.1236  0.1267
  548TIP3    H125839   2.323   5.202  20.070 -0.2597 -1.5627 -1.7350
  548TIP3    H225840   2.390   5.338  20.069 -1.9845 -0.5692  1.5920
  549TIP3   OH225841   6.296   2.238  19.527  0.3184  0.2812 -0.4589
  549TIP3    H125842   6.249   2.158  19.505 -0.7729  0.3445  1.3909
  549TIP3    H225843   6.342   2.216  19.609  0.1448  1.4795 -0.0254
  550TIP3   OH225844   1.846   0.138  18.380 -0.1647  0.2113 -0.0134
  550TIP3    H125845   1.818   0.229  18.382  0.0614  0.5987 -4.5694
  550TIP3    H225846   1.764   0.088  18.375 -0.2362  0.2877  0.3355
  551TIP3   OH225847   3.157   1.230  18.677  0.0495 -0.0389 -0.4579
  551TIP3    H125848   3.229   1.227  18.739  1.3937  1.3359 -1.8730
  551TIP3    H225849   3.091   1.285  18.719  0.6733  0.3439  0.0305
  552TIP3   OH225850   6.614   0.058  17.657  0.5945  0.2693 -0.6187
  552TIP3    H125851   6.630   0.151  17.667  1.3810  0.0472  0.3694
  552TIP3    H225852   6.701   0.018  17.654  0.2771 -0.5160  0.0255
  553TIP3   OH225853   1.570   1.061  19.020 -0.4305  0.3156  0.0207
  553TIP3    H125854   1.615   1.022  19.095 -0.8906 -1.1237 -0.4137
  553TIP3    H225855   1.576   0.994  18.951  0.2014  1.6845 -1.3256
  554TIP3   OH225856   5.651   3.860  18.961 -0.4367 -0.5340 -0.1860
  554TIP3    H125857   5.601   3.940  18.976 -1.5253 -1.3948  1.0589
  554TIP3    H225858   5.704   3.878  18.883 -1.2133  1.1145 -0.3664
  555TIP3   OH225859   0.255   2.154  18.709  0.2645 -0.4029  0.4023
  555TIP3    H125860   0.168   2.115  18.700 -0.1263  0.4327  0.3757
  555TIP3    H225861   0.316   2.081  18.699 -0.2859 -0.5743 -2.9242
  556TIP3   OH225862   2.280   4.582  18.460 -0.5535  0.4490  0.4239
  556TIP3    H125863   2.306   4.655  18.516  0.6998  0.0030  0.4491
  556TIP3    H225864   2.206   4.542  18.506 -0.4641  0.9618  1.0270
  557TIP3   OH225865   1.440   0.873  20.434  0.2025 -0.3113 -0.7559
  557TIP3    H125866   1.447   0.936  20.507 -0.4427 -2.7538  1.5864
  557TIP3    H225867   1.506   0.902  20.372  2.7261  0.4499  2.0267
  558TIP3   OH225868   3.830   3.050  19.988 -0.7292 -0.0282  0.0618
  558TIP3    H125869   3.818   3.099  19.907  1.3604 -0.7688 -0.7295
  558TIP3    H225870   3.758   2.987  19.989 -3.7982  3.0793  1.3028
  559TIP3   OH225871   6.339   0.055  19.140 -0.2883 -0.1360 -0.4386
  559TIP3    H125872   6.284  -0.017  19.170 -0.0494 -0.2340 -0.2310
  559TIP3    H225873   6.357   0.106  19.219  1.8221 -1.3851 -0.0369
  560TIP3   OH225874   5.587   5.366  18.366 -0.6122  0.3025  0.3895
  560TIP3    H125875   5.555   5.277  18.381  1.4060 -0.1716  2.5022
  560TIP3    H225876   5.650   5.357  18.294  0.5412 -0.2781  1.4337
  561TIP3   OH225877   4.660   2.874  20.128  0.3715 -0.2946  0.3330
  561TIP3    H125878   4.630   2.950  20.178 -0.1216  0.0547 -0.4691
  561TIP3    H225879   4.735   2.907  20.078 -0.8893  0.1706 -1.3361
  562TIP3   OH225880   6.146   0.741  20.094  0.1852 -0.5903 -0.2125
  562TIP3    H125881   6.240   0.722  20.098  0.1741 -0.5561  0.3353
  562TIP3    H225882   6.115   0.693  20.018  0.4197 -1.6117  0.3233
  563TIP3   OH225883   0.534   3.111  17.750  0.4073 -0.2185  0.3066
  563TIP3    H125884   0.628   3.116  17.769  0.5433 -1.5489  0.1240
  563TIP3    H225885   0.497   3.192  17.785  1.6267  0.3428  0.3444
  564TIP3   OH225886   3.991   0.544  18.018 -0.0271  0.3250  0.0491
  564TIP3    H125887   3.931   0.615  18.040  0.3458  0.7750 -0.3557
  564TIP3    H225888   4.016   0.506  18.103 -1.8988 -0.7517  0.1830
  565TIP3   OH225889   5.493   4.541  19.106  0.3945  0.3320  0.2060
  565TIP3    H125890   5.448   4.528  19.023  0.3597 -0.8776  0.3959
  565TIP3    H225891   5.581   4.508  19.091  0.5688  0.6720  0.4725
  566TIP3   OH225892   6.161   1.575  18.561  0.7768 -0.4851 -0.8100
  566TIP3    H125893   6.154   1.507  18.628  2.6647  0.1412  0.0908
  566TIP3    H225894   6.134   1.531  18.481  0.7400 -1.9604 -0.0449
  567TIP3   OH225895   4.722   5.667  17.982 -0.5777 -0.0489 -0.5487
  567TIP3    H125896   4.672   5.585  17.975 -1.4647  0.5202 -0.9702
  567TIP3    H225897   4.668   5.732  17.938  1.2618  0.2784 -2.4860
  568TIP3   OH225898   0.194   3.330  19.027  0.7493  0.2264  0.0436
  568TIP3    H125899   0.276   3.373  19.006  0.6841  1.5421  2.2498
  568TIP3    H225900   0.159   3.303  18.942  3.3539 -0.2659 -0.9603
  569TIP3   OH225901   2.002   5.892  18.457 -0.0947 -0.1569  0.6238
  569TIP3    H125902   1.976   5.873  18.548 -1.1142 -1.5720  0.0849
  569TIP3    H225903   2.089   5.930  18.465 -0.3066  0.1056  2.2192
  570TIP3   OH225904   0.259   6.272  19.251  0.1428  0.4761  0.3720
  570TIP3    H125905   0.163   6.274  19.250  0.0975 -0.2824 -1.5792
  570TIP3    H225906   0.285   6.341  19.189  0.6600 -1.8538 -2.2161
  571TIP3   OH225907   2.183   1.005  18.810 -0.3810 -0.2778 -0.1616
  571TIP3    H125908   2.115   0.969  18.867 -0.4462  1.5066  0.9864
  571TIP3    H225909   2.137   1.027  18.729 -0.6849 -1.1100 -0.2249
  572TIP3   OH225910   4.885   3.387  17.893 -0.4948 -0.2960  0.1554
  572TIP3    H125911   4.958   3.347  17.846  0.0750 -0.8141  1.4398
  572TIP3    H225912   4.808   3.340  17.861 -0.2340 -0.0298 -0.9023
  573TIP3   OH225913   6.601   3.135  19.343  0.4361  0.0759 -0.2997
  573TIP3    H125914   6.656   3.212  19.331  0.3824  0.0614 -0.6705
  573TIP3    H225915   6.530   3.146  19.279 -0.5800  0.6134  0.8736
  574TIP3   OH225916   2.998   1.412  19.653 -0.3307 -0.3537  0.2881
  574TIP3    H125917   3.074   1.368  19.615 -1.4565 -1.8488 -0.3499
  574TIP3    H225918   2.924   1.383  19.600 -1.6756 -0.7561  2.2496
  575TIP3   OH225919   4.181   3.764  20.611  0.4701 -0.8458  0.3561
  575TIP3    H125920   4.192   3.833  20.545  0.0216  0.6803  1.8074
  575TIP3    H225921   4.270   3.739  20.635  0.6446 -0.4758  0.1080
  576TIP3   OH225922   3.790   5.131  19.726  0.6911  0.1597  0.2228
  576TIP3    H125923   3.782   5.098  19.815  1.0797  2.0411  1.0022
  576TIP3    H225924   3.769   5.056  19.670 -1.1979 -0.6256  1.8900
  577TIP3   OH225925   1.731   6.134  20.483  0.4170 -0.3227 -0.4240
  577TIP3    H125926   1.727   6.142  20.578 -2.2243 -0.9392 -0.4164
  577TIP3    H225927   1.699   6.219  20.450 -0.0601 -0.6092 -0.7201
  578TIP3   OH225928   1.912   1.828  20.710 -0.1971 -0.2469  0.3268
  578TIP3    H125929   1.913   1.902  20.771  0.4887  0.3320 -0.3722
  578TIP3    H225930   2.003   1.820  20.681 -0.0538 -2.0453  1.1900
  579TIP3   OH225931   6.216   1.165  18.075  0.7546  0.1043  0.0483
  579TIP3    H125932   6.144   1.217  18.038  2.1430  1.3264 -1.0377
  579TIP3    H225933   6.172   1.093  18.119 -1.2643  1.9827  1.3430
  580TIP3   OH225934   0.781   5.400  18.770 -0.5210  0.1370  0.0988
  580TIP3    H125935   0.752   5.413  18.860  1.7704  0.2450  0.9101
  580TIP3    H225936   0.777   5.486  18.730 -0.4193  0.3231  0.4876
  581TIP3   OH225937   6.226   1.095  20.302 -0.5429 -0.8425  0.3876
  581TIP3    H125938   6.258   1.175  20.261  0.0558 -1.4281 -0.3383
  581TIP3    H225939   6.148   1.121  20.350 -0.4245  0.1436  0.0628
  582TIP3   OH225940   1.817   3.580  17.630 -0.6494  0.1842  0.3028
  582TIP3    H125941   1.782   3.664  17.600  0.5145  0.5957  0.0340
  582TIP3    H225942   1.912   3.590  17.622 -0.5118 -1.3440 -0.2484
  583TIP3   OH225943   1.687   5.844  19.989  0.3208 -0.1420  0.0852
  583TIP3    H125944   1.633   5.888  20.055  0.1157  1.1958 -0.9233
  583TIP3    H225945   1.765   5.816  20.037 -0.0540  0.3398  1.0095
  584TIP3   OH225946   4.175   4.910  19.287  1.0541 -0.0805  0.4911
  584TIP3    H125947   4.130   4.826  19.276 -0.6862  0.8891 -0.1730
  584TIP3    H225948   4.134   4.949  19.365 -0.1241  1.3115 -0.7728
  585TIP3   OH225949   4.291   0.124  20.759  0.3239 -0.1206 -0.5636
  585TIP3    H125950   4.211   0.174  20.771  0.9610  0.8751 -0.3241
  585TIP3    H225951   4.312   0.134  20.666 -0.2941 -1.1248 -0.8243
  586TIP3   OH225952   6.177   5.410  18.444  0.3831  0.0403 -0.2524
  586TIP3    H125953   6.200   5.395  18.536 -0.4434  0.3564  0.0191
  586TIP3    H225954   6.113   5.341  18.424  2.8350 -2.0151 -1.5510
  587TIP3   OH225955   3.073   2.772  17.835 -0.3442 -0.2240  0.4588
  587TIP3    H125956   3.163   2.767  17.802 -1.0103 -0.9330 -1.3779
  587TIP3    H225957   3.038   2.852  17.796 -0.7964 -0.4462  0.4114
  588TIP3   OH225958   5.386   5.622  19.284 -0.5275 -0.0162  0.3486
  588TIP3    H125959   5.424   5.555  19.226 -2.2912 -0.3792 -0.4678
  588TIP3    H225960   5.412   5.705  19.246  0.3728 -0.2363  0.4648
  589TIP3   OH225961   5.392   6.342  19.190  0.1750  0.1859  1.0792
  589TIP3    H125962   5.398   6.316  19.282 -3.7330 -1.2588  1.1109
  589TIP3    H225963   5.335   6.276  19.150 -0.1941  2.0894 -1.8450
  590TIP3   OH225964   0.210   1.074  20.580 -0.1195  0.4243 -0.4079
  590TIP3    H125965   0.295   1.105  20.610 -1.1183  1.6454  1.4059
  590TIP3    H225966   0.147   1.125  20.631 -1.9451 -0.4046 -1.7195
  591TIP3   OH225967   1.750   5.080  18.045 -0.1681 -0.1929 -0.7184
  591TIP3    H125968   1.826   5.042  18.001 -0.1771  0.4142 -1.2758
  591TIP3    H225969   1.716   5.144  17.983 -0.9128 -0.1895 -0.3176
  592TIP3   OH225970   2.032   5.283  18.081  0.5747  0.2961  0.0582
  592TIP3    H125971   1.957   5.242  18.038  1.7531 -1.0357 -0.8037
  592TIP3    H225972   2.041   5.368  18.036 -0.3550  0.4446  0.1280
  593TIP3   OH225973   4.951   0.650  17.875  0.3200  0.2291 -0.1172
  593TIP3    H125974   4.998   0.567  17.864  1.4632  0.8955 -0.4617
  593TIP3    H225975   5.003   0.698  17.940 -0.8814  0.2996  0.8315
  594TIP3   OH225976   0.071   2.366  18.755  1.0978  0.5643  0.0032
  594TIP3    H125977   0.106   2.290  18.802  1.1706  1.0350  0.7209
  594TIP3    H225978   0.113   2.362  18.669  3.4942  1.4844  1.0411
  595TIP3   OH225979   4.360   3.818  18.409  0.2888 -0.0906 -0.1062
  595TIP3    H125980   4.453   3.805  18.391  0.7387  1.0641  1.1785
  595TIP3    H225981   4.316   3.798  18.326  1.5446 -1.8523 -0.3875
  596TIP3   OH225982   4.369   4.279  17.387 -0.1961  0.2701  0.0832
  596TIP3    H125983   4.431   4.210  17.364 -0.6234  0.0472 -0.4489
  596TIP3    H225984   4.287   4.232  17.405 -0.1832  0.5469  0.9135
  597TIP3   OH225985   4.572   5.914  19.277  0.1935  0.3351  0.0408
  597TIP3    H125986   4.616   5.830  19.293  1.4286  1.0416  0.4623
  597TIP3    H225987   4.517   5.897  19.201  1.7119 -0.4328 -0.9583
  598TIP3   OH225988   2.303   4.962  20.440  0.1408  0.0730  0.0521
  598TIP3    H125989   2.245   5.010  20.382 -1.1780 -0.4486  0.8817
  598TIP3    H225990   2.316   4.877  20.397 -1.4930 -0.6209  0.8451
  599TIP3   OH225991   3.063   2.617  19.543  0.6446  0.1750  0.3995
  599TIP3    H125992   2.967   2.612  19.540  0.6859 -2.1406  0.6632
  599TIP3    H225993   3.090   2.599  19.453  0.8211 -0.1163  0.5080
  600TIP3   OH225994   3.377   1.870  17.915  0.0968 -0.1822  0.7999
  600TIP3    H125995   3.460   1.897  17.876 -1.5370  2.3972 -1.3256
  600TIP3    H225996   3.358   1.785  17.875  0.9368 -0.0013 -0.0250
  601TIP3   OH225997   3.687   3.580  20.726  0.3771 -0.0946 -0.9868
  601TIP3    H125998   3.781   3.595  20.736  0.5772 -0.5766 -1.9921
  601TIP3    H225999   3.680   3.490  20.693 -0.4487 -0.1310 -0.7431
  602TIP3   OH226000   0.966   6.524  20.060  0.0049 -0.3723  0.2047
  602TIP3    H126001   0.948   6.472  20.138 -0.7555  1.6137  1.4209
  602TIP3    H226002   1.043   6.482  20.021 -0.0516 -1.8638  1.5758
  603TIP3   OH226003   1.635   4.480  20.455  0.1779  0.1180 -0.2418
  603TIP3    H126004   1.725   4.479  20.423  0.5149 -1.3291  0.6432
  603TIP3    H226005   1.640   4.530  20.537 -0.1791  1.5339 -1.0562
  604TIP3   OH226006   6.375   3.567  18.468  0.1670 -0.0645 -0.2508
  604TIP3    H126007   6.286   3.533  18.472  0.0921  0.2700  1.3399
  604TIP3    H226008   6.389   3.585  18.375 -1.3380 -0.3303 -0.5552
  605TIP3   OH226009   1.713   5.846  18.492 -0.4810  0.1224 -0.0199
  605TIP3    H126010   1.800   5.869  18.460 -0.9586  1.3337 -0.4917
  605TIP3    H226011   1.714   5.750  18.497  1.2204  0.1411  0.9748
  606TIP3   OH226012   5.208   3.116  17.558 -0.6408 -0.0785 -0.4079
  606TIP3    H126013   5.178   3.183  17.496 -1.0555 -0.8246 -1.0422
  606TIP3    H226014   5.210   3.035  17.506  0.4545 -0.4416  0.1847
  607TIP3   OH226015   4.753   5.883  20.860 -0.2707 -0.5731  0.2121
  607TIP3    H126016   4.751   5.973  20.892  0.1721 -0.9076  1.2104
  607TIP3    H226017   4.660   5.860  20.850 -0.3846  0.5540 -1.7421
  608TIP3   OH226018   1.703   5.205  19.350  0.0283  0.4483 -0.4950
  608TIP3    H126019   1.752   5.266  19.406  0.2263  1.5611 -1.8505
  608TIP3    H226020   1.746   5.209  19.265 -2.4575  1.5696 -1.7977
  609TIP3   OH226021   3.185   0.146  19.076  0.1519  0.0236  0.0807
  609TIP3    H126022   3.125   0.219  19.063  0.8409  0.5033 -0.5134
  609TIP3    H226023   3.222   0.130  18.989 -0.4559 -1.4658  0.0520
  610TIP3   OH226024   3.402   2.214  20.691 -0.8763  0.4334  0.2260
  610TIP3    H126025   3.379   2.218  20.598 -2.6420 -0.3495  0.5814
  610TIP3    H226026   3.441   2.128  20.703 -1.5303  0.1514  0.3742
  611TIP3   OH226027   5.484   5.269  18.728 -0.1422 -0.2845 -0.1828
  611TIP3    H126028   5.465   5.178  18.707 -0.3256 -0.5590  1.0710
  611TIP3    H226029   5.399   5.308  18.749  0.2200 -0.7054  2.4259
  612TIP3   OH226030   4.535   3.477  20.176 -0.3097  0.7600 -0.0476
  612TIP3    H126031   4.522   3.470  20.270  3.2410 -0.3075  0.5130
  612TIP3    H226032   4.544   3.386  20.146  2.7789  1.1128 -0.5625
  613TIP3   OH226033   3.003   4.175  20.122 -0.1934 -0.1215  0.1576
  613TIP3    H126034   3.085   4.198  20.077  1.1561  0.2306  2.5893
  613TIP3    H226035   2.951   4.255  20.119  0.6205  0.4522  0.6799
  614TIP3   OH226036   3.849   0.130  17.765 -0.0844 -0.2125 -0.0272
  614TIP3    H126037   3.842   0.189  17.690 -0.0187 -0.4343 -0.2093
  614TIP3    H226038   3.906   0.059  17.735 -1.3022 -1.1104 -0.2837
  615TIP3   OH226039   4.072   4.665  20.271  0.0266  0.1080 -0.0370
  615TIP3    H126040   4.010   4.734  20.246 -2.8563 -2.3339 -0.2540
  615TIP3    H226041   4.044   4.588  20.221  1.3973 -1.9021  2.0622
  616TIP3   OH226042   6.683   2.848  19.098  0.1624  0.4033 -0.0305
  616TIP3    H126043   6.759   2.905  19.083  0.5399 -0.5089 -1.9915
  616TIP3    H226044   6.635   2.850  19.015 -0.9756 -0.4698  0.5755
  617TIP3   OH226045   1.334   1.212  17.919  0.5388 -0.1665  0.1660
  617TIP3    H126046   1.351   1.172  17.834 -1.0869  0.9593 -0.7371
  617TIP3    H226047   1.326   1.137  17.979 -2.7107 -1.3512 -1.5116
  618TIP3   OH226048   5.863   2.890  18.988 -0.0565 -0.4065  0.2441
  618TIP3    H126049   5.804   2.831  18.942 -0.7490 -0.8441  1.6452
  618TIP3    H226050   5.901   2.945  18.919 -1.0856 -0.9975 -0.8226
  619TIP3   OH226051   3.116   3.947  19.256  0.2716  0.4051 -0.1456
  619TIP3    H126052   3.075   4.027  19.223  0.5172  0.9518  0.8249
  619TIP3    H226053   3.114   3.957  19.352  0.1308 -0.8378 -0.0000
  620TIP3   OH226054   0.735   4.036  20.067 -0.3964 -0.9315 -0.0318
  620TIP3    H126055   0.710   4.111  20.013 -0.1450 -0.1381  0.9198
  620TIP3    H226056   0.736   3.962  20.007  1.2366  0.1590 -1.4122
  621TIP3   OH226057   3.715   0.459  19.627 -0.0997 -0.0188  0.3959
  621TIP3    H126058   3.783   0.473  19.693  0.8877 -0.7358 -0.4323
  621TIP3    H226059   3.667   0.542  19.624  0.3230  0.2772  1.4576
  622TIP3   OH226060   4.796   1.606  18.683  0.2276 -0.8928  0.4907
  622TIP3    H126061   4.858   1.535  18.664  0.7516 -0.2515 -0.2228
  622TIP3    H226062   4.724   1.593  18.621  1.5771  0.7463 -1.5323
  623TIP3   OH226063   3.490   1.402  18.532 -0.3530  0.3047  0.2110
  623TIP3    H126064   3.504   1.307  18.533  0.9037  0.4650 -0.2105
  623TIP3    H226065   3.533   1.431  18.452 -3.1722  0.9134 -1.2074
  624TIP3   OH226066   1.124   5.814  20.168  0.7898  0.5165  0.5112
  624TIP3    H126067   1.150   5.904  20.148  2.4959 -0.2923 -1.3243
  624TIP3    H226068   1.070   5.788  20.094  1.2225 -0.3053  0.4758
  625TIP3   OH226069   3.395   4.789  19.985  0.3165  0.5059 -0.3624
  625TIP3    H126070   3.403   4.884  19.991  1.0222  0.4157  0.1715
  625TIP3    H226071   3.321   4.776  19.926  1.7953  1.3863 -2.5821
  626TIP3   OH226072   4.039   1.414  18.471  0.0338 -0.0586 -0.1115
  626TIP3    H126073   3.974   1.360  18.425  0.8760  0.5899 -2.1615
  626TIP3    H226074   4.041   1.496  18.422  2.3637 -0.0462 -0.0904
  627TIP3   OH226075   4.503   5.287  19.231 -0.2290  0.4433  0.0152
  627TIP3    H126076   4.475   5.197  19.214 -1.2035  0.9589 -1.3246
  627TIP3    H226077   4.598   5.282  19.238 -0.0952 -0.4681 -1.8501
  628TIP3   OH226078   1.113   5.510  19.905 -0.8360 -0.4638 -0.2227
  628TIP3    H126079   1.100   5.424  19.943  0.2529  0.1488  1.6593
  628TIP3    H226080   1.207   5.528  19.915 -1.2771  1.5754  1.0061
  629TIP3   OH226081   2.622   2.383  18.560 -0.3371  0.6937 -0.3007
  629TIP3    H126082   2.655   2.293  18.564  0.7900  1.1473  1.2340
  629TIP3    H226083   2.688   2.430  18.509 -1.0980  0.6136 -1.3983
  630TIP3   OH226084   3.181   4.804  19.367  0.0268 -0.0038 -0.2679
  630TIP3    H126085   3.195   4.718  19.327  0.7266  0.1856 -0.4390
  630TIP3    H226086   3.097   4.833  19.332  0.6231  0.1553 -1.6156
  631TIP3   OH226087   1.556   5.972  20.886  0.0845  0.4617  0.2395
  631TIP3    H126088   1.623   5.905  20.901  0.6218  1.4591  2.8380
  631TIP3    H226089   1.485   5.948  20.945 -0.2710  1.4159  0.2168
  632TIP3   OH226090   2.434   1.127  18.841  0.1111 -0.3090 -0.3721
  632TIP3    H126091   2.371   1.055  18.848 -1.6332  1.1489 -0.4899
  632TIP3    H226092   2.384   1.199  18.802  1.9479  0.8152 -0.7373
  633TIP3   OH226093   5.636   0.468  20.225 -0.0561 -0.3808  0.2268
  633TIP3    H126094   5.572   0.399  20.207  0.1620 -0.7146  0.6982
  633TIP3    H226095   5.681   0.439  20.304  1.2254 -0.5539 -0.5226
  634TIP3   OH226096   1.511   0.701  20.043  0.1681 -0.6220 -0.0938
  634TIP3    H126097   1.556   0.631  20.091  1.7610 -0.6723 -1.5485
  634TIP3    H226098   1.460   0.655  19.977  0.1628 -0.4609 -0.2019
  635TIP3   OH226099   1.087   6.404  18.492 -0.2580  0.0409  0.1573
  635TIP3    H126100   1.016   6.378  18.550  0.0136  0.4847  0.6992
  635TIP3    H226101   1.146   6.328  18.491 -2.5175 -1.9711 -3.3297
  636TIP3   OH226102   2.933   1.094  19.567  0.6864  0.3901 -0.0868
  636TIP3    H126103   2.855   1.098  19.512  1.1496  2.1827 -0.7081
  636TIP3    H226104   2.937   1.004  19.598  0.0526 -0.5358 -2.4935
  637TIP3   OH226105   0.821   6.398  20.832 -0.2082  0.2031  0.6640
  637TIP3    H126106   0.765   6.474  20.817  1.3080  1.2519  0.0613
  637TIP3    H226107   0.871   6.420  20.911  0.5186  0.0133  0.2657
  638TIP3   OH226108   0.990   4.422  18.476 -0.0330  0.5331 -0.0271
  638TIP3    H126109   0.923   4.369  18.520 -0.3709  0.3650 -0.7251
  638TIP3    H226110   0.963   4.512  18.492  0.4502  0.5100  1.0224
  639TIP3   OH226111   3.433   3.995  18.677  0.1021  0.5028 -0.3338
  639TIP3    H126112   3.380   4.075  18.681 -0.1702  0.3058  0.0306
  639TIP3    H226113   3.419   3.952  18.761  1.8434  1.0782  0.3088
  640TIP3   OH226114   4.961   3.847  18.922  0.1984 -0.5537 -0.9315
  640TIP3    H126115   4.891   3.898  18.964 -0.2835 -0.1932 -2.1314
  640TIP3    H226116   4.982   3.779  18.986  1.0487  1.2713  0.8301
  641TIP3   OH226117   3.715   4.441  19.356  0.5397  0.0368  0.6384
  641TIP3    H126118   3.634   4.475  19.396  0.6892  2.1579 -0.7263
  641TIP3    H226119   3.685   4.374  19.295 -0.1900  0.6789  0.2776
  642TIP3   OH226120   2.978   0.376  18.243 -0.7933 -0.1926 -0.0586
  642TIP3    H126121   2.983   0.377  18.338 -2.3481  0.1927  0.0367
  642TIP3    H226122   3.050   0.433  18.215 -1.8935  1.8157  0.9884
  643TIP3   OH226123   2.038   2.392  19.996 -0.2979 -0.2511  0.0084
  643TIP3    H126124   1.972   2.460  19.987 -0.3423 -0.3599 -0.5321
  643TIP3    H226125   2.082   2.411  20.079 -0.1186  0.6030 -0.2770
  644TIP3   OH226126   0.388   2.388  18.382  0.2326  0.3759  0.3024
  644TIP3    H126127   0.409   2.461  18.441 -0.4335  0.7953  0.0364
  644TIP3    H226128   0.457   2.323  18.398  0.7777  1.0191  0.6187
  645TIP3   OH226129   1.470   2.582  19.168  0.1723  0.1505 -0.1203
  645TIP3    H126130   1.441   2.497  19.201  1.1138 -0.5719 -1.1002
  645TIP3    H226131   1.391   2.623  19.134 -0.6037  0.4089  1.8624
  646TIP3   OH226132   3.685   1.213  19.319 -0.0378 -0.1962 -0.6865
  646TIP3    H126133   3.646   1.301  19.326  0.0942 -0.2737  2.5092
  646TIP3    H226134   3.767   1.219  19.368  0.6259 -1.8061 -1.5258
  647TIP3   OH226135   6.468   1.674  18.413  0.0538 -0.2364 -0.0748
  647TIP3    H126136   6.512   1.748  18.371 -1.2788  0.6728  0.0743
  647TIP3    H226137   6.418   1.633  18.342 -0.3373 -0.1349  0.1446
  648TIP3   OH226138   4.524   0.200  18.683 -0.3952  0.2476 -1.0643
  648TIP3    H126139   4.464   0.274  18.689 -1.1916 -0.5332  2.0518
  648TIP3    H226140   4.603   0.229  18.729  0.0497 -0.1929 -1.5244
  649TIP3   OH226141   4.001   2.145  18.370  0.1947 -0.5135 -0.1779
  649TIP3    H126142   4.090   2.114  18.354  0.1918 -1.4824  1.4873
  649TIP3    H226143   4.011   2.216  18.434 -0.2446 -1.0400  0.4984
  650TIP3   OH226144   1.912   3.379  20.060 -0.4798  0.5732 -0.8004
  650TIP3    H126145   1.836   3.349  20.010 -0.3200  0.3082 -0.8852
  650TIP3    H226146   1.882   3.459  20.103 -0.2034  1.6162 -2.4414
  651TIP3   OH226147   2.049   0.578  17.998 -0.2881  0.2936 -0.0191
  651TIP3    H126148   2.035   0.546  18.087 -3.5633 -0.4718 -0.6809
  651TIP3    H226149   1.971   0.629  17.979  0.1463  0.1132 -2.5717
  652TIP3   OH226150   5.404   5.843  20.315 -0.5089  0.2371  0.0188
  652TIP3    H126151   5.423   5.852  20.221 -1.5318  0.2355 -0.1985
  652TIP3    H226152   5.394   5.933  20.346  1.1085  0.3151  0.4286
  653TIP3   OH226153   6.537   5.386  18.463  0.0253  0.2734  0.4814
  653TIP3    H126154   6.609   5.328  18.439 -1.5154 -1.3940 -0.2958
  653TIP3    H226155   6.521   5.368  18.556  0.8744  0.9839  0.7773
  654TIP3   OH226156   2.680   4.093  18.396  0.1716  0.2368  0.0498
  654TIP3    H126157   2.665   4.183  18.369  0.6072  0.6185  1.0172
  654TIP3    H226158   2.756   4.064  18.346  0.9234  0.9049  0.7749
  655TIP3   OH226159   1.383   4.337  20.454 -0.0431 -0.6353  0.0187
  655TIP3    H126160   1.353   4.319  20.543  0.8051 -0.7737  0.2761
  655TIP3    H226161   1.472   4.370  20.464 -0.0498 -0.3620 -0.7602
  656TIP3   OH226162   6.528   4.450  20.285  0.3583  0.1145  0.3079
  656TIP3    H126163   6.453   4.447  20.226 -0.8844  0.3029  1.8395
  656TIP3    H226164   6.536   4.542  20.310  0.9831  0.0620  0.3329
  657TIP3   OH226165   1.175   2.962  19.682 -0.3182  0.0582  0.1440
  657TIP3    H126166   1.268   2.985  19.675 -0.4104 -0.1509 -4.6505
  657TIP3    H226167   1.175   2.868  19.701  0.5915 -0.4508 -2.1327
  658TIP3   OH226168   6.140   2.603  19.174 -0.1692 -0.1508  0.7806
  658TIP3    H126169   6.139   2.643  19.261 -1.5600  0.1563  0.6525
  658TIP3    H226170   6.140   2.509  19.190 -2.0340 -0.1290  1.1776
  659TIP3   OH226171   1.491   5.847  18.269  0.2337  0.2582  0.2813
  659TIP3    H126172   1.576   5.804  18.281  1.3431  0.6849 -4.2949
  659TIP3    H226173   1.514   5.938  18.251 -1.1663  0.3855 -0.9941
  660TIP3   OH226174   2.797   2.730  18.453 -0.0801 -0.4947  0.7531
  660TIP3    H126175   2.845   2.764  18.378  0.4304  1.7451  2.0024
  660TIP3    H226176   2.823   2.638  18.460  1.1108 -0.3027 -0.8108
  661TIP3   OH226177   0.230   0.159  19.012 -0.8671 -0.0349 -0.4503
  661TIP3    H126178   0.277   0.156  18.929 -1.7476 -1.6911 -0.9250
  661TIP3    H226179   0.169   0.085  19.009 -1.1642  0.0543  1.5252
  662TIP3   OH226180   2.802   5.596  20.806 -0.2203  0.5527 -0.1122
  662TIP3    H126181   2.724   5.604  20.862 -0.9994  1.5305 -1.2788
  662TIP3    H226182   2.849   5.678  20.818 -0.4809  0.8413 -0.9983
  663TIP3   OH226183   5.422   0.007  18.325 -0.1181  0.0468  0.3265
  663TIP3    H126184   5.419   0.053  18.241  0.4188  0.5556  0.5773
  663TIP3    H226185   5.463  -0.077  18.304 -0.3432  0.0146  0.0079
  664TIP3   OH226186   1.319   1.405  18.911  0.0763 -0.0588 -0.0177
  664TIP3    H126187   1.310   1.311  18.926 -1.3918  0.2141  1.0754
  664TIP3    H226188   1.376   1.435  18.981 -0.3133  0.0091  0.2763
  665TIP3   OH226189   2.338   4.474  16.987 -0.0432  0.0325  0.4569
  665TIP3    H126190   2.257   4.438  16.950  0.6180  0.1934 -1.2294
  665TIP3    H226191   2.364   4.410  17.054 -2.4591  0.8469  2.3163
  666TIP3   OH226192   3.188   5.965  18.068 -0.0367 -0.6384 -0.6365
  666TIP3    H126193   3.183   6.043  18.012  1.6782  0.6753  0.9220
  666TIP3    H226194   3.161   5.996  18.154  5.0191 -0.4078  1.1563
  667TIP3   OH226195   3.618   5.211  20.970 -0.0212  0.2795  0.5172
  667TIP3    H126196   3.625   5.193  20.876 -1.1398 -1.5869  0.7306
  667TIP3    H226197   3.524   5.218  20.986  0.1977  1.6506  1.3514
  668TIP3   OH226198   2.906   0.152  17.636  0.1912  0.1543 -0.2201
  668TIP3    H126199   2.952   0.109  17.564  1.4206  0.1393  0.5407
  668TIP3    H226200   2.892   0.082  17.700  0.4199  0.4622  0.1719
  669TIP3   OH226201   5.773   1.832  18.397 -0.2723  0.1191  0.4753
  669TIP3    H126202   5.682   1.853  18.417 -0.8053 -0.2812 -1.3297
  669TIP3    H226203   5.822   1.911  18.420 -1.4212  1.2528 -0.8007
  670TIP3   OH226204   6.356   0.604  20.488  0.4438  0.2166 -0.4887
  670TIP3    H126205   6.330   0.693  20.513 -0.0274  0.5922 -2.1901
  670TIP3    H226206   6.274   0.555  20.485  0.5228  0.1022 -0.9188
  671TIP3   OH226207   1.686   2.381  20.171 -0.0200 -0.5465 -0.3894
  671TIP3    H126208   1.767   2.333  20.186 -0.7095 -1.1885  1.5013
  671TIP3    H226209   1.634   2.367  20.250 -0.5805  2.6903 -0.0495
  672TIP3   OH226210   4.702   5.019  19.377 -0.7307 -0.0349 -0.0509
  672TIP3    H126211   4.613   4.988  19.391 -1.1304  0.6916 -0.9022
  672TIP3    H226212   4.753   4.939  19.362 -1.2848 -0.4360  0.1742
  673TIP3   OH226213   0.836   1.365  18.987  0.1108 -0.9647  0.4041
  673TIP3    H126214   0.897   1.435  18.965  1.4159 -1.4342  2.2341
  673TIP3    H226215   0.777   1.404  19.052 -1.4086 -0.6126 -1.1060
  674TIP3   OH226216   3.508   4.124  17.921 -0.2328 -0.5826  0.3979
  674TIP3    H126217   3.555   4.193  17.874  1.8790 -0.4200  2.5381
  674TIP3    H226218   3.430   4.108  17.868  1.3038  0.4437 -2.4041
  675TIP3   OH226219   0.184   4.578  17.959 -0.5825  0.6548  0.5346
  675TIP3    H126220   0.147   4.633  17.890 -2.8175  0.0962  1.2207
  675TIP3    H226221   0.192   4.491  17.919  0.2941  0.8136  0.3244
  676TIP3   OH226222   5.894   3.188  19.286 -0.0639  0.4209 -0.1893
  676TIP3    H126223   5.876   3.168  19.377 -0.1744  0.5844 -0.1733
  676TIP3    H226224   5.817   3.156  19.238  1.4048 -2.7365 -0.6572
  677TIP3   OH226225   5.308   6.115  18.407 -0.0208 -0.1265  0.3099
  677TIP3    H126226   5.301   6.085  18.498  0.2103  0.3330  0.4839
  677TIP3    H226227   5.312   6.035  18.355 -0.2219 -0.3916  0.7034
  678TIP3   OH226228   0.824   2.187  20.247 -0.2100 -0.2546  0.1017
  678TIP3    H126229   0.815   2.108  20.300 -0.3942  0.5824  1.3777
  678TIP3    H226230   0.839   2.257  20.311  0.7979  0.6253 -1.0384
  679TIP3   OH226231   4.171   2.656  20.874  0.3804  0.2244  0.2285
  679TIP3    H126232   4.108   2.588  20.852  0.8962 -0.5343  1.0211
  679TIP3    H226233   4.230   2.659  20.798 -0.3929  0.7122 -0.3699
  680TIP3   OH226234   2.888   6.006  20.714 -0.0091 -0.2667  0.8377
  680TIP3    H126235   2.883   6.080  20.654 -1.8337 -1.6894 -0.9202
  680TIP3    H226236   2.796   5.983  20.731  0.4635 -0.5209  3.4603
  681TIP3   OH226237   1.654   2.035  18.618  0.2026 -0.0406  0.1071
  681TIP3    H126238   1.718   1.983  18.569  0.8716  0.0435  0.8814
  681TIP3    H226239   1.612   1.972  18.677 -0.6178 -0.1458 -0.5698
  682TIP3   OH226240   5.979   3.653  18.918 -0.1593 -0.3584 -0.7186
  682TIP3    H126241   5.980   3.748  18.906  0.0277 -0.1530  0.7144
  682TIP3    H226242   6.038   3.620  18.850 -0.5496  0.5113 -1.4996
  683TIP3   OH226243   4.129   0.863  19.003 -0.0864 -0.2615 -0.6800
  683TIP3    H126244   4.182   0.931  19.045  1.4858 -0.5588 -2.0777
  683TIP3    H226245   4.164   0.856  18.915 -2.4706 -0.5114 -1.7004
  684TIP3   OH226246   0.531   3.640  18.658  0.7020  0.1082  0.6268
  684TIP3    H126247   0.489   3.573  18.603 -0.8368  0.9726  0.6945
  684TIP3    H226248   0.623   3.639  18.630  0.7493 -2.0548  0.6785
  685TIP3   OH226249   4.864   6.171  17.980 -0.2702  0.1179 -0.1617
  685TIP3    H126250   4.930   6.101  17.980 -0.9508 -0.5405 -0.0189
  685TIP3    H226251   4.896   6.235  18.043 -0.3540 -0.7747  0.8190
  686TIP3   OH226252   5.855   1.617  20.559  0.3461 -0.2987  0.3609
  686TIP3    H126253   5.784   1.554  20.548  0.8805 -1.1268  1.4912
  686TIP3    H226254   5.917   1.595  20.490 -0.9445  1.1432 -1.3542
  687TIP3   OH226255   5.658   4.060  18.265  0.2476  0.5884  0.6293
  687TIP3    H126256   5.669   4.011  18.347 -0.9102  0.4070  0.6917
  687TIP3    H226257   5.668   3.994  18.197 -0.8861  0.3209  0.7018
  688TIP3   OH226258   2.452   0.559  20.487 -0.5784 -0.0339 -0.3841
  688TIP3    H126259   2.495   0.500  20.425 -1.2450  0.1034 -0.9872
  688TIP3    H226260   2.480   0.528  20.573  0.7807  0.0958 -0.7572
  689TIP3   OH226261   2.937   5.933  19.029  0.1222 -0.1857 -0.0127
  689TIP3    H126262   3.021   5.971  19.058  1.2459 -3.0258  0.8758
  689TIP3    H226263   2.922   5.860  19.090 -2.6583 -0.2282 -0.6187
  690TIP3   OH226264   6.226   4.576  20.449  0.4094  0.2870  0.0780
  690TIP3    H126265   6.241   4.533  20.532  0.8266 -0.7230 -0.5035
  690TIP3    H226266   6.312   4.612  20.425  0.1049  1.2986  0.4722
  691TIP3   OH226267   4.714   5.885  20.508  0.2879  0.0581 -0.3755
  691TIP3    H126268   4.768   5.961  20.489  0.4797 -0.0626 -0.3071
  691TIP3    H226269   4.766   5.810  20.479 -0.4761  0.0323 -1.7890
  692TIP3   OH226270   0.177   4.229  18.973  0.5477  0.6637  0.0721
  692TIP3    H126271   0.198   4.269  19.057  0.6609  1.6866 -0.4365
  692TIP3    H226272   0.258   4.185  18.946  1.2368  2.2713 -0.5761
  693TIP3   OH226273   4.651   5.664  19.496 -0.3768  0.7554 -0.0897
  693TIP3    H126274   4.631   5.606  19.422  1.4530 -2.4065  1.6753
  693TIP3    H226275   4.566   5.684  19.535 -1.0674 -1.1966 -0.5057
  694TIP3   OH226276   6.201   1.169  18.397  0.3881 -0.0724  0.6856
  694TIP3    H126277   6.200   1.096  18.458 -0.4531 -1.1668 -0.5813
  694TIP3    H226278   6.146   1.140  18.324  1.3749  1.1592 -0.6032
  695TIP3   OH226279   6.692   5.135  19.203 -0.6854  0.3353  0.0540
  695TIP3    H126280   6.725   5.126  19.114 -0.8711  0.3902 -0.0207
  695TIP3    H226281   6.674   5.046  19.232 -1.9823  0.3919 -0.4792
  696TIP3   OH226282   4.741   2.477  18.642 -0.0590  0.5765 -0.4538
  696TIP3    H126283   4.828   2.449  18.614  0.4360  1.3928  0.2280
  696TIP3    H226284   4.713   2.409  18.704 -0.7708 -0.7431 -2.1276
  697TIP3   OH226285   1.683   1.385  20.045 -0.4449 -0.4858  0.2499
  697TIP3    H126286   1.599   1.377  20.001 -0.6135  0.5803  0.3506
  697TIP3    H226287   1.748   1.374  19.976 -0.7098  2.1354 -0.5107
  698TIP3   OH226288   4.938   3.272  20.488 -0.2694 -0.5786  0.0150
  698TIP3    H126289   4.889   3.191  20.470 -0.2387 -0.5610 -0.1454
  698TIP3    H226290   4.908   3.298  20.575  0.1048 -1.0397  0.2851
  699TIP3   OH226291   5.047   3.362  18.137  0.0096 -0.2469 -0.3278
  699TIP3    H126292   5.016   3.441  18.183  0.1110 -1.0553  1.1905
  699TIP3    H226293   4.985   3.351  18.065 -1.3090  0.0204  0.7179
  700TIP3   OH226294   4.311   5.062  16.992 -0.6368 -0.2434 -0.4956
  700TIP3    H126295   4.404   5.066  17.012 -1.1533 -1.3110  2.6275
  700TIP3    H226296   4.283   5.154  16.989  0.3011  0.0523 -0.3096
  701TIP3   OH226297   6.198   2.871  17.399  0.1249  0.2559 -0.8844
  701TIP3    H126298   6.207   2.851  17.306  1.5921  0.3619 -0.7997
  701TIP3    H226299   6.263   2.814  17.442  0.5239  1.2826 -0.0866
  702TIP3   OH226300   4.122   4.939  18.642  0.1921  0.1172  0.0988
  702TIP3    H126301   4.168   4.973  18.718 -0.6209 -0.1721  0.7344
  702TIP3    H226302   4.191   4.920  18.578  0.9827 -0.6205  1.1499
  703TIP3   OH226303   1.502   5.298  20.219  0.3679 -0.1872 -0.6199
  703TIP3    H126304   1.426   5.276  20.166  0.6295 -2.7026 -0.0638
  703TIP3    H226305   1.467   5.345  20.294 -0.3868  0.4368 -1.3545
  704TIP3   OH226306   2.152   2.841  18.257 -0.7415  0.5336  0.1216
  704TIP3    H126307   2.227   2.897  18.274 -0.1667 -0.1559 -0.1040
  704TIP3    H226308   2.112   2.878  18.178  0.1866  0.0717 -0.5770
  705TIP3   OH226309   5.786   5.345  18.168  0.7037 -0.2899 -0.0386
  705TIP3    H126310   5.862   5.289  18.184  1.6020  0.9951  0.3148
  705TIP3    H226311   5.817   5.411  18.107 -0.5061 -0.4765 -0.8921
  706TIP3   OH226312   5.837   6.476  17.578  0.1145 -0.9533 -0.8821
  706TIP3    H126313   5.923   6.494  17.538  0.6671 -1.6492 -0.0502
  706TIP3    H226314   5.774   6.516  17.518  1.0272 -0.2686 -1.4250
  707TIP3   OH226315   6.702   2.640  19.540 -0.2475 -0.3672 -0.4422
  707TIP3    H126316   6.646   2.693  19.483  0.5269 -0.7596 -1.5917
  707TIP3    H226317   6.738   2.703  19.603 -2.0432 -0.1228  0.4066
  708TIP3   OH226318   1.114   1.220  20.625  0.0022 -0.1732  0.5248
  708TIP3    H126319   1.076   1.286  20.683 -0.5120  1.1803 -1.2387
  708TIP3    H226320   1.188   1.265  20.583 -0.6467 -0.4958 -1.0541
  709TIP3   OH226321   3.554   0.278  19.748  0.1461  0.2169 -0.2210
  709TIP3    H126322   3.593   0.207  19.799 -2.0651 -1.8284 -1.1728
  709TIP3    H226323   3.628   0.329  19.718  1.7894 -1.1395  1.2826
  710TIP3   OH226324   2.092   6.009  19.729 -0.5916  0.2292 -0.0815
  710TIP3    H126325   2.176   6.006  19.683 -1.0034  1.3485 -0.9612
  710TIP3    H226326   2.115   6.032  19.819  0.0894 -0.1842 -0.1396
  711TIP3   OH226327   5.481   1.853  19.636  0.7821 -0.1707  0.4077
  711TIP3    H126328   5.504   1.763  19.617  0.0503  0.3775 -4.0822
  711TIP3    H226329   5.559   1.904  19.614 -0.2443  0.5732 -1.8048
  712TIP3   OH226330   6.381   3.001  18.676  0.2224 -0.1676  0.3150
  712TIP3    H126331   6.436   2.980  18.601 -0.1328 -0.0936  0.0334
  712TIP3    H226332   6.370   3.096  18.672  0.4764 -0.1195  0.6533
  713TIP3   OH226333   3.405   4.966  18.095 -0.1301 -0.4565  0.2340
  713TIP3    H126334   3.392   5.000  18.184  0.4388 -1.2571  0.6394
  713TIP3    H226335   3.423   5.043  18.042 -1.2512  0.1210  0.6553
  714TIP3   OH226336   3.330   1.157  19.885 -0.2458 -0.5803  0.2459
  714TIP3    H126337   3.257   1.151  19.822 -0.4852  2.2971  0.1543
  714TIP3    H226338   3.291   1.197  19.963  0.3983 -2.7352  1.7671
  715TIP3   OH226339   3.986   0.747  20.425 -0.0881  0.1082 -0.4875
  715TIP3    H126340   4.048   0.813  20.395  1.7752 -0.4841  1.7533
  715TIP3    H226341   3.906   0.796  20.443  0.2086  1.1747 -1.8903
  716TIP3   OH226342   0.991   5.519  19.678  0.0975 -0.8271 -0.7578
  716TIP3    H126343   1.031   5.596  19.636 -1.2938 -0.1807 -0.9591
  716TIP3    H226344   1.029   5.518  19.766  0.7513 -0.3954 -1.0190
  717TIP3   OH226345   3.270   3.822  20.617 -0.1936 -0.2850 -0.0222
  717TIP3    H126346   3.213   3.829  20.693  0.5719  0.0578  0.5302
  717TIP3    H226347   3.324   3.745  20.633 -3.0817 -3.0170 -2.3565
  718TIP3   OH226348   6.567   0.503  20.620  0.2161  0.5832 -0.3542
  718TIP3    H126349   6.534   0.422  20.660  0.8379  0.5703  0.1592
  718TIP3    H226350   6.488   0.550  20.592 -0.4074  1.3063  2.2923
  719TIP3   OH226351   0.694   0.438  19.686 -1.0076  0.3717 -0.3750
  719TIP3    H126352   0.689   0.380  19.762  1.5780  1.1680  0.5213
  719TIP3    H226353   0.647   0.516  19.713 -0.4085  0.5115  0.3022
  720TIP3   OH226354   6.159   4.197  20.033 -0.5046 -0.2154 -0.1768
  720TIP3    H126355   6.095   4.162  20.095 -0.0543 -0.0866  0.3574
  720TIP3    H226356   6.142   4.148  19.952 -1.3900 -0.0703 -0.0974
  721TIP3   OH226357   4.181   4.041  17.921  0.5941 -0.0358 -0.1720
  721TIP3    H126358   4.236   4.080  17.852 -0.2266  0.1363 -0.7516
  721TIP3    H226359   4.163   3.953  17.890  0.1105  0.0881 -0.2540
  722TIP3   OH226360   4.689   2.428  20.406  0.5465  0.3398 -0.3606
  722TIP3    H126361   4.749   2.430  20.332 -1.1134 -0.1260 -1.7913
  722TIP3    H226362   4.638   2.509  20.398  0.6052  0.4641  0.4916
  723TIP3   OH226363   6.433   2.362  17.883 -0.3759 -0.2104 -0.3782
  723TIP3    H126364   6.518   2.320  17.894  0.6640  1.2674 -2.1708
  723TIP3    H226365   6.374   2.290  17.859  0.2549 -1.3105  1.2259
  724TIP3   OH226366   3.752   3.336  20.965  0.4455 -0.2262 -0.0503
  724TIP3    H126367   3.694   3.412  20.970 -2.0955 -1.8718 -1.8922
  724TIP3    H226368   3.760   3.318  20.871  2.7908 -0.9967  0.2145
  725TIP3   OH226369   3.955   4.250  18.999  0.2070 -0.0342 -0.0569
  725TIP3    H126370   3.918   4.182  18.943  0.5793  0.9886 -1.5845
  725TIP3    H226371   3.894   4.324  18.992 -0.3694 -0.2714  1.8416
  726TIP3   OH226372   5.039   5.816  18.250  0.5053  0.1734  0.2032
  726TIP3    H126373   4.953   5.857  18.255 -0.0183 -0.9584  0.9406
  726TIP3    H226374   5.023   5.733  18.204  1.2137 -0.0262  0.3065
  727TIP3   OH226375   2.394   0.613  17.852  0.2481 -0.2153 -0.2134
  727TIP3    H126376   2.460   0.562  17.804  1.1022  0.4499  0.2246
  727TIP3    H226377   2.345   0.548  17.902  1.9394 -0.5688  1.0902
  728TIP3   OH226378   2.205   1.303  19.646  0.1565  0.0809  0.2966
  728TIP3    H126379   2.148   1.378  19.666 -0.7725 -0.4115 -0.4280
  728TIP3    H226380   2.190   1.243  19.719 -0.7080 -0.2887 -0.1646
  729TIP3   OH226381   1.385   4.860  19.591  0.7604 -0.0209 -0.0124
  729TIP3    H126382   1.360   4.814  19.511  1.2447 -0.0284 -0.1579
  729TIP3    H226383   1.378   4.953  19.567 -3.7126  0.2175  1.2612
  730TIP3   OH226384   3.672   1.467  20.478 -0.7436 -0.2818  0.1768
  730TIP3    H126385   3.696   1.421  20.558 -0.5906 -2.2261 -0.9263
  730TIP3    H226386   3.753   1.473  20.428 -1.0814 -0.1920 -0.3736
  731TIP3   OH226387   6.457   1.133  19.354 -0.1784  0.2240 -0.4907
  731TIP3    H126388   6.384   1.072  19.347  1.0567 -1.5509  1.0909
  731TIP3    H226389   6.426   1.202  19.413 -0.2125 -1.1769  1.1937
  732TIP3   OH226390   2.777   1.505  17.821  0.0979 -0.4751  0.6867
  732TIP3    H126391   2.730   1.461  17.750  0.9573 -1.2953  0.6108
  732TIP3    H226392   2.770   1.598  17.799 -0.5890 -0.6445  0.1246
  733TIP3   OH226393   1.693   0.026  20.363 -0.7349 -0.4706 -0.3217
  733TIP3    H126394   1.749   0.002  20.289 -0.9840  0.3283 -0.7869
  733TIP3    H226395   1.736  -0.011  20.440 -1.5253 -3.1146 -1.0599
  734TIP3   OH226396   4.695   2.698  18.804  0.4203  0.1941 -0.1882
  734TIP3    H126397   4.629   2.761  18.775 -0.0914 -0.5455 -0.6786
  734TIP3    H226398   4.702   2.636  18.732 -1.8588 -2.4804  1.6748
  735TIP3   OH226399   3.058   0.004  19.775 -0.1441 -0.2334 -0.0534
  735TIP3    H126400   3.118  -0.016  19.704  0.6105 -1.0435  0.7771
  735TIP3    H226401   3.067  -0.070  19.835 -0.6507  0.4976  0.9515
  736TIP3   OH226402   2.445   6.397  19.449 -0.1958 -0.3445 -0.1775
  736TIP3    H126403   2.537   6.414  19.472  0.1875 -0.3795 -1.5395
  736TIP3    H226404   2.449   6.319  19.393 -1.2389 -1.2150  0.9111
  737TIP3   OH226405   2.937   5.956  17.528  0.1992 -0.3435  0.0843
  737TIP3    H126406   2.874   6.027  17.530  0.2367 -0.2817  3.0670
  737TIP3    H226407   3.011   5.991  17.478 -1.3770  0.1572 -2.0435
  738TIP3   OH226408   4.828   3.127  20.766 -0.3708  0.1347  0.4315
  738TIP3    H126409   4.918   3.108  20.741 -0.1189  1.2799  0.4489
  738TIP3    H226410   4.816   3.082  20.850  0.2239  0.1255  0.5100
  739TIP3   OH226411   3.197   2.970  18.382 -0.2117 -0.2350  0.2603
  739TIP3    H126412   3.123   2.943  18.327  0.1877 -0.0841 -0.3681
  739TIP3    H226413   3.274   2.950  18.329  0.1403  1.0145  0.2622
  740TIP3   OH226414   2.314   2.129  19.304 -0.0262 -0.2378  0.3116
  740TIP3    H126415   2.332   2.037  19.325 -3.0771 -0.7893  0.9412
  740TIP3    H226416   2.259   2.160  19.376 -0.0692  1.7345 -0.5021
  741TIP3   OH226417   0.974   5.363  19.431  0.1162 -0.9946  0.2869
  741TIP3    H126418   0.976   5.405  19.517  0.7963 -0.6205  0.0914
  741TIP3    H226419   1.044   5.405  19.382 -1.0578 -0.2941 -0.8829
  742TIP3   OH226420   2.460   4.778  18.021 -0.0705 -0.3698  0.0012
  742TIP3    H126421   2.469   4.768  18.116  0.2934 -0.0025  0.0107
  742TIP3    H226422   2.466   4.689  17.986 -0.2048 -0.5054  0.3221
  743TIP3   OH226423   3.511   0.376  20.687  0.2048 -0.1956 -0.4713
  743TIP3    H126424   3.454   0.348  20.615  1.1540 -2.0160 -0.5714
  743TIP3    H226425   3.475   0.331  20.764 -0.7330  1.6443  0.2345
  744TIP3   OH226426   5.098   2.423  20.176 -0.5016 -0.2846 -0.7983
  744TIP3    H126427   5.046   2.346  20.200  0.1151 -0.7241 -0.8636
  744TIP3    H226428   5.071   2.443  20.086 -1.2143  0.0448 -0.5207
  745TIP3   OH226429   0.893   0.591  20.415 -0.4858  0.0428  0.2124
  745TIP3    H126430   0.858   0.632  20.495 -1.3847  1.4390 -0.8304
  745TIP3    H226431   0.889   0.497  20.432  0.4439  0.3275  2.2414
  746TIP3   OH226432   2.637   6.026  18.901 -0.1616 -0.6163  0.1892
  746TIP3    H126433   2.650   5.973  18.822 -1.5731  1.3851 -1.4901
  746TIP3    H226434   2.724   6.032  18.941  0.6310 -1.4956 -1.3276
  747TIP3   OH226435   0.492   1.984  18.761 -0.4758 -0.4675  0.4362
  747TIP3    H126436   0.578   2.026  18.771  0.3495 -1.3893 -2.1729
  747TIP3    H226437   0.511   1.901  18.719 -2.6795 -0.6494 -0.3035
  748TIP3   OH226438   1.081   3.510  20.142 -0.0995  0.6165 -0.1170
  748TIP3    H126439   1.125   3.507  20.057 -1.0351  0.1648 -0.5977
  748TIP3    H226440   1.151   3.496  20.205  0.7636  1.8476 -0.7510
  749TIP3   OH226441   3.936   5.868  20.048  0.3781 -0.6776  1.0637
  749TIP3    H126442   3.954   5.791  20.101  1.9597 -0.5319  0.7828
  749TIP3    H226443   3.987   5.938  20.089  1.4263 -0.5037 -0.4725
  750TIP3   OH226444   1.514   0.353  17.854 -0.5910  0.3921  0.0262
  750TIP3    H126445   1.581   0.307  17.803 -1.0816  0.0218 -0.2944
  750TIP3    H226446   1.447   0.287  17.871  0.0188  0.2099  2.0555
  751TIP3   OH226447   1.326   3.411  18.095  0.6242 -0.8715  0.3509
  751TIP3    H126448   1.332   3.316  18.087  1.8639 -0.8426  0.6070
  751TIP3    H226449   1.295   3.441  18.010 -1.1554 -1.5850  0.7066
  752TIP3   OH226450   1.500   2.219  18.897 -0.0258  0.5842 -0.0233
  752TIP3    H126451   1.557   2.191  18.970 -2.1496 -2.2296  0.7223
  752TIP3    H226452   1.425   2.260  18.940  0.7674  3.2420 -0.9561
  753TIP3   OH226453   2.341   5.941  20.755  0.0389  0.0259  0.0522
  753TIP3    H126454   2.274   5.873  20.757  0.5624 -0.5246 -0.7200
  753TIP3    H226455   2.300   6.013  20.707  0.9299 -1.4021 -3.1796
  754TIP3   OH226456   3.279   6.653  19.310  0.3887 -0.0030 -0.8210
  754TIP3    H126457   3.322   6.738  19.308  0.5786 -0.0633  0.0757
  754TIP3    H226458   3.193   6.671  19.349  0.9848 -0.4198  0.7893
  755TIP3   OH226459   0.190   6.074  20.014 -0.4794 -0.4530  0.4940
  755TIP3    H126460   0.127   6.090  19.944  1.9014  0.2739 -1.6593
  755TIP3    H226461   0.182   6.150  20.072 -0.3855  0.5364 -0.7491
  756TIP3   OH226462   6.362   4.466  19.218 -0.3950  1.0793  0.0146
  756TIP3    H126463   6.324   4.426  19.295 -2.2177  2.0052 -0.3401
  756TIP3    H226464   6.354   4.400  19.149  1.0629  0.3227  0.5422
  757TIP3   OH226465   6.059   1.440  20.428  0.3382  0.6719 -0.1881
  757TIP3    H126466   6.143   1.422  20.469 -0.5274  0.3298  1.5410
  757TIP3    H226467   6.018   1.354  20.417  0.6030  0.7426 -1.9602
  758TIP3   OH226468   0.717   5.981  20.525 -0.1580 -0.1557 -0.2639
  758TIP3    H126469   0.652   5.932  20.576 -0.0731  0.0193  0.0144
  758TIP3    H226470   0.664   6.033  20.464 -0.2906  0.0787  0.0464
  759TIP3   OH226471   1.582   1.202  18.694  1.0043 -0.0605  0.2115
  759TIP3    H126472   1.514   1.235  18.753  1.1204 -0.5115  0.6083
  759TIP3    H226473   1.548   1.218  18.606  1.2145  1.4125  0.3834
  760TIP3   OH226474   6.281   1.349  20.531 -0.0387  0.4088 -0.2417
  760TIP3    H126475   6.295   1.256  20.517  1.3606  0.5872 -0.2131
  760TIP3    H226476   6.251   1.357  20.621 -2.2127 -0.1552 -0.8467
  761TIP3   OH226477   2.846   0.196  18.881 -0.0719  0.6935 -0.3015
  761TIP3    H126478   2.762   0.243  18.875 -0.2617  0.3749 -0.1893
  761TIP3    H226479   2.912   0.264  18.871 -0.3415  0.7856 -1.6339
  762TIP3   OH226480   3.980   0.701  17.746 -0.4348 -0.5813 -0.0953
  762TIP3    H126481   3.962   0.653  17.827  0.1248 -1.3986 -0.4449
  762TIP3    H226482   4.060   0.749  17.763 -1.4559  0.9684  0.5556
  763TIP3   OH226483   4.396   0.230  18.979  0.7636 -0.3412 -0.1258
  763TIP3    H126484   4.358   0.299  18.925  0.5869  0.4807  0.9989
  763TIP3    H226485   4.381   0.259  19.069  1.1594 -1.5997  0.3747
  764TIP3   OH226486   5.041   2.258  17.576 -1.0091 -0.2324 -0.3368
  764TIP3    H126487   4.967   2.197  17.572 -0.6170 -0.6785 -1.0558
  764TIP3    H226488   5.030   2.314  17.499 -1.1502  0.3610  0.1071
  765TIP3   OH226489   0.787   6.136  17.713 -0.1082 -0.3151 -0.0116
  765TIP3    H126490   0.836   6.054  17.721  0.9557  0.1781 -0.9986
  765TIP3    H226491   0.827   6.179  17.637  0.0999  1.6129  1.1288
  766TIP3   OH226492   3.231   0.523  18.419 -0.5340  0.0243 -0.0778
  766TIP3    H126493   3.234   0.540  18.324  1.0095  0.8929  0.0952
  766TIP3    H226494   3.199   0.605  18.456  0.1894  0.1599  0.2513
  767TIP3   OH226495   0.563   3.693  18.107 -0.3517  0.2516  0.2606
  767TIP3    H126496   0.569   3.736  18.022 -0.4998 -1.2892 -0.5709
  767TIP3    H226497   0.549   3.601  18.086  2.4340 -0.6733  1.8886
  768TIP3   OH226498   0.078   4.629  18.903  0.4119  0.0152 -0.2655
  768TIP3    H126499   0.142   4.644  18.833  1.7107  0.5476  1.0076
  768TIP3    H226500   0.129   4.595  18.976 -1.0625 -1.3836  0.1706
  769TIP3   OH226501   5.838   6.197  18.074 -0.3167 -0.0244 -0.3155
  769TIP3    H126502   5.757   6.169  18.034 -0.9190  0.0847  0.7888
  769TIP3    H226503   5.905   6.184  18.006 -1.5009  1.5606 -1.8804
  770TIP3   OH226504   5.668   2.556  19.848  0.2363  0.6484 -0.2588
  770TIP3    H126505   5.598   2.493  19.833  1.3116 -0.5511 -0.4442
  770TIP3    H226506   5.623   2.638  19.870 -1.2179  0.1082 -1.1022
  771TIP3   OH226507   5.660   2.532  19.025  0.1529  0.4317 -0.7073
  771TIP3    H126508   5.636   2.603  18.965  1.1145  0.8773 -0.5824
  771TIP3    H226509   5.751   2.511  19.003 -0.1221 -0.7908 -0.7578
  772TIP3   OH226510   1.449   1.618  19.478  0.6017 -0.6083 -0.6372
  772TIP3    H126511   1.454   1.642  19.385  0.1716 -0.0196 -0.5119
  772TIP3    H226512   1.356   1.602  19.494  0.5580  0.0764 -0.1239
  773TIP3   OH226513   5.848   4.522  20.670 -0.2386 -0.0918 -0.1742
  773TIP3    H126514   5.818   4.567  20.591 -0.8393  0.1314  0.1760
  773TIP3    H226515   5.808   4.570  20.742 -0.3583 -0.7807  0.2321
  774TIP3   OH226516   3.758   6.236  18.863 -0.9218  0.0371 -0.1205
  774TIP3    H126517   3.736   6.173  18.794 -0.9535 -0.5518  0.4161
  774TIP3    H226518   3.747   6.187  18.944  0.0796  0.4156  0.2621
  775TIP3   OH226519   2.885   6.143  20.400  0.6654  0.1273  0.1572
  775TIP3    H126520   2.981   6.138  20.395  0.7145 -0.5806  1.3514
  775TIP3    H226521   2.855   6.075  20.339  0.9092  0.5598 -0.4549
  776TIP3   OH226522   5.444   3.874  20.059  0.0568 -0.1204 -0.0110
  776TIP3    H126523   5.425   3.785  20.031  0.4014 -0.2566  0.1815
  776TIP3    H226524   5.414   3.878  20.150  0.0033 -0.0272 -0.0316
  777TIP3   OH226525   0.618   2.893  19.080  0.4369  0.3511  0.5346
  777TIP3    H126526   0.525   2.876  19.063  0.3335  0.5736  0.8628
  777TIP3    H226527   0.659   2.891  18.994  0.0830  0.4944  0.3608
  778TIP3   OH226528   0.773   4.939  20.037 -0.2009 -0.3503 -0.2124
  778TIP3    H126529   0.796   4.973  20.124  0.6238 -0.6303 -0.3133
  778TIP3    H226530   0.782   4.844  20.045  1.4963 -0.2864 -1.0406
  779TIP3   OH226531   0.082   5.373  18.877 -0.7418 -0.0015 -0.2989
  779TIP3    H126532   0.101   5.435  18.806 -0.4209  0.9873  0.6349
  779TIP3    H226533  -0.013   5.378  18.888 -0.8923 -0.6844 -1.1011
  780TIP3   OH226534   6.612   4.699  18.580 -0.2195 -0.5349  0.0192
  780TIP3    H126535   6.610   4.706  18.675  1.9131 -1.3594  0.1796
  780TIP3    H226536   6.706   4.699  18.558 -0.6312 -1.8557 -1.9513
  781TIP3   OH226537   5.507   6.717  17.656 -0.1397 -0.0867 -0.5146
  781TIP3    H126538   5.594   6.723  17.615  0.7034  0.7484  1.3011
  781TIP3    H226539   5.502   6.627  17.686 -0.7969 -0.7364 -2.4010
  782TIP3   OH226540   3.290   4.721  18.620 -0.1150  0.4991 -0.4079
  782TIP3    H126541   3.353   4.681  18.559 -0.7661 -1.1559 -0.0553
  782TIP3    H226542   3.213   4.737  18.566 -0.8754 -1.4367  0.0145
  783TIP3   OH226543   6.122   0.804  19.371 -0.0398  0.3285 -0.9327
  783TIP3    H126544   6.073   0.760  19.301 -0.0820  0.4963 -1.0089
  783TIP3    H226545   6.060   0.868  19.406 -1.8868 -2.9349  2.5488
  784TIP3   OH226546   1.699   5.296  17.571 -0.3899 -0.0897 -0.0933
  784TIP3    H126547   1.633   5.263  17.510  0.1955 -0.5645 -0.4850
  784TIP3    H226548   1.745   5.364  17.522 -0.4999  0.1520  0.1367
  785TIP3   OH226549   1.165   2.490  19.569 -0.2819  0.0465  0.1779
  785TIP3    H126550   1.102   2.554  19.535  0.3869 -0.0159 -1.2394
  785TIP3    H226551   1.111   2.417  19.599 -0.8729 -0.3539 -1.7520
  786TIP3   OH226552   0.354   4.082  18.068  0.6100 -0.1369  0.1007
  786TIP3    H126553   0.325   4.171  18.045 -1.1028  0.0991  2.7079
  786TIP3    H226554   0.320   4.027  17.998 -1.5259  0.8636  0.2734
  787TIP3   OH226555   3.390   1.904  18.878  0.5636 -0.3034 -0.0377
  787TIP3    H126556   3.360   1.940  18.961 -0.6851  0.9351 -0.9848
  787TIP3    H226557   3.311   1.871  18.836  0.8535  0.8672 -1.5745
  788TIP3   OH226558   2.811   6.182  19.221  0.3363  0.5789  0.6672
  788TIP3    H126559   2.777   6.154  19.306 -1.0611 -0.3884 -0.1519
  788TIP3    H226560   2.882   6.120  19.202  0.5986  0.7500  1.0934
  789TIP3   OH226561   5.149   3.334  18.938  0.2802 -0.3918 -0.2424
  789TIP3    H126562   5.163   3.420  18.898 -1.1783 -0.9555 -2.0894
  789TIP3    H226563   5.067   3.303  18.901  1.1861 -2.9804 -0.3315
  790TIP3   OH226564   2.649   1.555  20.435  0.3565  0.0959 -0.1610
  790TIP3    H126565   2.696   1.516  20.361 -1.2078 -0.5579 -0.8536
  790TIP3    H226566   2.661   1.492  20.506  0.4491 -0.1160 -0.3633
  791TIP3   OH226567   5.207   2.229  20.722 -0.0605 -0.1421  0.0948
  791TIP3    H126568   5.288   2.187  20.692 -0.3089 -0.3290 -0.3220
  791TIP3    H226569   5.146   2.156  20.735  0.2705 -0.1521  1.8251
  792TIP3   OH226570   2.299   1.180  18.110  0.1857 -0.1112 -0.1417
  792TIP3    H126571   2.345   1.263  18.124  1.3690 -0.8419  0.4381
  792TIP3    H226572   2.259   1.160  18.194  1.7826 -1.2138  0.4046
  793TIP3   OH226573   5.292   1.332  18.606  0.9275 -0.4176 -0.3180
  793TIP3    H126574   5.247   1.274  18.544 -1.4114  2.6128 -1.7056
  793TIP3    H226575   5.236   1.332  18.684 -0.3497  1.5124 -1.1511
  794TIP3   OH226576   4.132   1.103  20.864  0.2906 -0.1209 -0.5567
  794TIP3    H126577   4.096   1.104  20.775 -0.5179 -0.8020 -0.2412
  794TIP3    H226578   4.225   1.125  20.851  0.4219 -1.1918 -1.6792
  795TIP3   OH226579   4.554   5.019  18.790  0.2556  0.0929  0.0580
  795TIP3    H126580   4.490   5.025  18.719  0.7639  1.0168 -0.3281
  795TIP3    H226581   4.534   4.936  18.833  0.4364 -0.8898 -1.6590
  796TIP3   OH226582   6.520   3.214  20.141 -0.3206  0.4791 -0.4746
  796TIP3    H126583   6.539   3.126  20.107  0.7654  1.3996 -2.4338
  796TIP3    H226584   6.429   3.230  20.119 -0.4427 -0.0471 -0.3591
  797TIP3   OH226585   5.055   0.401  17.854  0.6361 -0.3269 -0.3352
  797TIP3    H126586   5.037   0.312  17.886  1.4587 -0.1756  0.5903
  797TIP3    H226587   5.150   0.410  17.860  0.5929  0.4771 -0.8116
  798TIP3   OH226588   5.078   1.482  18.910 -0.3646 -0.1185 -0.1052
  798TIP3    H126589   5.054   1.480  18.818 -1.5152 -1.0628  0.1835
  798TIP3    H226590   5.134   1.405  18.922  1.0158  0.8174 -0.2954
  799TIP3   OH226591   1.191   3.411  19.537  0.1895  0.0654  0.0806
  799TIP3    H126592   1.166   3.365  19.617  1.7588  1.0556  1.2002
  799TIP3    H226593   1.108   3.425  19.491 -0.5848 -1.7816  0.8021
  800TIP3   OH226594   6.564   4.256  20.022 -0.1850  0.0531  0.0811
  800TIP3    H126595   6.500   4.315  20.063 -1.1714 -1.6692  1.1340
  800TIP3    H226596   6.510   4.191  19.976  0.8306 -1.0462  0.4174
  801TIP3   OH226597   2.817   3.433  18.374  0.4945  0.1528  0.2703
  801TIP3    H126598   2.854   3.345  18.376 -0.5710 -0.3059  0.4068
  801TIP3    H226599   2.744   3.430  18.436 -1.0275  0.4469 -1.4212
  802TIP3   OH226600   5.440   6.402  18.703  0.0057  0.5509 -0.3593
  802TIP3    H126601   5.398   6.484  18.676  1.2350  1.5718  0.7015
  802TIP3    H226602   5.531   6.412  18.677  0.7025  0.5643  1.8359
  803TIP3   OH226603   3.367   3.037  19.462 -0.1977  0.2593 -0.3674
  803TIP3    H126604   3.383   2.957  19.412 -0.1833 -0.0061  0.0533
  803TIP3    H226605   3.442   3.093  19.442 -0.6385  0.5145 -1.3375
  804TIP3   OH226606   5.465   0.017  19.479 -0.4513 -0.2455  0.2247
  804TIP3    H126607   5.505   0.102  19.494  0.1592 -0.3001 -0.9382
  804TIP3    H226608   5.375   0.037  19.451 -0.7644 -0.0595  1.3167
  805TIP3   OH226609   3.634   3.842  19.752  0.1632  0.0063 -0.1791
  805TIP3    H126610   3.595   3.892  19.681  0.9850  0.9867  0.0358
  805TIP3    H226611   3.721   3.879  19.764  0.2342 -0.4630  1.0069
  806TIP3   OH226612   2.385   3.878  18.360  0.7732  0.0981 -0.1375
  806TIP3    H126613   2.428   3.881  18.275  1.3171 -2.3183 -0.0124
  806TIP3    H226614   2.453   3.849  18.421  0.3084  1.4706  1.0896
  807TIP3   OH226615   1.423   0.448  18.366  0.2654  0.1261 -0.1497
  807TIP3    H126616   1.365   0.512  18.325 -0.9250 -1.0106 -0.3135
  807TIP3    H226617   1.507   0.460  18.323 -0.0204  1.3780 -0.3774
  808TIP3   OH226618   6.542   2.006  18.443  0.0836 -0.0642  0.0879
  808TIP3    H126619   6.550   2.097  18.416  1.1985 -0.5555 -1.4219
  808TIP3    H226620   6.523   2.009  18.536  1.3014  1.6834  0.3130
  809TIP3   OH226621   6.108   2.020  19.510  0.6128  0.2787 -0.2225
  809TIP3    H126622   6.115   1.968  19.591  2.0495  1.5902  0.5369
  809TIP3    H226623   6.072   2.104  19.538 -0.1958  0.2804 -1.1964
  810TIP3   OH226624   3.055   3.703  20.387  0.0897 -0.0047  0.0135
  810TIP3    H126625   2.990   3.735  20.450  1.0168  0.2704  0.8561
  810TIP3    H226626   3.026   3.615  20.365 -1.2112  0.5390 -0.5337
  811TIP3   OH226627   5.028   6.251  19.808  0.0140  0.6763  0.0602
  811TIP3    H126628   4.933   6.252  19.824  0.2725 -0.5058  1.9219
  811TIP3    H226629   5.067   6.262  19.894  1.5777 -1.2557 -0.3452
  812TIP3   OH226630   0.086   0.387  18.932  0.1653  0.1920  0.3576
  812TIP3    H126631   0.141   0.325  18.979 -1.2512 -1.7758 -0.4825
  812TIP3    H226632   0.118   0.385  18.842  0.5644  1.2507  0.4595
  813TIP3   OH226633   5.325   4.756  20.622  0.1169  0.1951 -0.6468
  813TIP3    H126634   5.369   4.731  20.540  0.2350  0.0848 -0.5502
  813TIP3    H226635   5.295   4.846  20.606 -2.0588 -0.6564 -1.7183
  814TIP3   OH226636   4.120   3.357  18.156  0.1490 -0.1610  0.1562
  814TIP3    H126637   4.181   3.286  18.133 -0.0629 -0.2095 -0.2662
  814TIP3    H226638   4.053   3.353  18.088 -0.4611 -0.2721  0.7574
  815TIP3   OH226639   1.720   5.082  17.323  0.0565 -0.4050  0.6820
  815TIP3    H126640   1.737   5.003  17.374 -1.5891 -1.6710 -0.6063
  815TIP3    H226641   1.638   5.116  17.357  0.1353  0.0585  0.4219
  816TIP3   OH226642   2.216   3.779  18.156 -0.1936  0.0466  0.2723
  816TIP3    H126643   2.247   3.706  18.102 -1.1219 -0.2178  0.0795
  816TIP3    H226644   2.288   3.796  18.217  1.2697  0.9498 -1.5971
  817TIP3   OH226645   0.279   0.040  20.614 -0.0528  0.1211  0.3781
  817TIP3    H126646   0.367   0.073  20.633 -0.0015  2.1529 -2.7649
  817TIP3    H226647   0.222   0.115  20.629 -1.3738 -1.1470  2.2859
  818TIP3   OH226648   4.356   4.627  18.429  0.1739  0.2447 -0.3097
  818TIP3    H126649   4.353   4.561  18.498  1.3433  1.3381  0.8505
  818TIP3    H226650   4.307   4.589  18.357 -0.2075 -1.3735  0.7529
  819TIP3   OH226651   1.242   5.989  20.402  0.5092  0.1242  0.9173
  819TIP3    H126652   1.151   5.990  20.433  0.6352  0.9765  1.2714
  819TIP3    H226653   1.294   5.979  20.481  0.8397  2.4536  1.0473
  820TIP3   OH226654   4.731   2.148  19.083 -0.6976  0.1997  0.0479
  820TIP3    H126655   4.757   2.191  19.001 -0.4331 -0.9031 -0.4699
  820TIP3    H226656   4.815   2.125  19.125 -0.8090  1.5516  1.0919
  821TIP3   OH226657   0.433   1.599  20.113  0.0313 -0.0268  0.3465
  821TIP3    H126658   0.351   1.550  20.114 -0.3591  0.3870 -2.4803
  821TIP3    H226659   0.481   1.563  20.038  1.2177  1.5886  0.2903
  822TIP3   OH226660   0.087   5.950  17.917 -0.1907 -0.0531 -0.0369
  822TIP3    H126661   0.081   6.011  17.990 -0.8009  1.1948 -1.0721
  822TIP3    H226662   0.159   5.984  17.863 -1.2895  0.4989 -1.2250
  823TIP3   OH226663   0.673   6.596  18.454  0.7484  0.0582 -0.1087
  823TIP3    H126664   0.703   6.556  18.535 -0.5763  0.6115  0.7009
  823TIP3    H226665   0.670   6.525  18.390 -0.7746 -1.0082  1.0799
  824TIP3   OH226666   4.825   2.919  18.073  0.7389 -0.5762 -0.3039
  824TIP3    H126667   4.798   2.857  18.005  0.5347 -0.0036 -0.7537
  824TIP3    H226668   4.914   2.892  18.096  0.3699 -1.5199  0.0790
  825TIP3   OH226669   6.281   5.109  18.497 -0.2256  0.2462 -0.0685
  825TIP3    H126670   6.303   5.056  18.574  2.5643  0.5280 -0.5772
  825TIP3    H226671   6.185   5.113  18.498 -0.4096 -2.0357  1.8291
  826TIP3   OH226672   3.100   6.093  19.244  0.4109 -0.1859 -0.8227
  826TIP3    H126673   3.085   6.181  19.279  1.0870  0.2357 -1.5776
  826TIP3    H226674   3.110   6.038  19.322  4.0216  1.0848 -0.2274
  827TIP3   OH226675   1.893   0.486  18.872 -0.0795 -0.2351  0.2757
  827TIP3    H126676   1.927   0.454  18.788  2.4169  2.1360  0.2711
  827TIP3    H226677   1.952   0.448  18.937 -0.0039  0.5436  0.6634
  828TIP3   OH226678   2.182   0.851  20.011 -0.0291 -0.1339 -0.4578
  828TIP3    H126679   2.125   0.894  20.074  0.9935 -0.3726  0.6781
  828TIP3    H226680   2.199   0.765  20.050  2.4951  0.5673  0.1714
  829TIP3   OH226681   6.317   2.930  18.211  0.4493  0.3683  0.0718
  829TIP3    H126682   6.367   2.854  18.182  0.8760  0.2825  0.9995
  829TIP3    H226683   6.342   3.000  18.150 -0.2457 -0.3125 -1.0320
  830TIP3   OH226684   3.349   1.583  18.195  0.3583  0.6015 -0.3091
  830TIP3    H126685   3.294   1.549  18.266  2.0454  0.4735  0.9880
  830TIP3    H226686   3.372   1.671  18.222  1.5834  0.3072 -0.3428
  831TIP3   OH226687   0.579   4.525  18.191  0.9963 -0.6764  0.8608
  831TIP3    H126688   0.562   4.463  18.120  0.9712 -0.0978  0.3534
  831TIP3    H226689   0.550   4.479  18.270  0.2918 -1.0289  0.4089
  832TIP3   OH226690   3.984   4.902  20.125 -0.2739 -0.0351 -0.2437
  832TIP3    H126691   4.001   4.872  20.036  1.8446 -1.2331  0.5157
  832TIP3    H226692   4.047   4.973  20.139  0.0354 -0.4657  0.5927
  833TIP3   OH226693   2.879   2.893  17.436 -0.2707 -0.0798  0.2598
  833TIP3    H126694   2.785   2.907  17.442 -0.1106  0.7445  1.4566
  833TIP3    H226695   2.916   2.981  17.426  0.3580 -0.4075 -0.3821
  834TIP3   OH226696   1.980   5.765  20.896 -0.1636 -0.1903  0.5596
  834TIP3    H126697   2.030   5.756  20.815 -1.6903  0.4346 -0.4934
  834TIP3    H226698   2.026   5.708  20.959  0.6400 -1.2568 -0.9241
  835TIP3   OH226699   2.740   3.620  19.615  0.0448 -0.2549  0.2217
  835TIP3    H126700   2.765   3.706  19.582  1.5902 -1.0556 -0.7770
  835TIP3    H226701   2.668   3.593  19.558  0.5715 -0.2643 -0.4531
  836TIP3   OH226702   5.967   4.044  20.165  0.4548 -0.1546 -0.1940
  836TIP3    H126703   5.890   4.001  20.128  0.2689  1.2289 -1.5079
  836TIP3    H226704   5.955   4.037  20.260 -1.7791  0.7981 -0.3292
  837TIP3   OH226705   3.465   2.219  18.205  0.4460 -0.1608  0.2309
  837TIP3    H126706   3.375   2.222  18.239  0.4455  1.1541  0.1625
  837TIP3    H226707   3.454   2.209  18.111  0.3694 -0.3733  0.2634
  838TIP3   OH226708   3.829   1.078  18.769  0.2742  0.2725  0.4139
  838TIP3    H126709   3.747   1.048  18.809 -0.5116  0.0291 -1.2659
  838TIP3    H226710   3.827   1.039  18.681  0.8087  2.5881 -0.6882
  839TIP3   OH226711   3.735   2.771  21.049  0.1718 -0.2020  0.0047
  839TIP3    H126712   3.741   2.863  21.022  1.6948  0.4884  2.4667
  839TIP3    H226713   3.671   2.771  21.120  0.3656 -0.9980  0.1880
  840TIP3   OH226714   4.066   0.468  19.427  0.7673  0.0538  0.1023
  840TIP3    H126715   4.153   0.429  19.436  0.8786 -0.3262 -2.1119
  840TIP3    H226716   4.060   0.531  19.499  2.5080 -0.5462  0.8139
  841TIP3   OH226717   2.407   4.613  20.612  0.1067  0.5224  0.1797
  841TIP3    H126718   2.493   4.572  20.600  0.3180  1.0213 -0.0143
  841TIP3    H226719   2.346   4.539  20.613  0.5053  0.1853  0.0405
  842TIP3   OH226720   3.372   4.434  18.972 -0.2635  0.6648 -0.2086
  842TIP3    H126721   3.295   4.383  18.997 -0.3066  0.6348 -0.4014
  842TIP3    H226722   3.433   4.369  18.937 -0.4427  0.7834 -0.7541
  843TIP3   OH226723   3.534   5.368  18.996 -0.4012 -0.3155 -0.0157
  843TIP3    H126724   3.454   5.327  18.963 -0.9943  1.4133 -0.8298
  843TIP3    H226725   3.521   5.372  19.091 -0.1722 -2.2651  0.1292
  844TIP3   OH226726   3.459   1.306  20.393  0.4502 -0.1446  0.4859
  844TIP3    H126727   3.415   1.368  20.334  0.5315 -0.2202  0.3457
  844TIP3    H226728   3.532   1.356  20.430 -0.2254  0.2377  1.3429
  845TIP3   OH226729   0.664   5.371  19.007  0.1655  0.5262 -0.3181
  845TIP3    H126730   0.661   5.276  19.019 -0.9493  0.4847 -0.7551
  845TIP3    H226731   0.585   5.391  18.957  1.1173  1.5194 -1.4959
  846TIP3   OH226732   1.052   5.761  18.556  0.5798  0.4789  0.3850
  846TIP3    H126733   1.131   5.742  18.505  0.6079  0.1785  0.5345
  846TIP3    H226734   1.034   5.853  18.539  0.1647  0.2129 -0.7526
  847TIP3   OH226735   6.431   3.613  18.180  0.2315 -0.4349 -0.3065
  847TIP3    H126736   6.413   3.707  18.170 -1.2368 -0.7080 -0.5447
  847TIP3    H226737   6.432   3.580  18.090 -0.8182 -0.8797 -0.1775
  848TIP3   OH226738   2.743   6.093  18.250 -0.5995  0.1475  0.6533
  848TIP3    H126739   2.742   6.087  18.345 -1.1838  0.1002  0.6519
  848TIP3    H226740   2.713   6.181  18.231 -0.4146  0.1806  0.5136
  849TIP3   OH226741   2.004   3.704  19.328  0.3535 -0.0279 -0.1223
  849TIP3    H126742   2.066   3.631  19.329  1.3185  0.7714  1.1011
  849TIP3    H226743   1.997   3.728  19.235 -0.0328 -1.6968 -0.5473
  850TIP3   OH226744   0.412   5.285  18.914 -0.3045  0.1377  0.5551
  850TIP3    H126745   0.408   5.242  18.829  0.6801  0.6133  0.2559
  850TIP3    H226746   0.340   5.348  18.913 -0.9932 -0.6356  0.5235
  851TIP3   OH226747   2.204   0.242  19.152  0.4588  0.0958 -0.4499
  851TIP3    H126748   2.150   0.190  19.212 -0.2691  0.0007 -1.1826
  851TIP3    H226749   2.294   0.224  19.180  0.1714 -0.7301 -0.0257
  852TIP3   OH226750   4.591   4.840  20.693  0.3022 -0.0994 -0.3195
  852TIP3    H126751   4.573   4.765  20.637  0.4422  1.4738 -2.6426
  852TIP3    H226752   4.686   4.840  20.705  0.0422 -2.2314  2.7507
  853TIP3   OH226753   3.138   0.096  17.126  0.0837 -0.0107  0.0064
  853TIP3    H126754   3.056   0.076  17.172  0.0635  1.0041  0.4508
  853TIP3    H226755   3.123   0.068  17.036 -0.6267 -0.1697  0.1686
  854TIP3   OH226756   2.167   6.388  19.934 -0.1538  0.1221 -0.2612
  854TIP3    H126757   2.177   6.448  20.008  0.6126  1.2218 -1.2514
  854TIP3    H226758   2.083   6.344  19.952  0.4516 -0.3416  1.7454
  855TIP3   OH226759   0.727   3.664  18.352 -0.8986 -0.2745  0.0114
  855TIP3    H126760   0.775   3.582  18.341 -1.6535 -0.8246  0.6806
  855TIP3    H226761   0.669   3.669  18.276 -1.0061 -0.4817  0.0779
  856TIP3   OH226762   1.479   3.741  20.218  0.1508  0.4195 -0.0519
  856TIP3    H126763   1.445   3.652  20.205  1.2965  0.0659 -0.8138
  856TIP3    H226764   1.449   3.790  20.142 -0.1896  0.6015  0.1966
  857TIP3   OH226765   5.899   0.796  17.731  0.5740  0.1950  0.5289
  857TIP3    H126766   5.920   0.858  17.802 -2.6045  0.3215  1.5168
  857TIP3    H226767   5.852   0.848  17.667 -1.0810 -0.8843  0.8000
  858TIP3   OH226768   5.980   0.568  20.230 -0.0048 -0.5831 -0.1870
  858TIP3    H126769   5.914   0.583  20.162 -1.5120 -0.5059  1.2215
  858TIP3    H226770   6.058   0.612  20.198 -0.9875  0.3462 -1.3965
  859TIP3   OH226771   1.073   2.715  17.535 -0.2677  0.8210  0.7032
  859TIP3    H126772   1.164   2.688  17.547 -0.9044 -1.3437  1.1208
  859TIP3    H226773   1.026   2.634  17.520 -2.3967  1.7102  2.0755
  860TIP3   OH226774   2.278   4.080  20.088 -0.4045 -0.0570  0.0291
  860TIP3    H126775   2.259   4.006  20.029  0.4355  1.2182 -1.9463
  860TIP3    H226776   2.353   4.050  20.139  0.0301 -0.5470 -0.8530
  861TIP3   OH226777   6.173   2.201  18.889  0.8563  0.1561  0.5676
  861TIP3    H126778   6.248   2.185  18.832 -0.1021  0.2639 -0.7563
  861TIP3    H226779   6.206   2.263  18.955  1.7346  0.7663 -0.4195
  862TIP3   OH226780   1.652   4.081  20.451 -0.2188 -0.3136 -0.0612
  862TIP3    H126781   1.572   4.112  20.495  0.0213 -1.6086  1.3601
  862TIP3    H226782   1.722   4.136  20.486 -0.3274  0.1415 -0.5394
  863TIP3   OH226783   3.821   6.656  19.358  0.0038  0.0814 -0.1126
  863TIP3    H126784   3.767   6.690  19.286  0.0024 -0.0417 -0.1699
  863TIP3    H226785   3.762   6.601  19.408  0.5614 -1.6900 -1.3175
  864TIP3   OH226786   5.137   6.418  20.271 -0.0044 -0.0072  0.3914
  864TIP3    H126787   5.051   6.394  20.307 -0.3573 -1.6586 -1.3768
  864TIP3    H226788   5.139   6.513  20.275 -0.7798 -0.0143  2.9198
  865TIP3   OH226789   3.386   0.353  20.164  0.4298  0.3500 -0.0242
  865TIP3    H126790   3.415   0.410  20.093 -4.0541  2.7480 -0.2761
  865TIP3    H226791   3.368   0.269  20.122 -1.3308  1.4689 -1.6404
  866TIP3   OH226792   5.366   1.497  19.555  0.1787  0.1035 -0.1866
  866TIP3    H126793   5.321   1.558  19.496 -0.6890  0.1862  0.5411
  866TIP3    H226794   5.316   1.501  19.636  2.1997  1.1356  1.0963
  867TIP3   OH226795   6.663   4.103  18.942 -0.2903 -0.6868  0.2152
  867TIP3    H126796   6.644   4.088  18.850  1.0313 -0.6993 -0.0796
  867TIP3    H226797   6.750   4.142  18.942 -1.7056  2.8847  1.2239
  868TIP3   OH226798   2.897   6.722  18.733 -0.6032  0.1370 -0.1276
  868TIP3    H126799   2.857   6.741  18.648 -0.4933  0.5421 -0.0917
  868TIP3    H226800   2.869   6.795  18.789 -0.1860  0.1841  0.0195
  869TIP3   OH226801   5.943   5.313  19.687 -0.0619  0.0222 -0.4892
  869TIP3    H126802   5.853   5.322  19.718 -0.6233  1.4747 -2.3859
  869TIP3    H226803   5.995   5.362  19.750 -0.3826 -1.7306  1.2555
  870TIP3   OH226804   4.430   4.381  18.568  0.4447 -0.9029  0.1499
  870TIP3    H126805   4.421   4.304  18.511 -0.0316 -0.6219 -0.1580
  870TIP3    H226806   4.518   4.373  18.605 -0.2985 -2.6782  1.6922
  871TIP3   OH226807   5.067   0.330  18.664  0.1020 -0.2159 -0.7360
  871TIP3    H126808   5.087   0.423  18.661  1.7327 -0.5642 -2.2023
  871TIP3    H226809   4.981   0.325  18.706 -0.3085  1.9785 -1.2078
  872TIP3   OH226810   1.922   4.432  20.785 -0.1771 -0.0509  0.3130
  872TIP3    H126811   1.985   4.500  20.765  0.1709 -0.8323 -1.4663
  872TIP3    H226812   1.962   4.382  20.856  0.5726  0.2844  0.1379
  873TIP3   OH226813   4.440   0.150  18.193  0.2417 -0.3092 -0.3204
  873TIP3    H126814   4.484   0.179  18.113  0.7370  1.8686  0.6648
  873TIP3    H226815   4.393   0.227  18.224 -0.2513 -1.2112  1.2886
  874TIP3   OH226816   0.757   0.187  19.902 -0.1315  0.4737  0.5833
  874TIP3    H126817   0.775   0.132  19.979 -0.3485 -1.4829 -0.7048
  874TIP3    H226818   0.674   0.153  19.868  0.4114  0.6968 -1.0295
  875TIP3   OH226819   5.547   2.872  17.571 -0.2509  0.1197  0.3962
  875TIP3    H126820   5.507   2.906  17.491 -4.3197 -1.0343  1.6975
  875TIP3    H226821   5.567   2.780  17.551 -1.1462 -0.1318  0.5836
  876TIP3   OH226822   1.630   3.326  18.666 -0.3820  0.4115  0.5312
  876TIP3    H126823   1.555   3.298  18.718 -0.2644  0.9037  0.9759
  876TIP3    H226824   1.699   3.263  18.686 -0.3976  0.4869  0.8198
  877TIP3   OH226825   5.566   4.249  20.423 -0.5493 -0.7152 -0.2475
  877TIP3    H126826   5.608   4.177  20.377 -0.2769 -1.0186  0.4628
  877TIP3    H226827   5.624   4.324  20.409 -0.7034 -0.6945 -0.7765
  878TIP3   OH226828   2.650   1.059  17.707  0.1746 -0.8623 -0.0259
  878TIP3    H126829   2.567   1.045  17.754  0.7086 -0.7026  0.9721
  878TIP3    H226830   2.634   1.019  17.621 -0.9947 -0.6962  0.0889
  879TIP3   OH226831   2.583   0.821  16.935 -0.2078 -0.1304 -0.1724
  879TIP3    H126832   2.491   0.801  16.917 -0.5305  1.9163 -1.0885
  879TIP3    H226833   2.584   0.915  16.951  1.8283 -0.0014 -0.8025
  880TIP3   OH226834   5.391   4.256  18.497  0.3197  0.3101  0.3729
  880TIP3    H126835   5.472   4.270  18.547 -0.3651  0.8372  1.3726
  880TIP3    H226836   5.342   4.192  18.550 -0.6807  1.3315  0.7101
  881TIP3   OH226837   5.882   5.571  17.321 -0.3472 -0.1865 -0.3891
  881TIP3    H126838   5.901   5.491  17.370 -2.2673  0.3351  1.3312
  881TIP3    H226839   5.966   5.618  17.318  0.5182 -1.6783 -0.3650
  882TIP3   OH226840   0.486   2.626  18.659  0.5181 -0.8556  0.1139
  882TIP3    H126841   0.433   2.695  18.618  2.5988  0.4206 -0.5675
  882TIP3    H226842   0.422   2.559  18.684 -1.3541  0.3681 -1.0991
  883TIP3   OH226843   4.272   4.404  20.424  0.1427 -0.3904 -0.3036
  883TIP3    H126844   4.189   4.356  20.426  0.9446 -1.8256  0.9869
  883TIP3    H226845   4.286   4.431  20.515  1.3728 -0.7154 -0.3761
  884TIP3   OH226846   4.727   5.340  20.827  0.5464 -0.0167  0.1004
  884TIP3    H126847   4.812   5.342  20.872 -0.0340  1.0778  1.2186
  884TIP3    H226848   4.678   5.271  20.871  1.6669 -2.4952 -2.2435
  885TIP3   OH226849   3.705   3.357  18.516 -0.0074  0.6896 -0.5642
  885TIP3    H126850   3.718   3.377  18.608  2.7970  0.3402 -0.8108
  885TIP3    H226851   3.612   3.337  18.509 -0.2823  0.6624  2.1800
  886TIP3   OH226852   2.271   6.216  18.762 -0.0535 -0.5552 -0.0781
  886TIP3    H126853   2.207   6.283  18.737 -0.9390 -1.7434 -1.0856
  886TIP3    H226854   2.271   6.217  18.858 -0.5971  0.3541 -0.0773
  887TIP3   OH226855   3.516   1.176  17.815  0.5598 -0.1228 -0.2746
  887TIP3    H126856   3.440   1.234  17.818  1.0804  0.5513 -0.0662
  887TIP3    H226857   3.531   1.152  17.906  0.3135 -0.6479 -0.3654
  888TIP3   OH226858   0.126   5.148  19.817  0.8226  0.0867 -0.2970
  888TIP3    H126859   0.092   5.223  19.866  1.7797 -0.6703  1.5927
  888TIP3    H226860   0.209   5.127  19.859  0.6709 -1.9318 -0.9177
  889TIP3   OH226861   1.272   4.801  19.924  0.6649  0.2868  0.7895
  889TIP3    H126862   1.293   4.840  20.008  0.4684 -0.5130  1.2124
  889TIP3    H226863   1.212   4.864  19.883  0.0241  0.2350  1.6373
  890TIP3   OH226864   6.062   5.790  19.723 -0.2506  0.3329  0.0500
  890TIP3    H126865   6.017   5.865  19.684  1.2056  0.5232 -1.3839
  890TIP3    H226866   6.128   5.830  19.780 -0.5261  0.0892  0.5503
  891TIP3   OH226867   1.221   4.281  19.547  0.9927 -0.0405  0.5757
  891TIP3    H126868   1.183   4.287  19.635  1.9224 -2.0170  1.1754
  891TIP3    H226869   1.291   4.346  19.547 -0.5155  1.6666  0.4124
  892TIP3   OH226870   3.048   4.048  18.489 -0.1102 -0.0768 -0.5255
  892TIP3    H126871   3.116   4.114  18.473  0.0739 -0.5548 -1.8505
  892TIP3    H226872   3.096   3.968  18.509 -0.2341 -0.5733 -2.0947
  893TIP3   OH226873   6.412   3.427  19.228 -0.2104  0.0333 -0.3602
  893TIP3    H126874   6.357   3.373  19.284 -0.2325 -0.9973 -1.3490
  893TIP3    H226875   6.353   3.461  19.161 -0.2702  1.6019  0.4437
  894TIP3   OH226876   6.693   2.726  20.267 -0.1196  0.0458  0.8892
  894TIP3    H126877   6.637   2.721  20.345  0.8510 -0.2171  1.5908
  894TIP3    H226878   6.759   2.791  20.289  0.9675 -1.0049  0.8255
  895TIP3   OH226879   6.472   0.284  19.851  0.0414 -0.4743  0.0154
  895TIP3    H126880   6.520   0.202  19.863  0.7605 -0.3944 -1.9613
  895TIP3    H226881   6.488   0.333  19.931  1.2863 -1.4377  0.3980
  896TIP3   OH226882   0.287   3.727  18.475  0.0239 -0.9215  1.0257
  896TIP3    H126883   0.328   3.775  18.403 -0.5943 -2.5257 -0.4566
  896TIP3    H226884   0.337   3.754  18.552  1.5188 -0.0805 -0.1718
  897TIP3   OH226885   3.752   4.604  17.459 -0.5044  0.4567 -0.0209
  897TIP3    H126886   3.721   4.519  17.489 -0.4975  0.6440  0.5384
  897TIP3    H226887   3.693   4.667  17.502  0.1168  0.7756  0.3775
  898TIP3   OH226888   5.320   1.673  19.341  0.3418  0.1626 -0.2292
  898TIP3    H126889   5.245   1.689  19.283 -0.6261 -2.6244  0.1184
  898TIP3    H226890   5.369   1.755  19.339 -2.5293  2.0279 -0.7115
  899TIP3   OH226891   6.445   1.972  20.234  0.0470  0.4785 -0.0135
  899TIP3    H126892   6.474   2.028  20.306  0.6795 -2.8914  2.6179
  899TIP3    H226893   6.524   1.959  20.181  1.8383 -2.6949  2.9555
  900TIP3   OH226894   3.176   3.261  17.646 -0.2538  0.6439 -0.3246
  900TIP3    H126895   3.100   3.320  17.647  0.0332  1.1419  2.7605
  900TIP3    H226896   3.251   3.319  17.632  0.0195  1.2056  2.6225
  901TIP3   OH226897   4.974   5.829  17.172  0.2631 -0.4751  0.3373
  901TIP3    H126898   5.040   5.899  17.169  0.0451 -0.2385  0.8494
  901TIP3    H226899   4.966   5.809  17.265 -0.2205 -0.6648  0.2557
  902TIP3   OH226900   1.067   4.206  18.719  0.2356 -0.3700 -0.0700
  902TIP3    H126901   1.020   4.238  18.796 -0.1290 -0.5469 -0.2178
  902TIP3    H226902   1.121   4.280  18.692  0.1686 -0.2191  0.1987
  903TIP3   OH226903   2.010   0.079  17.907 -0.0720 -0.3916  0.3470
  903TIP3    H126904   2.019   0.021  17.983  1.0728 -1.0399 -0.2602
  903TIP3    H226905   1.959   0.153  17.940 -0.4833 -1.1421  1.4733
  904TIP3   OH226906   4.704   6.553  19.888 -0.2511  0.1349  0.0164
  904TIP3    H126907   4.711   6.458  19.878  0.1183  0.1627 -0.0255
  904TIP3    H226908   4.794   6.582  19.904 -0.2758  0.5419 -0.5575
  905TIP3   OH226909   0.720   5.943  19.252  0.4842 -0.2323 -0.3916
  905TIP3    H126910   0.628   5.971  19.252 -0.0148 -1.5616 -2.6053
  905TIP3    H226911   0.723   5.875  19.184  3.2519  0.2247 -0.8186
  906TIP3   OH226912   3.676   6.491  20.906 -0.1077  0.2712  0.1140
  906TIP3    H126913   3.761   6.525  20.877 -0.6298  0.9641 -0.6646
  906TIP3    H226914   3.619   6.568  20.909 -1.1887 -0.4322 -1.1826
  907TIP3   OH226915   5.722   3.931  20.121 -0.1615 -0.3455 -0.5703
  907TIP3    H126916   5.697   3.918  20.213 -0.5282 -0.9893 -0.7471
  907TIP3    H226917   5.642   3.910  20.072 -0.0060  0.1179 -1.0322
  908TIP3   OH226918   2.153   4.604  20.918  0.3866  0.3421 -0.3353
  908TIP3    H126919   2.180   4.668  20.984 -0.6199  1.9749 -1.4326
  908TIP3    H226920   2.230   4.595  20.861  0.9681 -0.4420  0.5415
  909TIP3   OH226921   6.400   1.926  19.578  0.3185 -0.9335 -0.1152
  909TIP3    H126922   6.410   1.860  19.647 -0.4687 -0.5166  0.4218
  909TIP3    H226923   6.385   2.008  19.625  0.3183 -0.5434 -0.7773
  910TIP3   OH226924   6.679   6.591  19.546 -0.2946 -0.0114  0.0311
  910TIP3    H126925   6.694   6.664  19.487  3.1877  0.5121  1.3307
  910TIP3    H226926   6.621   6.532  19.498 -1.3902  2.5119 -1.9403
  911TIP3   OH226927   6.275   2.562  20.309 -0.5350 -0.2215 -0.1115
  911TIP3    H126928   6.243   2.649  20.286  1.9674  0.6557 -0.6464
  911TIP3    H226929   6.237   2.505  20.242 -0.0181  0.9515 -1.4708
  912TIP3   OH226930   0.324   5.392  19.472 -0.2115 -0.1244 -0.0833
  912TIP3    H126931   0.380   5.380  19.549  0.2564 -1.8911 -0.6521
  912TIP3    H226932   0.249   5.335  19.488 -0.4747  0.0649 -0.6125
  913TIP3   OH226933   6.142   1.639  17.593 -0.3702 -0.3766 -0.4527
  913TIP3    H126934   6.098   1.555  17.582  0.4134 -0.8466 -0.1592
  913TIP3    H226935   6.220   1.618  17.645 -0.4898  0.6346  0.1661
  914TIP3   OH226936   3.721   0.196  19.035  0.3452  0.9435  0.1039
  914TIP3    H126937   3.654   0.155  18.980  0.6575  0.8633 -0.2160
  914TIP3    H226938   3.671   0.252  19.095 -0.0843  0.1447  0.5102
  915TIP3   OH226939   3.471   1.166  21.023  0.5404 -0.1397 -0.2579
  915TIP3    H126940   3.513   1.083  21.048 -0.1686 -0.3941  0.1175
  915TIP3    H226941   3.379   1.143  21.012  0.4208  0.5098 -0.6176
  916TIP3   OH226942   2.742   4.214  17.782  0.1522 -0.1103 -0.1028
  916TIP3    H126943   2.736   4.307  17.760 -0.0629 -0.4808 -1.7187
  916TIP3    H226944   2.766   4.171  17.700  2.6317 -1.2508  1.1040
  917TIP3   OH226945   4.945   5.587  17.018  0.2147 -0.6847 -0.2483
  917TIP3    H126946   4.956   5.674  17.058 -0.9818 -0.9327  0.6840
  917TIP3    H226947   4.998   5.529  17.073 -0.5224 -0.8426  0.3066
  918TIP3   OH226948   0.517   0.065  18.614 -0.2375  0.2021 -0.4174
  918TIP3    H126949   0.583  -0.003  18.625  0.6489  0.7085 -2.2537
  918TIP3    H226950   0.490   0.057  18.522 -1.3587  1.2361 -0.1991
  919TIP3   OH226951   4.920   2.946  17.807  0.6096  0.2932  0.1946
  919TIP3    H126952   4.846   2.933  17.748 -0.4183  3.5268  0.5414
  919TIP3    H226953   4.882   2.990  17.883  2.4318 -0.8000  1.8239
  920TIP3   OH226954   0.936   1.849  18.251  0.5936  0.0845 -0.1274
  920TIP3    H126955   1.015   1.824  18.299 -0.3336 -1.2278  0.7720
  920TIP3    H226956   0.946   1.809  18.165  1.6357  1.3103 -0.6166
  921TIP3   OH226957   4.139   0.220  18.694  0.2469 -0.2485 -0.1353
  921TIP3    H126958   4.048   0.208  18.720 -0.0875  0.3204 -0.9740
  921TIP3    H226959   4.184   0.142  18.725 -0.4722 -0.4064  0.5349
  922TIP3   OH226960   5.905   4.133  20.444  0.0932 -0.2328  0.0329
  922TIP3    H126961   5.970   4.193  20.407 -0.5860  0.4468 -0.0841
  922TIP3    H226962   5.863   4.183  20.514 -0.5764 -0.5183 -0.1591
  923TIP3   OH226963   5.202   0.086  17.207  0.0606  0.0125  0.6839
  923TIP3    H126964   5.241   0.074  17.294  0.4186 -0.8127  0.4153
  923TIP3    H226965   5.131   0.021  17.204  1.2567 -1.2812 -0.3443
  924TIP3   OH226966   6.067   4.589  19.094  0.0168 -0.3673 -0.4286
  924TIP3    H126967   6.093   4.664  19.148  0.0897 -0.6380 -0.0830
  924TIP3    H226968   6.034   4.525  19.157  0.6846 -0.9300 -0.6401
  925TIP3   OH226969   1.497   2.710  19.419 -0.2259 -0.1181 -0.2164
  925TIP3    H126970   1.509   2.662  19.337  1.3417  0.4045 -0.3189
  925TIP3    H226971   1.491   2.642  19.486 -0.7203 -0.5227 -0.6619
  926TIP3   OH226972   5.188   4.978  18.172  0.3589 -0.2982  0.4404
  926TIP3    H126973   5.150   4.922  18.240  2.3336 -1.1574  0.8980
  926TIP3    H226974   5.219   4.917  18.105 -0.6415  0.4865 -0.8006
  927TIP3   OH226975   4.009   2.197  17.932 -0.4112  0.0695  0.5665
  927TIP3    H126976   4.003   2.124  17.869 -1.8938 -0.1926  0.9760
  927TIP3    H226977   4.100   2.196  17.961 -0.5194 -2.0190  0.9947
  928TIP3   OH226978   1.188   1.450  20.039 -0.1177  0.3918 -0.5070
  928TIP3    H126979   1.273   1.434  20.080 -0.7900 -2.6717 -0.0592
  928TIP3    H226980   1.170   1.542  20.057  1.7587  0.3853  1.9891
  929TIP3   OH226981   6.031   5.219  19.997 -0.4498  0.1556 -0.6445
  929TIP3    H126982   6.068   5.300  20.032 -0.4616  0.3070 -0.9740
  929TIP3    H226983   6.102   5.180  19.946 -0.2113 -0.4202  0.1146
  930TIP3   OH226984   0.272   0.862  17.894 -0.1497 -0.3077 -0.0781
  930TIP3    H126985   0.335   0.925  17.928 -0.1004 -0.1041 -0.5403
  930TIP3    H226986   0.190   0.883  17.938  0.0483 -0.4344  0.3647
  931TIP3   OH226987   3.955   2.972  19.704  0.0408  0.1233  0.1906
  931TIP3    H126988   4.020   3.025  19.751  0.1614 -0.2502  0.4500
  931TIP3    H226989   3.878   3.028  19.699  0.2606  0.4305  0.2137
  932TIP3   OH226990   3.047   0.079  17.430 -0.0143  0.2460 -0.1551
  932TIP3    H126991   3.004   0.044  17.352  0.1512  0.1717 -0.2162
  932TIP3    H226992   3.119   0.133  17.396 -0.1506  0.4900 -0.0598
  933TIP3   OH226993   4.084   6.337  20.372 -0.2626  0.4052  0.9468
  933TIP3    H126994   4.027   6.371  20.440 -0.0821  0.6573  0.9757
  933TIP3    H226995   4.059   6.385  20.293  0.3301  0.9826  1.0974
  934TIP3   OH226996   2.109   4.844  20.088 -0.0319 -0.0858  0.3529
  934TIP3    H126997   2.021   4.871  20.063  0.5059  2.0013  0.5227
  934TIP3    H226998   2.144   4.801  20.010 -0.7365  0.2577 -0.1664
  935TIP3   OH226999   4.258   0.082  19.870  0.0930 -0.0081 -0.0502
  935TIP3    H127000   4.177   0.099  19.917  0.4121  1.6612 -0.0380
  935TIP3    H227001   4.317   0.046  19.936 -0.2763 -0.1444  0.2052
  936TIP3   OH227002   2.837   0.141  20.344  0.0280 -0.3811  0.0795
  936TIP3    H127003   2.796   0.227  20.334  0.7789 -0.0004  0.2056
  936TIP3    H227004   2.925   0.160  20.378  0.8491 -1.0740 -1.5509
  937TIP3   OH227005   2.651   2.132  18.433  0.2232 -0.3739 -0.5677
  937TIP3    H127006   2.704   2.186  18.374  1.8929 -0.4358  0.8136
  937TIP3    H227007   2.676   2.042  18.412 -0.6657 -0.5042 -1.1105
  938TIP3   OH227008   6.280   5.979  20.671  0.4131  0.3134 -0.1699
  938TIP3    H127009   6.354   6.034  20.699  0.5285  0.0460  0.0544
  938TIP3    H227010   6.255   5.931  20.749  0.7510 -0.4612 -0.5261
  939TIP3   OH227011   4.139   3.054  19.907 -0.6632  0.4648  0.3696
  939TIP3    H127012   4.087   2.975  19.919 -0.1694  0.1409  0.3947
  939TIP3    H227013   4.215   3.043  19.964  1.5796 -0.9702 -2.6284
  940TIP3   OH227014   3.584   5.704  19.061 -0.1900 -0.5474 -0.3735
  940TIP3    H127015   3.507   5.724  19.007 -2.1476 -0.1291  2.3509
  940TIP3    H227016   3.652   5.763  19.029 -0.5687 -1.7093 -3.6162
  941TIP3   OH227017   5.569   0.743  20.282 -0.3833 -0.0446  0.2255
  941TIP3    H127018   5.479   0.764  20.256  0.2326  0.3033 -1.7290
  941TIP3    H227019   5.576   0.648  20.267  0.0137  0.1794 -1.0483
  942TIP3   OH227020   3.068   3.001  17.676 -0.5543 -0.4488 -0.2442
  942TIP3    H127021   3.008   2.987  17.602  1.0482 -0.6346 -1.5658
  942TIP3    H227022   3.085   3.095  17.675 -1.7918 -0.1873  0.9478
  943TIP3   OH227023   4.221   5.597  20.436  0.2748  0.6940 -0.0096
  943TIP3    H127024   4.133   5.625  20.462 -0.6225 -0.9113 -1.1655
  943TIP3    H227025   4.279   5.648  20.493 -1.4137  0.7811  1.7719
  944TIP3   OH227026   0.655   0.354  19.124 -0.0037 -0.0083 -0.3212
  944TIP3    H127027   0.617   0.266  19.115 -1.1082  0.4353 -0.1139
  944TIP3    H227028   0.642   0.376  19.216 -1.0066  0.9360 -0.6812
  945TIP3   OH227029   1.139   1.919  20.350  0.3378  0.3167  0.1828
  945TIP3    H127030   1.114   1.980  20.280 -0.8996 -0.7918 -0.3894
  945TIP3    H227031   1.216   1.959  20.390  1.8992  0.3589 -2.6440
  946TIP3   OH227032   3.700   0.853  20.418  0.7486  0.1656  0.5860
  946TIP3    H127033   3.667   0.764  20.432 -0.5456  0.4623 -0.3728
  946TIP3    H227034   3.684   0.898  20.501 -2.1711  0.5284 -0.0741
  947TIP3   OH227035   4.408   1.894  20.256  0.1968  0.2764 -0.2435
  947TIP3    H127036   4.398   1.825  20.322  0.2524 -0.7260 -1.2425
  947TIP3    H227037   4.371   1.856  20.177 -0.2602  1.6222 -0.6948
  948TIP3   OH227038   0.831   4.777  18.931  0.2955 -0.8504  0.2044
  948TIP3    H127039   0.887   4.814  18.999  0.9062 -0.6655 -0.3826
  948TIP3    H227040   0.821   4.849  18.868  1.6772 -1.7063 -1.0688
  949TIP3   OH227041   5.132   5.479  19.379  0.0385  0.2589 -0.1678
  949TIP3    H127042   5.228   5.478  19.378  0.0634  1.2034  0.3647
  949TIP3    H227043   5.108   5.543  19.312 -0.2682 -0.8980 -1.2072
  950TIP3   OH227044   2.793   4.371  20.187  0.5752 -0.3140  0.5988
  950TIP3    H127045   2.816   4.460  20.161  0.3150 -0.8050 -1.4808
  950TIP3    H227046   2.802   4.371  20.282  0.2989  1.9992  0.6817
  951TIP3   OH227047   2.896   5.515  17.306  0.3525 -0.0453 -0.1693
  951TIP3    H127048   2.898   5.611  17.306  0.0574  0.0000  1.4665
  951TIP3    H227049   2.978   5.489  17.263 -0.2258  0.9021 -1.9143
  952TIP3   OH227050   3.301   3.955  17.760 -0.4283 -0.1916  0.2791
  952TIP3    H127051   3.251   3.956  17.679  1.2698 -0.2833 -0.8217
  952TIP3    H227052   3.299   3.864  17.789  0.7488 -0.6182 -0.8667
  953TIP3   OH227053   6.328   0.389  18.751  0.2787 -0.3221  0.1331
  953TIP3    H127054   6.398   0.355  18.806  1.0449  0.7348 -0.1431
  953TIP3    H227055   6.352   0.481  18.736  0.4126 -0.6902 -2.4056
  954TIP3   OH227056   5.746   0.960  20.110  0.4129 -0.3012 -0.4204
  954TIP3    H127057   5.836   0.983  20.085  0.1275  0.1744 -1.0229
  954TIP3    H227058   5.756   0.913  20.193  1.3372 -1.4895 -1.1698
  955TIP3   OH227059   1.425   6.372  20.060  0.0829 -0.2485  0.1180
  955TIP3    H127060   1.467   6.304  20.007 -0.9605 -0.3691 -0.5780
  955TIP3    H227061   1.498   6.426  20.091  0.6481  0.9200 -2.9468
  956TIP3   OH227062   3.478   5.841  20.621 -0.2712 -0.0293  0.0960
  956TIP3    H127063   3.486   5.777  20.550 -2.0850  1.1049 -1.2354
  956TIP3    H227064   3.493   5.926  20.579  0.5331  0.5593  1.4923
  957TIP3   OH227065   2.266   5.913  20.394 -0.1349 -0.4795  0.3505
  957TIP3    H127066   2.314   5.949  20.319 -1.1083  0.4916  0.1628
  957TIP3    H227067   2.317   5.837  20.422  1.0632  0.0593 -0.3311
  958TIP3   OH227068   4.689   1.224  16.812  0.4709 -0.1593  0.4897
  958TIP3    H127069   4.624   1.157  16.787  0.2431  0.1830  0.1427
  958TIP3    H227070   4.749   1.179  16.870  1.8527 -1.4024 -1.7696
  959TIP3   OH227071   2.311   5.736  20.068 -0.4422 -0.0503  0.1413
  959TIP3    H127072   2.354   5.820  20.051 -0.0333 -0.5000 -1.2307
  959TIP3    H227073   2.223   5.759  20.096  0.2152  0.8569  1.5237
  960TIP3   OH227074   1.513   4.113  18.221 -0.3591  0.1216  0.0819
  960TIP3    H127075   1.521   4.122  18.127 -2.2312  0.8803 -0.0315
  960TIP3    H227076   1.420   4.096  18.237  0.2209 -2.2304  1.6388
  961TIP3   OH227077   6.444   0.285  20.417  0.0941  0.3038  0.2596
  961TIP3    H127078   6.459   0.379  20.419  0.2281  0.2920 -0.0102
  961TIP3    H227079   6.530   0.248  20.395  0.3715  0.0210  1.7292
  962TIP3   OH227080   0.629   2.687  18.323  0.2332  0.2166  0.2373
  962TIP3    H127081   0.534   2.687  18.320  0.1835 -0.9467  1.1684
  962TIP3    H227082   0.650   2.689  18.417  1.0849 -1.5162  0.1142
  963TIP3   OH227083   2.992   6.296  17.652 -0.5507  0.4288 -0.0513
  963TIP3    H127084   3.047   6.241  17.708 -0.8230  0.9495  0.7500
  963TIP3    H227085   3.048   6.318  17.577  0.0267  0.2049  0.3065
  964TIP3   OH227086   5.393   3.849  20.822 -0.5309  0.1152  0.2042
  964TIP3    H127087   5.473   3.808  20.791 -0.6594  0.0596 -0.0587
  964TIP3    H227088   5.422   3.923  20.874 -0.2951 -0.3115  0.6920
  965TIP3   OH227089   3.451   4.028  18.180  0.4037 -0.0774 -0.6883
  965TIP3    H127090   3.471   4.062  18.093  1.0491  0.7207 -0.2318
  965TIP3    H227091   3.371   4.073  18.206 -0.2942 -0.9736 -1.2219
  966TIP3   OH227092   1.088   5.775  19.605  0.1090  0.4606 -0.3900
  966TIP3    H127093   1.177   5.781  19.638  0.3771  0.8235 -1.1545
  966TIP3    H227094   1.098   5.762  19.511 -0.6199  3.6610 -1.0462
  967TIP3   OH227095   4.304   2.814  17.870  0.2900  0.3422  0.2494
  967TIP3    H127096   4.246   2.874  17.822  0.1098  0.1589  0.2400
  967TIP3    H227097   4.332   2.865  17.946  2.2806  1.4273 -1.1251
  968TIP3   OH227098   0.539   5.897  18.063  0.5612  0.1279  0.8795
  968TIP3    H127099   0.506   5.927  17.979 -0.1120 -1.0413  0.7110
  968TIP3    H227100   0.466   5.908  18.124  1.2799  1.7181  1.5324
  969TIP3   OH227101   5.519   6.453  18.970 -0.3274  0.3520 -0.3409
  969TIP3    H127102   5.502   6.420  19.058 -0.4942  1.4097  0.0334
  969TIP3    H227103   5.453   6.410  18.915 -0.8266  0.4055  0.2077
  970TIP3   OH227104   0.701   5.989  19.545  0.5096 -0.0216  0.0120
  970TIP3    H127105   0.712   5.988  19.450  0.9816  0.3017  0.0614
  970TIP3    H227106   0.639   6.060  19.561 -0.6940 -0.9865 -0.1550
  971TIP3   OH227107   3.908   6.524  20.540 -0.0824 -0.8121  0.3000
  971TIP3    H127108   3.884   6.573  20.618 -0.4813 -2.8308  1.5115
  971TIP3    H227109   3.829   6.523  20.487 -0.5380 -1.4035  0.9753
  972TIP3   OH227110   0.418   4.598  17.688 -0.1444  0.2410 -0.2840
  972TIP3    H127111   0.331   4.636  17.689 -0.4145 -0.3397 -0.9041
  972TIP3    H227112   0.473   4.661  17.642 -0.7368 -0.4066 -1.9310
  973TIP3   OH227113   5.481   0.654  17.772 -0.2165  0.0571 -0.2258
  973TIP3    H127114   5.520   0.599  17.839 -0.5457 -0.7247 -0.6696
  973TIP3    H227115   5.526   0.629  17.691 -0.3015  0.5057 -0.4180
  974TIP3   OH227116   2.718   3.030  20.512  0.0547  0.4850 -0.2120
  974TIP3    H127117   2.696   2.953  20.564  1.6501  0.1771  0.0871
  974TIP3    H227118   2.812   3.021  20.496 -0.1592  1.2310 -2.0971
  975TIP3   OH227119   3.764   0.338  20.735  0.5887  0.5585 -0.0591
  975TIP3    H127120   3.669   0.346  20.741  0.6598  0.7718  0.8987
  975TIP3    H227121   3.781   0.322  20.642 -0.5033 -1.1145 -0.0205
  976TIP3   OH227122   4.626   2.929  18.292 -0.3562  0.0232 -0.1798
  976TIP3    H127123   4.678   2.940  18.213 -3.0982 -0.3694 -2.1910
  976TIP3    H227124   4.646   2.840  18.322  0.7946  0.2182 -0.3200
  977TIP3   OH227125   6.403   4.961  17.339 -0.4914 -0.2609  0.2502
  977TIP3    H127126   6.463   5.036  17.341  0.5319 -1.0763  1.2963
  977TIP3    H227127   6.460   4.885  17.350 -1.5919 -1.1460 -0.0681
  978TIP3   OH227128   6.228   4.659  17.947  0.4466 -0.0220  0.3940
  978TIP3    H127129   6.217   4.707  18.028 -0.1660 -0.0242  0.3129
  978TIP3    H227130   6.165   4.697  17.887 -0.0964 -0.9656  0.3464
  979TIP3   OH227131   6.695   3.877  20.484 -0.1987  0.4136  0.0703
  979TIP3    H127132   6.769   3.874  20.424  0.6236 -1.9807  1.0551
  979TIP3    H227133   6.729   3.923  20.561 -0.8525  2.3455 -0.7559
  980TIP3   OH227134   4.114   5.116  19.094  0.3527 -0.0274 -0.7291
  980TIP3    H127135   4.170   5.049  19.132  0.5167  0.6231  0.2178
  980TIP3    H227136   4.084   5.167  19.169 -2.7905 -1.2671 -0.9683
  981TIP3   OH227137   3.716   6.714  16.937  0.0424  0.3469 -0.6727
  981TIP3    H127138   3.712   6.805  16.968 -0.0122  0.5065 -1.1465
  981TIP3    H227139   3.661   6.713  16.859 -0.6639 -0.2922 -0.1868
  982TIP3   OH227140   2.646   5.775  18.672 -0.3790  0.4889  0.4334
  982TIP3    H127141   2.557   5.769  18.707 -0.7081 -0.9896 -0.5337
  982TIP3    H227142   2.656   5.695  18.619  0.4721  2.0042 -1.8671
  983TIP3   OH227143   2.273   3.194  20.542 -0.5264 -0.6434  0.1377
  983TIP3    H127144   2.357   3.228  20.572 -0.5894 -0.6049  0.2681
  983TIP3    H227145   2.245   3.256  20.474 -0.1730 -0.9734 -0.3185
  984TIP3   OH227146   4.983   2.082  19.253 -0.8908  0.1055 -0.2834
  984TIP3    H127147   4.936   2.129  19.322 -0.1887 -1.8891  1.6791
  984TIP3    H227148   5.076   2.098  19.271 -0.7045  0.2937 -1.3420
  985TIP3   OH227149   1.664   5.861  17.417 -0.1762  0.8851  0.0738
  985TIP3    H127150   1.582   5.814  17.431 -1.1726  2.2842 -0.7922
  985TIP3    H227151   1.721   5.831  17.488 -1.3970 -0.1696  0.6578
  986TIP3   OH227152   2.362   3.006  18.327  0.0546  0.4226 -0.3873
  986TIP3    H127153   2.372   2.990  18.421 -0.7319  0.2074 -0.3329
  986TIP3    H227154   2.334   3.097  18.321  0.6140  0.5943 -0.4511
  987TIP3   OH227155   0.514   5.160  20.384 -0.1413  0.4369 -0.4962
  987TIP3    H127156   0.447   5.141  20.318 -0.6357 -0.9457  0.3429
  987TIP3    H227157   0.510   5.085  20.444  0.4097  1.5458  1.0018
  988TIP3   OH227158   3.726   5.023  17.525 -0.2566  0.1725  0.3683
  988TIP3    H127159   3.684   4.942  17.552  0.6622 -0.5582 -0.3491
  988TIP3    H227160   3.727   5.077  17.605 -2.4421  0.2028  0.4238
  989TIP3   OH227161   0.670   2.766  19.929 -0.0171 -0.0139 -0.2025
  989TIP3    H127162   0.583   2.737  19.958  0.0730 -0.8867 -0.7556
  989TIP3    H227163   0.714   2.794  20.009 -1.5222  2.4991 -0.1264
  990TIP3   OH227164   3.541   6.155  19.680 -0.3435  0.4685  0.1058
  990TIP3    H127165   3.506   6.211  19.611 -0.9883 -0.1567 -0.0882
  990TIP3    H227166   3.523   6.066  19.651  0.8417  0.1407  0.3226
  991TIP3   OH227167   3.821   4.028  18.864 -0.0346  0.3645  0.2489
  991TIP3    H127168   3.878   3.953  18.882  0.0844  0.7402  1.5342
  991TIP3    H227169   3.761   4.031  18.939 -1.3195  0.3754 -0.7612
  992TIP3   OH227170   5.835   5.572  20.041 -0.0940  0.1011 -0.7302
  992TIP3    H127171   5.772   5.594  20.110 -0.8454  0.0155 -1.3723
  992TIP3    H227172   5.791   5.597  19.960  0.4511 -0.5415 -1.2351
  993TIP3   OH227173   6.167   2.970  18.875  1.1212 -0.6743 -0.2765
  993TIP3    H127174   6.237   3.002  18.818  0.5754 -1.6890 -1.5634
  993TIP3    H227175   6.087   3.005  18.836  0.8638  0.3518  1.0929
  994TIP3   OH227176   3.282   3.154  19.943  0.0167 -0.5491  0.0415
  994TIP3    H127177   3.203   3.148  19.996  0.1513 -1.7117  0.1152
  994TIP3    H227178   3.257   3.119  19.857  0.0701  0.4163 -0.3925
  995TIP3   OH227179   2.939   2.264  20.103 -0.1095  0.9412 -0.3071
  995TIP3    H127180   3.022   2.227  20.075  1.3357  3.1245  0.7653
  995TIP3    H227181   2.885   2.267  20.024  1.1891  0.3394 -1.2313
  996TIP3   OH227182   2.732   1.354  19.288  0.0113 -0.5273 -0.0248
  996TIP3    H127183   2.767   1.384  19.204  0.5289  0.6108  0.5777
  996TIP3    H227184   2.779   1.405  19.353 -2.2057  0.5038  0.8592
  997TIP3   OH227185   4.387   5.959  19.092 -0.5931  0.7326  0.3226
  997TIP3    H127186   4.370   6.048  19.062 -1.8999  1.0682  1.8958
  997TIP3    H227187   4.339   5.903  19.032  1.0035  0.9711 -1.2539
  998TIP3   OH227188   3.515   6.703  19.900 -0.2910  0.2568 -0.5028
  998TIP3    H127189   3.516   6.673  19.809  0.7005 -0.5482 -0.2518
  998TIP3    H227190   3.607   6.696  19.928 -0.7574 -0.6661  0.9127
  999TIP3   OH227191   3.711   4.987  21.104  0.1459  0.2568  0.3356
  999TIP3    H127192   3.658   4.949  21.176 -0.4611 -0.1058 -0.2871
  999TIP3    H227193   3.663   5.066  21.080 -1.6351 -1.3805 -1.9600
 1000TIP3   OH227194   3.862   2.254  18.132  0.1200 -0.4306  0.1783
 1000TIP3    H127195   3.942   2.254  18.185  1.0840 -0.6123 -1.2376
 1000TIP3    H227196   3.891   2.229  18.044 -1.4730 -0.3420 -0.4004
 1001TIP3   OH227197   4.436   4.883  18.094  0.4369 -0.2630  0.0031
 1001TIP3    H127198   4.503   4.831  18.137 -0.8510 -1.3777  0.7508
 1001TIP3    H227199   4.442   4.969  18.135  1.0527 -0.5070  0.4364
 1002TIP3   OH227200   3.870   6.006  17.285 -0.4877 -0.1721 -0.3701
 1002TIP3    H127201   3.900   5.971  17.369 -2.5554  0.8027  0.8459
 1002TIP3    H227202   3.850   5.928  17.233  1.9531 -0.8119 -0.4918
 1003TIP3   OH227203   3.247   4.335  20.314 -0.5061  0.7201  0.3269
 1003TIP3    H127204   3.289   4.253  20.341 -0.8881  0.6561  0.7305
 1003TIP3    H227205   3.182   4.353  20.381  0.7733  2.2982  1.2356
 1004TIP3   OH227206   2.151   5.150  19.349 -0.3985 -0.2454 -0.0389
 1004TIP3    H127207   2.085   5.115  19.409  0.4008 -2.2561 -0.2512
 1004TIP3    H227208   2.233   5.146  19.397 -0.3916  2.7423  0.4173
 1005TIP3   OH227209   4.399   6.233  19.019 -0.0967 -0.2433  0.5338
 1005TIP3    H127210   4.346   6.313  19.015  0.4276  0.2842  2.7956
 1005TIP3    H227211   4.421   6.223  19.112  0.2290 -2.7908  0.2633
 1006TIP3   OH227212   4.536   0.627  17.509  0.1375  0.3582 -0.5084
 1006TIP3    H127213   4.630   0.644  17.514  0.3572 -0.1382 -2.3944
 1006TIP3    H227214   4.500   0.705  17.468  0.0714 -0.3599 -1.8762
 1007TIP3   OH227215   3.214   3.619  19.149 -0.2831 -0.3010  0.6219
 1007TIP3    H127216   3.140   3.654  19.101 -0.8012 -2.0079  0.0939
 1007TIP3    H227217   3.213   3.664  19.233 -0.5152  1.3448 -0.2330
 1008TIP3   OH227218   1.104   0.068  19.396 -0.2566  0.9721 -0.2393
 1008TIP3    H127219   1.076  -0.001  19.455  3.0130 -1.2152 -0.9434
 1008TIP3    H227220   1.057   0.050  19.314 -1.5600  1.4011  0.3858
 1009TIP3   OH227221   0.663   1.488  18.482  0.2160 -0.1590 -0.0081
 1009TIP3    H127222   0.615   1.412  18.516  0.1563  0.6026  1.6727
 1009TIP3    H227223   0.675   1.468  18.389 -0.0303 -2.1069  0.3252
 1010TIP3   OH227224   5.567   1.487  20.087  0.3341 -0.4310 -0.3729
 1010TIP3    H127225   5.530   1.561  20.039 -0.4050 -1.4384 -1.4274
 1010TIP3    H227226   5.656   1.479  20.054  0.1611 -0.4850 -0.8334
 1011TIP3   OH227227   3.359   1.100  18.083 -0.4541 -0.4143  0.8471
 1011TIP3    H127228   3.273   1.139  18.101 -0.0736  0.0689  1.6874
 1011TIP3    H227229   3.350   1.008  18.107 -0.8168 -0.4302  0.6577
 1012TIP3   OH227230   4.482   3.575  18.982  0.3185  0.9900  0.4121
 1012TIP3    H127231   4.515   3.659  18.952 -1.1322  1.2043 -0.6987
 1012TIP3    H227232   4.560   3.519  18.987  1.0335  1.8267 -0.8057
 1013TIP3   OH227233   4.712   1.307  20.342 -0.0408 -0.0925 -0.4465
 1013TIP3    H127234   4.698   1.282  20.433 -0.8692  2.0492  0.0700
 1013TIP3    H227235   4.804   1.332  20.337  0.1472 -0.7398 -0.3640
 1014TIP3   OH227236   5.836   4.686  19.949  0.2288  0.1222  0.3699
 1014TIP3    H127237   5.814   4.778  19.938  1.8277  0.3084 -1.8546
 1014TIP3    H227238   5.762   4.639  19.911 -0.3356  0.4814  1.0075
 1015TIP3   OH227239   1.274   4.387  18.679  0.3050 -0.2918  0.0815
 1015TIP3    H127240   1.270   4.347  18.766  0.9438  0.2021  0.3446
 1015TIP3    H227241   1.317   4.322  18.625  0.7339 -0.2393  0.3534
 1016TIP3   OH227242   1.671   0.963  19.984  0.0944  0.0636  0.5957
 1016TIP3    H127243   1.696   0.989  19.895 -1.1048 -1.4218 -0.2278
 1016TIP3    H227244   1.609   0.891  19.971  1.9922 -2.1149  2.6611
 1017TIP3   OH227245   1.673   2.069  20.454 -0.0099 -0.0730  0.0534
 1017TIP3    H127246   1.768   2.078  20.465  0.1424 -3.2955  3.1490
 1017TIP3    H227247   1.663   2.005  20.383  0.0207  0.9009 -0.8608
 1018TIP3   OH227248   0.998   4.002  19.272 -0.1571 -0.0185 -0.0933
 1018TIP3    H127249   0.942   4.031  19.344  0.3493  0.8231 -0.0211
 1018TIP3    H227250   1.052   3.933  19.310  1.1047  1.3954  0.7610
 1019TIP3   OH227251   2.754   6.449  18.034 -0.0289  0.4092  0.3052
 1019TIP3    H127252   2.713   6.484  17.955  0.2987  0.3688  0.1177
 1019TIP3    H227253   2.730   6.511  18.103 -2.4111 -0.8307  0.7011
 1020TIP3   OH227254   5.162   6.032  17.996  0.2477  0.0182 -0.4291
 1020TIP3    H127255   5.246   5.996  18.026  0.0424  0.9137  1.3401
 1020TIP3    H227256   5.098   5.965  18.021  0.0451  0.8664  1.5188
 1021TIP3   OH227257   2.209   2.511  20.695 -0.7600 -0.0087 -0.2524
 1021TIP3    H127258   2.202   2.606  20.698  1.1664  0.1556  0.3477
 1021TIP3    H227259   2.233   2.492  20.604  0.3385  0.2336 -0.0297
 1022TIP3   OH227260   1.409   5.324  17.708 -0.2056 -0.1468  0.1452
 1022TIP3    H127261   1.478   5.318  17.643  0.8429  1.6214  1.0163
 1022TIP3    H227262   1.454   5.349  17.789 -1.8029  0.7403  0.8150
 1023TIP3   OH227263   2.662   5.361  19.791  0.4051  0.3355 -0.0487
 1023TIP3    H127264   2.571   5.345  19.764  0.2473  1.6393 -0.3956
 1023TIP3    H227265   2.654   5.409  19.874  0.7913  0.0566  0.1528
 1024TIP3   OH227266   3.086   5.492  20.328  0.1632  0.4653 -0.0209
 1024TIP3    H127267   3.123   5.404  20.329  1.1862  0.8372 -1.8758
 1024TIP3    H227268   2.993   5.480  20.309  0.0133 -0.2591  1.0705
 1025TIP3   OH227269   0.206   1.220  17.614 -0.2294 -0.3079  0.1870
 1025TIP3    H127270   0.240   1.253  17.531 -0.1347  1.0122  0.7252
 1025TIP3    H227271   0.278   1.230  17.675 -1.2940  1.9154  1.1917
 1026TIP3   OH227272   3.892   2.193  19.355 -0.6249 -0.4254 -0.0487
 1026TIP3    H127273   3.958   2.132  19.322 -0.9065 -1.1391  0.7034
 1026TIP3    H227274   3.913   2.276  19.311  2.0766 -0.0492  1.7169
 1027TIP3   OH227275   3.632   1.843  19.140  0.5634  0.3453 -0.0793
 1027TIP3    H127276   3.630   1.876  19.230 -0.2461 -0.2961  0.1471
 1027TIP3    H227277   3.609   1.919  19.086  0.6386  0.6305  0.2899
 1028TIP3   OH227278   0.185   4.441  19.838  0.0475  0.5013 -0.1661
 1028TIP3    H127279   0.099   4.412  19.809 -0.1404 -0.8170  1.5748
 1028TIP3    H227280   0.200   4.523  19.790 -1.6240  0.1327 -1.4023
 1029TIP3   OH227281   6.510   6.073  19.366  0.0188 -0.0906  0.7570
 1029TIP3    H127282   6.514   6.168  19.379  1.6869  0.0922 -0.6911
 1029TIP3    H227283   6.471   6.062  19.279 -0.0887 -0.7332  0.8823
 1030TIP3   OH227284   3.729   6.040  19.960 -0.2713 -0.4229 -0.0599
 1030TIP3    H127285   3.733   6.025  19.865 -0.2415 -0.8591  0.0094
 1030TIP3    H227286   3.800   5.987  19.996 -1.1401 -1.3566  0.3398
 1031TIP3   OH227287   3.423   5.089  19.689 -0.0823  0.4201 -0.2968
 1031TIP3    H127288   3.432   5.020  19.624 -1.3924 -0.3148  0.2784
 1031TIP3    H227289   3.432   5.044  19.773  1.1210  1.2858  0.0779
 1032TIP3   OH227290   3.748   1.898  17.521 -0.2040 -0.1888  0.0675
 1032TIP3    H127291   3.691   1.934  17.454 -0.8605 -0.5791  0.4037
 1032TIP3    H227292   3.835   1.930  17.499 -0.3931 -0.3915 -1.0189
 1033TIP3   OH227293   6.725   3.845  17.906 -0.2977 -0.2878 -0.2688
 1033TIP3    H127294   6.765   3.893  17.978 -0.5129 -0.6497  0.1031
 1033TIP3    H227295   6.794   3.784  17.877 -0.3768 -0.4996 -0.0215
 1034TIP3   OH227296   3.336   5.181  18.880 -0.2605  0.3836  0.2904
 1034TIP3    H127297   3.287   5.099  18.872 -1.4648  1.1353 -0.3043
 1034TIP3    H227298   3.381   5.191  18.796 -0.0551  0.3090  0.3893
 1035TIP3   OH227299   6.398   5.242  19.674  0.2059 -0.3854 -0.4539
 1035TIP3    H127300   6.324   5.199  19.717  1.3010 -1.3841  0.5061
 1035TIP3    H227301   6.400   5.203  19.587 -1.3022  0.7776 -1.0594
 1036TIP3   OH227302   4.316   1.259  18.854  0.3875  0.3302 -0.3651
 1036TIP3    H127303   4.370   1.188  18.819 -0.1546  0.1238 -0.8088
 1036TIP3    H227304   4.228   1.239  18.822  0.0668  0.7044  0.2752
 1037TIP3   OH227305   6.395   4.497  19.702 -0.8490 -0.4035  0.4739
 1037TIP3    H127306   6.321   4.481  19.761 -1.3527 -2.3161 -0.6064
 1037TIP3    H227307   6.354   4.512  19.616 -0.0200 -0.5836  0.0361
 1038TIP3   OH227308   4.007   2.077  21.057  0.2104 -0.2537  0.3918
 1038TIP3    H127309   4.041   2.125  21.133 -0.6578  0.4474  0.3509
 1038TIP3    H227310   4.085   2.053  21.007  0.6814  0.9859  0.4951
 1039TIP3   OH227311   1.448   0.162  19.588  0.1728 -0.2697 -0.2158
 1039TIP3    H127312   1.436   0.067  19.593  2.1545 -0.4773  2.1745
 1039TIP3    H227313   1.368   0.198  19.627  0.1741 -1.0157  0.4988
 1040TIP3   OH227314   4.751   5.722  18.301  0.6551  0.3911  0.1865
 1040TIP3    H127315   4.686   5.790  18.286 -0.6672 -0.6539  0.9639
 1040TIP3    H227316   4.769   5.686  18.214 -0.9959 -0.3457  0.1182
 1041TIP3   OH227317   1.420   5.959  20.185  0.3992 -0.5672 -0.0510
 1041TIP3    H127318   1.345   5.961  20.246  0.1565 -1.9917 -0.2767
 1041TIP3    H227319   1.382   5.982  20.100  0.2558 -1.0869 -0.1283
 1042TIP3   OH227320   0.136   3.624  17.817 -0.0771 -0.5293  0.1071
 1042TIP3    H127321   0.193   3.613  17.741 -1.6800 -2.7408 -0.8929
 1042TIP3    H227322   0.138   3.539  17.861 -1.1519 -0.0646  1.1157
 1043TIP3   OH227323   5.280   4.388  20.124  0.3584  0.4433  0.0782
 1043TIP3    H127324   5.209   4.447  20.100  1.1802  1.1807 -0.6231
 1043TIP3    H227325   5.300   4.410  20.215  1.3493  2.0325 -0.4745
 1044TIP3   OH227326   5.956   2.659  18.212  0.2218  0.0071 -0.0817
 1044TIP3    H127327   5.970   2.614  18.295  0.5960 -0.1240 -0.2118
 1044TIP3    H227328   5.956   2.752  18.234 -1.3229 -0.0509  0.3054
 1045TIP3   OH227329   1.738   6.304  17.790  0.3199  0.3158 -0.3655
 1045TIP3    H127330   1.771   6.357  17.717  0.2333  1.8193  0.6562
 1045TIP3    H227331   1.694   6.230  17.747 -0.8751  1.8198 -1.9110
 1046TIP3   OH227332   3.390   0.421  19.588  0.2037 -0.0773  0.1017
 1046TIP3    H127333   3.338   0.470  19.652 -0.3106  0.4242 -0.6942
 1046TIP3    H227334   3.446   0.365  19.642 -0.8191 -0.2883  0.9815
 1047TIP3   OH227335   2.045   2.928  17.671  0.3913 -0.2005  0.0323
 1047TIP3    H127336   2.088   2.873  17.737  0.0121 -0.4301  0.0888
 1047TIP3    H227337   2.010   2.866  17.607  0.2500 -0.0085 -0.0761
 1048TIP3   OH227338   0.922   4.063  19.520  0.1228  0.1755 -0.0168
 1048TIP3    H127339   0.972   4.068  19.602 -0.1762 -2.2321  0.3953
 1048TIP3    H227340   0.851   4.001  19.539 -0.2886 -0.0028 -1.9300
 1049TIP3   OH227341   2.191   6.183  19.337 -0.3038  0.3706 -0.0740
 1049TIP3    H127342   2.154   6.197  19.425  0.8596 -0.1661  0.5190
 1049TIP3    H227343   2.285   6.187  19.350 -0.0912 -0.7014 -1.1232
 1050TIP3   OH227344   5.779   4.527  19.257 -0.3199  0.0266 -1.3632
 1050TIP3    H127345   5.734   4.446  19.281 -0.0774  0.4467  0.6560
 1050TIP3    H227346   5.724   4.597  19.293 -0.2556  0.7721 -2.6238
 1051TIP3   OH227347   4.575   0.641  20.021 -0.3356  0.4822 -0.2698
 1051TIP3    H127348   4.623   0.717  19.990  1.3732 -0.5113 -0.1882
 1051TIP3    H227349   4.611   0.624  20.109 -1.8444  0.5312  0.3909
 1052TIP3   OH227350   4.869   5.586  17.558  0.6922 -0.2322  0.4135
 1052TIP3    H127351   4.896   5.568  17.648 -0.4272  1.2653  1.0873
 1052TIP3    H227352   4.773   5.592  17.563  0.5073 -1.2378 -1.1083
 1053TIP3   OH227353   1.838   1.022  17.130 -0.3229  0.3469  0.1237
 1053TIP3    H127354   1.856   1.097  17.074 -1.2213  0.9768  0.6574
 1053TIP3    H227355   1.865   0.946  17.078  0.3531  1.0154 -0.5202
 1054TIP3   OH227356   4.628   0.309  19.801 -0.2761 -0.1364 -0.0711
 1054TIP3    H127357   4.628   0.388  19.747 -0.2106  0.6201  1.0066
 1054TIP3    H227358   4.718   0.300  19.831 -0.2028 -0.8386 -0.4866
 1055TIP3   OH227359   5.591   0.331  18.847  0.1263 -0.1593 -0.2374
 1055TIP3    H127360   5.522   0.333  18.781  1.7480  0.7043 -2.0135
 1055TIP3    H227361   5.632   0.245  18.837 -0.4620 -0.5458  0.5899
 1056TIP3   OH227362   5.412   1.468  20.325 -0.3882 -0.6116 -0.2852
 1056TIP3    H127363   5.464   1.505  20.253 -0.2223  0.4422  0.3525
 1056TIP3    H227364   5.398   1.541  20.385 -0.3773 -1.5053  0.8491
 1057TIP3   OH227365   0.159   0.700  18.735 -0.1451 -0.1711 -0.2649
 1057TIP3    H127366   0.103   0.684  18.659  0.9818 -1.2043 -0.8956
 1057TIP3    H227367   0.204   0.617  18.750  3.1754  1.2885 -1.3855
 1058TIP3   OH227368   6.496   2.395  18.240  0.0499 -0.1566 -0.9834
 1058TIP3    H127369   6.506   2.311  18.195  0.6276 -2.3008  2.7269
 1058TIP3    H227370   6.548   2.385  18.320  0.0612  3.7624 -0.3301
 1059TIP3   OH227371   5.244   0.891  18.809 -0.6737 -0.6817  0.8313
 1059TIP3    H127372   5.274   0.810  18.769  0.0039 -1.1653  2.2519
 1059TIP3    H227373   5.324   0.932  18.843 -0.3843  2.3686 -2.7679
 1060TIP3   OH227374   6.430   1.157  18.226 -0.1277  0.4332 -0.0805
 1060TIP3    H127375   6.378   1.166  18.306  0.2390 -2.0005  0.5296
 1060TIP3    H227376   6.366   1.162  18.155 -0.4638  2.6151  0.3165
 1061TIP3   OH227377   2.658   1.318  18.699  0.1137  0.3541  0.3889
 1061TIP3    H127378   2.596   1.341  18.630  1.7772 -1.3025 -1.7972
 1061TIP3    H227379   2.624   1.236  18.735  0.1844  0.2825  0.2930
 1062TIP3   OH227380   3.076   6.492  18.857  0.1026  0.2138 -0.0632
 1062TIP3    H127381   3.035   6.556  18.800 -1.4874 -1.3820 -0.8198
 1062TIP3    H227382   3.006   6.463  18.916  0.4785 -1.5182 -0.3961
 1063TIP3   OH227383   2.783   1.085  20.014  0.0809  0.1327 -0.5442
 1063TIP3    H127384   2.742   1.107  19.931 -0.8541  1.1182  0.1507
 1063TIP3    H227385   2.727   1.126  20.080 -0.0617 -1.9028  0.6838
 1064TIP3   OH227386   6.122   3.129  19.655 -0.0682 -0.6080 -0.7884
 1064TIP3    H127387   6.191   3.187  19.685  0.9192 -0.3399 -3.3181
 1064TIP3    H227388   6.046   3.187  19.642 -0.6650 -0.8010  1.3767
 1065TIP3   OH227389   4.478   0.840  17.784 -0.3708 -0.0183 -0.6228
 1065TIP3    H127390   4.563   0.802  17.807 -1.0543 -0.7168  0.9055
 1065TIP3    H227391   4.487   0.933  17.803 -0.5153 -0.3856  1.4316
 1066TIP3   OH227392   4.724   3.986  19.430 -0.2319 -0.2840 -0.3095
 1066TIP3    H127393   4.801   3.929  19.433  0.7131  0.8991 -1.0868
 1066TIP3    H227394   4.682   3.973  19.515  1.0393 -0.6836  0.2955
 1067TIP3   OH227395   4.013   2.622  20.480  0.0061 -0.5126 -0.7805
 1067TIP3    H127396   4.082   2.562  20.453  0.6547  0.0965 -0.5072
 1067TIP3    H227397   3.946   2.566  20.520  0.1004 -1.1613 -1.5164
 1068TIP3   OH227398   6.645   4.408  18.901 -0.6831  0.5469  0.5863
 1068TIP3    H127399   6.664   4.499  18.880 -1.0330  0.1931 -1.5212
 1068TIP3    H227400   6.725   4.375  18.940  0.3001  1.1435 -0.8563
 1069TIP3   OH227401   6.171   2.355  17.763  0.1533  0.3898  0.1560
 1069TIP3    H127402   6.219   2.332  17.683 -1.9720 -0.5773 -0.9197
 1069TIP3    H227403   6.163   2.272  17.810  0.2341  0.7074  0.7368
 1070TIP3   OH227404   5.623   5.456  17.461 -0.1763 -0.7098  0.0032
 1070TIP3    H127405   5.571   5.429  17.386  0.7938  0.2036 -1.0327
 1070TIP3    H227406   5.603   5.549  17.473  1.6582 -0.1568 -0.8451
 1071TIP3   OH227407   2.187   4.453  20.658  0.0528  0.0295 -0.2732
 1071TIP3    H127408   2.160   4.364  20.683 -1.2063  1.0014  2.1489
 1071TIP3    H227409   2.132   4.473  20.582  0.3999 -1.2641 -0.9025
 1072TIP3   OH227410   0.037   5.122  18.941  0.3888  0.2752  0.0082
 1072TIP3    H127411  -0.014   5.090  18.867  0.9362  0.5590 -0.5023
 1072TIP3    H227412   0.067   5.209  18.914  0.2923  0.5369  0.7129
 1073TIP3   OH227413   3.779   4.574  18.519  0.3551 -0.0885 -0.0078
 1073TIP3    H127414   3.867   4.541  18.537  0.0894 -0.9316 -0.1754
 1073TIP3    H227415   3.755   4.624  18.596  1.2260  0.6787 -0.2260
 1074TIP3   OH227416   3.067   6.099  18.291 -0.4493 -0.7299  0.1055
 1074TIP3    H127417   3.076   6.050  18.373 -0.7989  1.5598  1.6089
 1074TIP3    H227418   3.073   6.191  18.317  0.4607  0.0836 -2.6045
 1075TIP3   OH227419   4.749   3.066  19.686  0.2750 -0.5181 -0.4810
 1075TIP3    H127420   4.786   3.053  19.599 -0.5267 -0.3628 -0.8546
 1075TIP3    H227421   4.665   3.108  19.670 -0.7791 -2.2494  0.2554
 1076TIP3   OH227422   4.944   6.428  19.494 -0.0618  0.6510  0.2563
 1076TIP3    H127423   4.925   6.347  19.542  1.7361  0.9352  1.5598
 1076TIP3    H227424   4.865   6.481  19.504 -0.5491 -0.1890  1.0300
 1077TIP3   OH227425   0.846   2.209  20.843 -0.0608  0.4738  0.0213
 1077TIP3    H127426   0.818   2.139  20.784 -1.0171 -0.4796  1.5246
 1077TIP3    H227427   0.786   2.281  20.827 -0.2508  0.2556 -0.2470
 1078TIP3   OH227428   5.953   4.217  18.916 -0.2006  0.2754  0.1429
 1078TIP3    H127429   6.032   4.267  18.938 -0.5964 -0.0193  2.5899
 1078TIP3    H227430   5.934   4.240  18.826  2.4928  0.6149 -0.4395
 1079TIP3   OH227431   4.718   5.657  20.688 -0.2834 -0.7200 -0.5274
 1079TIP3    H127432   4.723   5.742  20.645 -2.8766 -0.1509  0.1100
 1079TIP3    H227433   4.797   5.653  20.743 -0.4010  1.5752 -0.0831
 1080TIP3   OH227434   4.412   0.642  17.191 -0.3699 -0.2171 -0.6793
 1080TIP3    H127435   4.495   0.627  17.144 -0.7745 -1.7692 -0.9445
 1080TIP3    H227436   4.437   0.698  17.265  0.8747 -0.4721 -0.8713
 1081TIP3   OH227437   1.131   0.837  18.694  0.8553  0.5493  0.3506
 1081TIP3    H127438   1.062   0.897  18.724  0.1620  0.7465 -1.5109
 1081TIP3    H227439   1.119   0.759  18.748 -0.7000  0.6722  0.2394
 1082TIP3   OH227440   6.697   1.714  20.555 -0.2148  0.0715  0.4145
 1082TIP3    H127441   6.604   1.715  20.578 -0.5698  1.2416 -0.8915
 1082TIP3    H227442   6.709   1.794  20.503  0.9495 -1.3216 -1.5896
 1083TIP3   OH227443   0.624   5.934  19.902 -0.5944 -0.1099 -0.1127
 1083TIP3    H127444   0.671   5.956  19.982 -0.3242 -0.8582 -0.0500
 1083TIP3    H227445   0.694   5.925  19.836 -0.7367 -0.2849 -0.2406
 1084TIP3   OH227446   1.691   2.971  20.601 -0.2811  0.2323 -0.2266
 1084TIP3    H127447   1.716   2.878  20.605 -1.2294  0.0030  0.9157
 1084TIP3    H227448   1.758   3.011  20.546  0.5482 -1.0030 -0.1657
 1085TIP3   OH227449   0.767   5.196  17.465  0.2424 -0.0833 -0.2709
 1085TIP3    H127450   0.816   5.115  17.450  1.4904  0.8220 -1.1935
 1085TIP3    H227451   0.692   5.168  17.517  0.4222 -1.9098 -0.9111
 1086TIP3   OH227452   4.285   0.456  18.874  0.7530  0.0806  0.1698
 1086TIP3    H127453   4.311   0.527  18.933  0.0614  1.5926 -1.2620
 1086TIP3    H227454   4.191   0.447  18.887  0.5832  0.4606 -0.6856
 1087TIP3   OH227455   0.494   5.876  20.669  0.4083  0.1155  0.6707
 1087TIP3    H127456   0.456   5.811  20.610  1.6659 -0.5752  0.5713
 1087TIP3    H227457   0.427   5.891  20.735 -0.3480 -0.4130  0.0373
 1088TIP3   OH227458   2.238   2.789  19.328 -0.2849 -0.0739 -0.0942
 1088TIP3    H127459   2.169   2.722  19.322  0.0649 -0.3531 -1.0291
 1088TIP3    H227460   2.281   2.770  19.412  0.3729 -1.5854 -0.7340
 1089TIP3   OH227461   6.348   3.443  20.006  0.0652 -0.2007  0.0678
 1089TIP3    H127462   6.340   3.436  20.101 -0.7529 -1.1224 -0.0512
 1089TIP3    H227463   6.317   3.531  19.985  2.9173  1.1129  0.8890
 1090TIP3   OH227464   6.600   5.462  19.000 -0.1434 -0.2508 -0.4344
 1090TIP3    H127465   6.657   5.530  19.038 -1.2327  1.5494 -1.8480
 1090TIP3    H227466   6.527   5.455  19.062 -0.2203  0.1647 -0.4732
 1091TIP3   OH227467   4.962   1.423  20.321  0.0884  0.5384  0.4497
 1091TIP3    H127468   4.992   1.485  20.388  1.0287  1.1327 -0.4794
 1091TIP3    H227469   5.043   1.385  20.286 -0.4074 -0.0955 -0.0356
 1092TIP3   OH227470   2.950   3.171  18.387 -0.5089  0.3662 -0.0534
 1092TIP3    H127471   3.024   3.226  18.411 -1.0209  1.3863 -0.7394
 1092TIP3    H227472   2.936   3.115  18.463 -0.1091  1.3311  0.7452
 1093TIP3   OH227473   3.811   4.719  20.925 -0.4377  0.2793 -0.0812
 1093TIP3    H127474   3.728   4.676  20.904 -0.6161  0.3263  0.4990
 1093TIP3    H227475   3.807   4.733  21.020 -0.0089  0.7911 -0.1357
 1094TIP3   OH227476   3.379   5.746  17.999 -0.2952 -0.2150 -0.0287
 1094TIP3    H127477   3.332   5.828  17.984  0.6028  0.2689 -0.2533
 1094TIP3    H227478   3.310   5.679  18.004 -1.4531  0.9985  4.0127
 1095TIP3   OH227479   5.820   1.522  19.181 -0.9666  0.0634 -0.2638
 1095TIP3    H127480   5.897   1.523  19.239 -0.1832  2.5408 -1.2349
 1095TIP3    H227481   5.852   1.484  19.099 -1.0040  0.2741 -0.3768
 1096TIP3   OH227482   0.028   4.080  19.411 -0.0477 -0.4234 -0.4942
 1096TIP3    H127483   0.086   4.156  19.416 -1.2817  0.8046 -2.8467
 1096TIP3    H227484  -0.016   4.078  19.496 -1.0056  2.4369 -0.7838
 1097TIP3   OH227485   0.128   1.012  19.104 -0.6404 -0.3360  0.6153
 1097TIP3    H127486   0.139   1.097  19.145 -0.9197  0.9130 -1.6983
 1097TIP3    H227487   0.051   1.023  19.048  0.0011 -1.7308 -0.6065
 1098TIP3   OH227488   3.243   4.346  16.867  0.1138 -0.1964 -0.2373
 1098TIP3    H127489   3.289   4.371  16.787 -1.2791 -0.1667 -1.0608
 1098TIP3    H227490   3.213   4.428  16.905 -3.1262 -0.3225 -2.1316
 1099TIP3   OH227491   2.210   3.416  17.392  0.0861 -0.0794 -0.5181
 1099TIP3    H127492   2.279   3.454  17.339  1.5528 -0.6825  0.8649
 1099TIP3    H227493   2.157   3.491  17.421 -0.1305  0.3440 -1.9446
 1100TIP3   OH227494   3.102   4.615  18.186  0.1881 -0.6818  0.2275
 1100TIP3    H127495   3.070   4.590  18.273  1.2016 -1.7159  0.3273
 1100TIP3    H227496   3.025   4.609  18.129 -0.0092 -2.3139  0.6149
 1101TIP3   OH227497   3.816   4.984  17.066 -0.1296 -0.0281  0.6398
 1101TIP3    H127498   3.728   4.951  17.085  0.4384 -1.5465  0.7860
 1101TIP3    H227499   3.873   4.908  17.079  1.2418  1.0024  0.8350
 1102TIP3   OH227500   2.778   2.608  19.614 -0.0765 -0.5401 -0.1256
 1102TIP3    H127501   2.705   2.645  19.564  1.4219  0.3144 -1.8036
 1102TIP3    H227502   2.753   2.517  19.629 -1.3012 -0.3811 -1.0346
 1103TIP3   OH227503   2.669   4.044  18.668  0.3962  0.1513 -0.3131
 1103TIP3    H127504   2.746   4.100  18.677  1.5274 -1.5543  1.2409
 1103TIP3    H227505   2.651   4.042  18.574  2.5001  0.2795 -0.7556
 1104TIP3   OH227506   1.596   2.352  20.809  0.6196  0.0634  0.1917
 1104TIP3    H127507   1.683   2.390  20.821 -0.2757  1.4659  3.8229
 1104TIP3    H227508   1.538   2.428  20.808 -0.5926 -0.7418 -3.6024
 1105TIP3   OH227509   3.878   6.537  18.170  0.2458 -0.0339  1.0122
 1105TIP3    H127510   3.953   6.570  18.120  0.4806  0.4249  1.6370
 1105TIP3    H227511   3.820   6.613  18.179 -1.9677 -1.1392 -2.2933
 1106TIP3   OH227512   1.449   5.696  19.290  0.3884 -0.0324  0.6912
 1106TIP3    H127513   1.420   5.751  19.217 -1.0391 -0.5747  0.8102
 1106TIP3    H227514   1.542   5.714  19.298  1.3899 -2.1827 -3.3192
 1107TIP3   OH227515   6.060   6.154  16.990  0.2376 -0.3462  0.4996
 1107TIP3    H127516   6.139   6.161  17.045  0.3497 -0.8745  0.4048
 1107TIP3    H227517   6.082   6.202  16.911  0.6087 -0.8151  0.3134
 1108TIP3   OH227518   1.813   6.043  17.911 -0.4778  0.6540 -0.2962
 1108TIP3    H127519   1.805   6.125  17.863  0.0941 -0.3999 -2.2769
 1108TIP3    H227520   1.836   6.070  18.000 -2.3935  2.6909 -0.3517
 1109TIP3   OH227521   1.391   0.840  18.734  0.4310  0.8355  0.0457
 1109TIP3    H127522   1.300   0.828  18.706 -0.0149 -0.2401  1.7941
 1109TIP3    H227523   1.440   0.776  18.682  0.1440  1.1394 -0.6122
 1110TIP3   OH227524   3.675   4.349  17.809  0.3207  0.4394 -0.1091
 1110TIP3    H127525   3.696   4.363  17.717  1.0824  2.2026  0.3024
 1110TIP3    H227526   3.757   4.365  17.855 -0.4025  1.0805  0.9970
 1111TIP3   OH227527   2.648   1.886  19.354 -0.1276  0.2818  0.8301
 1111TIP3    H127528   2.554   1.895  19.339 -0.1930  0.9525  1.5884
 1111TIP3    H227529   2.687   1.956  19.301 -0.2652  1.7864  2.6400
 1112TIP3   OH227530   4.470   6.155  19.809  0.0913  0.1280 -0.1278
 1112TIP3    H127531   4.417   6.214  19.864 -0.7703  0.2041 -1.0223
 1112TIP3    H227532   4.477   6.075  19.861 -0.1168  0.4466  0.4048
 1113TIP3   OH227533   0.801   0.944  20.345 -1.1476  0.0615 -0.4344
 1113TIP3    H127534   0.833   1.022  20.301 -0.2049  0.0761  0.2389
 1113TIP3    H227535   0.749   0.898  20.279 -1.3516  1.0283 -0.9629
 1114TIP3   OH227536   1.215   0.367  19.210 -0.2769  0.3353 -0.3605
 1114TIP3    H127537   1.179   0.378  19.298  0.1687  0.1569 -0.1524
 1114TIP3    H227538   1.139   0.368  19.153 -0.4481  2.0694 -0.1423
 1115TIP3   OH227539   5.424   4.560  20.824  0.3771  0.2555  0.3799
 1115TIP3    H127540   5.368   4.483  20.814 -0.4959  0.4756  2.7892
 1115TIP3    H227541   5.368   4.633  20.797  0.6004  0.2130 -0.2109
 1116TIP3   OH227542   0.101   1.099  18.679 -0.5774  0.5271  0.2836
 1116TIP3    H127543   0.107   1.038  18.606  2.3401  0.6758  0.2775
 1116TIP3    H227544   0.192   1.109  18.709 -1.4195  2.1359  2.5414
 1117TIP3   OH227545   1.740   5.145  19.059  0.1908  0.0481  0.4561
 1117TIP3    H127546   1.786   5.063  19.073 -1.3998 -0.5894  2.4933
 1117TIP3    H227547   1.648   5.121  19.055 -0.1814  1.5293 -1.1417
 1118TIP3   OH227548   1.737   3.720  18.430  0.1024 -0.1144  0.1909
 1118TIP3    H127549   1.686   3.800  18.425  0.9228  0.4637  0.7692
 1118TIP3    H227550   1.828   3.750  18.436  0.3062 -1.0000  2.3207
 1119TIP3   OH227551   1.984   5.598  18.391 -0.3779  0.1967  0.2639
 1119TIP3    H127552   1.892   5.576  18.378 -0.5576  0.2574  1.3248
 1119TIP3    H227553   1.982   5.681  18.439  0.2348  0.2840  0.1464
 1120TIP3   OH227554   6.683   1.975  20.079  0.2848  0.0020  0.6802
 1120TIP3    H127555   6.662   1.970  19.986  1.6841  1.0471  0.2779
 1120TIP3    H227556   6.766   2.022  20.082  0.4592 -0.3695  2.4425
 1121TIP3   OH227557   1.832   1.830  18.553 -1.2250  0.1945 -0.0862
 1121TIP3    H127558   1.905   1.792  18.504  0.2939  1.1494  1.3461
 1121TIP3    H227559   1.781   1.754  18.582 -0.1278 -0.5654 -0.0974
 1122TIP3   OH227560   3.385   4.238  17.395  0.3917 -0.2032  0.1708
 1122TIP3    H127561   3.396   4.332  17.381 -0.2880  0.0008  0.9041
 1122TIP3    H227562   3.309   4.214  17.342  1.1200 -0.5460 -0.7562
 1123TIP3   OH227563   2.176   4.510  20.287 -0.7291 -0.5199 -0.1652
 1123TIP3    H127564   2.239   4.578  20.310 -0.9918 -0.5238  0.5900
 1123TIP3    H227565   2.228   4.445  20.240 -0.4913  0.2301 -0.9772
 1124TIP3   OH227566   2.476   4.821  16.761  0.3471 -0.5077  0.1378
 1124TIP3    H127567   2.418   4.822  16.685 -4.0087 -0.4685  3.1031
 1124TIP3    H227568   2.519   4.907  16.759  0.1837 -0.4298 -2.0899
 1125TIP3   OH227569   4.915   4.367  19.412  0.1428  0.6866 -0.4720
 1125TIP3    H127570   5.010   4.358  19.413  0.3859  2.6751 -1.3049
 1125TIP3    H227571   4.889   4.344  19.323 -0.4199 -1.6524  0.2322
 1126TIP3   OH227572   6.122   1.430  18.318 -0.5600 -0.1894  0.5854
 1126TIP3    H127573   6.146   1.351  18.366 -0.1593 -0.4628 -0.0403
 1126TIP3    H227574   6.199   1.450  18.265 -0.9977  0.0885  0.0430
 1127TIP3   OH227575   2.906   2.721  19.058 -0.5489  0.2012 -0.4534
 1127TIP3    H127576   2.817   2.750  19.039 -0.0577  1.0707 -1.4892
 1127TIP3    H227577   2.894   2.636  19.102 -1.8989  0.6748  0.1515
 1128TIP3   OH227578   0.900   5.191  18.170 -0.0373 -0.0997 -0.0080
 1128TIP3    H127579   0.990   5.178  18.201  0.9893  0.7503 -2.3828
 1128TIP3    H227580   0.855   5.230  18.245  2.0089  0.9223  0.7844
 1129TIP3   OH227581   6.291   5.746  19.436  0.3508  0.4598  0.0037
 1129TIP3    H127582   6.219   5.773  19.379  0.5105 -0.0911 -0.4666
 1129TIP3    H227583   6.311   5.656  19.408  0.2433  0.0751  1.1120
 1130TIP3   OH227584   4.521   0.538  19.360 -0.2448  0.5406 -0.4075
 1130TIP3    H127585   4.561   0.588  19.431  0.4121  0.9390 -1.0417
 1130TIP3    H227586   4.574   0.560  19.283 -0.1256 -0.9044 -0.7585
 1131TIP3   OH227587   0.453   4.110  18.947  1.0298  0.1122 -0.0222
 1131TIP3    H127588   0.448   4.017  18.924 -1.4278 -0.1471  1.2751
 1131TIP3    H227589   0.464   4.111  19.042  0.4460  1.1329  0.0502
 1132TIP3   OH227590   4.321   5.381  18.993  0.0696  0.0930  0.2017
 1132TIP3    H127591   4.333   5.296  19.035  3.2400 -0.0625 -0.7673
 1132TIP3    H227592   4.266   5.362  18.917 -2.0482 -0.3903  1.7498
 1133TIP3   OH227593   5.175   1.994  18.236  0.1701 -0.4674  1.1197
 1133TIP3    H127594   5.125   1.915  18.254  1.1921 -1.5451 -0.5172
 1133TIP3    H227595   5.110   2.062  18.223 -0.7506 -1.2159  1.7036
 1134TIP3   OH227596   4.082   6.360  18.500 -0.6688 -0.2986  0.2041
 1134TIP3    H127597   4.090   6.328  18.410  1.0418 -2.3261  0.9869
 1134TIP3    H227598   4.130   6.443  18.499  0.6506 -1.0354 -0.4528
 1135TIP3   OH227599   4.230   2.125  17.682  0.3882 -0.7930  0.5765
 1135TIP3    H127600   4.239   2.107  17.775  0.0914 -0.5600  0.6525
 1135TIP3    H227601   4.212   2.219  17.677 -2.5198 -1.2751  0.4916
 1136TIP3   OH227602   6.075   5.327  17.963  0.4499  0.1892  0.2676
 1136TIP3    H127603   6.075   5.399  18.027  0.8477  1.2176 -0.8400
 1136TIP3    H227604   6.050   5.369  17.880  0.5092 -0.9933 -0.3749
 1137TIP3   OH227605   6.015   1.393  17.632 -0.1609  0.7413 -0.3139
 1137TIP3    H127606   6.000   1.306  17.669  2.6511  1.0103  1.8313
 1137TIP3    H227607   5.927   1.428  17.617 -1.3852 -1.8640  0.2247
 1138TIP3   OH227608   3.879   1.302  19.961 -0.6346  0.3451  0.3301
 1138TIP3    H127609   3.956   1.337  20.006 -0.5048  0.5183 -0.0223
 1138TIP3    H227610   3.881   1.343  19.875 -1.8064  1.3141  0.7328
 1139TIP3   OH227611   1.230   0.577  20.018 -0.2357  0.0874 -0.1925
 1139TIP3    H127612   1.234   0.519  20.093 -1.3530 -0.3258 -0.4458
 1139TIP3    H227613   1.167   0.537  19.958  3.1452 -1.5467 -3.0367
 1140TIP3   OH227614   5.156   3.115  19.081  0.1258 -0.0800 -0.3807
 1140TIP3    H127615   5.163   3.057  19.004  0.5558  0.7415 -0.9810
 1140TIP3    H227616   5.191   3.199  19.050 -0.1489  0.3962  0.5824
 1141TIP3   OH227617   3.208   3.381  19.422  0.6134 -0.1691 -0.3530
 1141TIP3    H127618   3.210   3.319  19.349 -1.5289 -0.3514 -0.3286
 1141TIP3    H227619   3.153   3.453  19.391  1.9237  1.0953  0.1264
 1142TIP3   OH227620   4.662   5.059  19.785 -0.7935  0.2124  0.7768
 1142TIP3    H127621   4.613   5.023  19.711  0.4219  0.0657  0.0096
 1142TIP3    H227622   4.694   5.144  19.753 -0.8269  0.4535  1.3787
 1143TIP3   OH227623   3.143   5.226  17.506  0.3755 -0.1157 -0.0563
 1143TIP3    H127624   3.114   5.215  17.415 -0.0080  0.0232  0.0456
 1143TIP3    H227625   3.148   5.136  17.539  1.9063 -0.2644 -0.6271
 1144TIP3   OH227626   5.171   2.698  18.469  0.4472 -0.2734 -0.2888
 1144TIP3    H127627   5.171   2.609  18.506 -0.9448 -1.4291 -2.8718
 1144TIP3    H227628   5.243   2.697  18.405 -0.0165  0.2376 -0.8207
 1145TIP3   OH227629   5.386   0.057  19.910 -0.0812  0.2072 -0.0095
 1145TIP3    H127630   5.478   0.080  19.903  0.0297 -0.6997 -2.3170
 1145TIP3    H227631   5.340   0.127  19.863 -0.3386 -0.5881 -0.9607
 1146TIP3   OH227632   3.942   1.550  19.824  0.0527 -0.4102 -0.6194
 1146TIP3    H127633   3.849   1.567  19.808 -0.4851 -1.6024  0.9414
 1146TIP3    H227634   3.983   1.636  19.819 -1.0668  0.0948 -1.6971
 1147TIP3   OH227635   6.108   6.483  19.132 -0.1423 -0.0891  0.8417
 1147TIP3    H127636   6.047   6.424  19.176 -0.7080 -0.4865 -0.4460
 1147TIP3    H227637   6.063   6.567  19.129 -0.6313 -0.3715 -0.0691
 1148TIP3   OH227638   3.559   6.065  17.563  0.3817  0.5741 -0.1447
 1148TIP3    H127639   3.466   6.066  17.541  0.0841 -0.4008  0.9601
 1148TIP3    H227640   3.562   6.085  17.657  1.3590  1.4476 -0.3458
 1149TIP3   OH227641   6.069   6.424  16.924 -0.7618 -0.3571 -0.0851
 1149TIP3    H127642   6.026   6.504  16.894  0.1525  0.0000 -0.4997
 1149TIP3    H227643   6.114   6.449  17.004 -2.3030 -1.0399  1.0410
 1150TIP3   OH227644   4.866   1.495  19.429  0.0039  0.0055 -0.9029
 1150TIP3    H127645   4.838   1.559  19.495  1.6194  0.8791 -1.0167
 1150TIP3    H227646   4.809   1.513  19.354 -0.3362  0.5271 -0.5340
 1151TIP3   OH227647   5.965   0.993  19.182  0.1563  0.4534 -0.2640
 1151TIP3    H127648   5.924   1.076  19.158 -1.6594  0.8121  3.3905
 1151TIP3    H227649   5.906   0.926  19.147  0.1426  0.7779 -0.8689
 1152TIP3   OH227650   2.898   0.512  20.766 -0.3593  0.3172 -0.7287
 1152TIP3    H127651   2.867   0.439  20.713  0.2007  1.1737 -2.2969
 1152TIP3    H227652   2.991   0.519  20.746 -0.5644  1.9629 -1.2851
 1153TIP3   OH227653   3.463   6.141  17.815  0.2977  0.0101  0.2505
 1153TIP3    H127654   3.370   6.115  17.818  0.0548  0.6631 -1.0155
 1153TIP3    H227655   3.461   6.236  17.831  0.8054 -0.0619  0.7501
 1154TIP3   OH227656   1.501   2.904  19.047 -0.4561 -0.0654 -0.2042
 1154TIP3    H127657   1.412   2.886  19.078 -1.3339  0.6258 -2.1341
 1154TIP3    H227658   1.519   2.834  18.984  0.0354  0.2636 -0.4342
 1155TIP3   OH227659   4.761   1.183  19.736  0.0744  0.7130 -0.3814
 1155TIP3    H127660   4.824   1.129  19.783 -0.8057  0.7654  0.9016
 1155TIP3    H227661   4.806   1.207  19.655  0.7166 -1.4558 -0.7444
 1156TIP3   OH227662   1.993   4.456  19.453 -0.1327  0.0744 -0.8429
 1156TIP3    H127663   2.061   4.414  19.401  0.5909  1.5753 -1.1511
 1156TIP3    H227664   1.996   4.409  19.537  2.4333  1.0968 -0.2462
 1157TIP3   OH227665   4.094   4.276  18.052  0.2938  0.1397 -0.3749
 1157TIP3    H127666   4.102   4.235  18.138 -0.8301 -0.8727 -0.7236
 1157TIP3    H227667   4.140   4.217  17.993  2.8702  1.8452 -0.2514
 1158TIP3   OH227668   1.147   6.271  20.441 -0.8775  0.2607  0.7821
 1158TIP3    H127669   1.199   6.193  20.424 -1.8428 -0.9854  3.1632
 1158TIP3    H227670   1.185   6.309  20.520 -0.4254  2.2622 -0.3324
 1159TIP3   OH227671   1.658   4.629  19.400  0.0046 -0.0606 -0.1707
 1159TIP3    H127672   1.659   4.608  19.307 -0.5298  0.6023 -0.3347
 1159TIP3    H227673   1.576   4.591  19.432 -0.3047  0.5782 -0.1888
 1160TIP3   OH227674   4.844   6.343  20.368  0.1254  0.0271 -0.3394
 1160TIP3    H127675   4.766   6.357  20.314  0.0833  0.0468 -0.2737
 1160TIP3    H227676   4.858   6.249  20.368  0.7386  0.1111 -1.2327
 1161TIP3   OH227677   1.337   6.195  17.624  0.4745 -0.1663  0.0500
 1161TIP3    H127678   1.307   6.115  17.668 -2.2403 -0.1039 -1.4717
 1161TIP3    H227679   1.372   6.164  17.541  0.4314  0.1304 -0.0808
 1162TIP3   OH227680   4.790   3.737  20.466 -0.5464  0.0881 -0.4212
 1162TIP3    H127681   4.727   3.722  20.397 -0.0441 -3.6349 -0.2812
 1162TIP3    H227682   4.786   3.658  20.520  1.9548  1.0738  1.4245
 1163TIP3   OH227683   0.148   3.429  20.331  0.0217  0.2387  0.4624
 1163TIP3    H127684   0.230   3.397  20.369 -0.1904 -0.4440  0.3543
 1163TIP3    H227685   0.175   3.471  20.249  0.1994 -0.5565  0.1037
 1164TIP3   OH227686   0.471   4.354  18.387 -0.5081 -0.4542 -0.1243
 1164TIP3    H127687   0.376   4.357  18.401 -0.3260  0.6016  1.0542
 1164TIP3    H227688   0.507   4.406  18.458  0.7945  1.4327 -2.0510
 1165TIP3   OH227689   2.487   5.370  19.046  0.1042  0.2294  0.3211
 1165TIP3    H127690   2.515   5.412  19.127 -0.6967  1.3722  0.0414
 1165TIP3    H227691   2.429   5.299  19.074  1.4091 -0.6698  0.8018
 1166TIP3   OH227692   3.940   2.420  20.193 -0.0455 -0.3241 -0.1214
 1166TIP3    H127693   3.948   2.452  20.103 -1.7284  0.1478 -0.1483
 1166TIP3    H227694   3.853   2.450  20.221  0.7410  0.2059  1.9369
 1167TIP3   OH227695   3.213   6.298  19.642 -0.1102 -0.0244  0.5502
 1167TIP3    H127696   3.157   6.224  19.668  1.4410 -1.4447  0.0407
 1167TIP3    H227697   3.264   6.264  19.568  0.0323  1.8717 -0.2726
 1168TIP3   OH227698   4.579   5.085  20.838 -0.0844  0.4021  0.3433
 1168TIP3    H127699   4.502   5.134  20.808  0.9313  1.5852 -0.4449
 1168TIP3    H227700   4.571   5.000  20.796 -1.3668  0.2189  0.9206
 1169TIP3   OH227701   4.845   3.753  19.849  0.1514 -0.4811 -0.3159
 1169TIP3    H127702   4.940   3.748  19.859  0.0718 -0.0134  0.9516
 1169TIP3    H227703   4.830   3.739  19.756  1.4360 -0.8804 -0.4915
 1170TIP3   OH227704   5.244   5.726  19.002  0.0084 -0.2470 -0.4690
 1170TIP3    H127705   5.338   5.719  18.987  0.7127  0.0685  2.9324
 1170TIP3    H227706   5.218   5.806  18.957  2.2203  1.7053  1.4329
 1171TIP3   OH227707   1.663   1.720  17.788  0.2735  0.5747 -0.3659
 1171TIP3    H127708   1.697   1.771  17.714 -0.5935 -1.3753 -2.2159
 1171TIP3    H227709   1.570   1.742  17.792  0.2604  0.4626 -0.0368
 1172TIP3   OH227710   3.083   5.787  19.723  0.0117 -0.5336  0.2656
 1172TIP3    H127711   3.145   5.716  19.742  0.7215  0.1506  0.5527
 1172TIP3    H227712   2.997   5.747  19.735  0.3196 -1.9828 -1.7955
 1173TIP3   OH227713   0.500   2.930  18.202  0.4160  0.0880  0.4529
 1173TIP3    H127714   0.559   2.866  18.161  0.7962  1.2220 -0.8427
 1173TIP3    H227715   0.470   2.887  18.282  2.0146 -1.0204  0.5026
 1174TIP3   OH227716   4.869   2.990  20.418  0.5353 -0.3700  0.6927
 1174TIP3    H127717   4.839   2.906  20.452  0.0352 -0.6913 -0.4943
 1174TIP3    H227718   4.954   2.972  20.379 -1.8098 -1.8230 -4.7702
 1175TIP3   OH227719   5.754   5.845  17.997 -0.1712  0.2122  0.2167
 1175TIP3    H127720   5.842   5.876  18.017  0.2495 -2.1312  2.5035
 1175TIP3    H227721   5.709   5.922  17.962  2.7185  1.4903 -0.9908
 1176TIP3   OH227722   3.413   3.326  18.417  0.6764 -0.5511 -0.3151
 1176TIP3    H127723   3.318   3.328  18.432  1.0102 -0.8042  2.2650
 1176TIP3    H227724   3.424   3.262  18.346 -0.9618 -2.4911  1.0410
 1177TIP3   OH227725   1.245   3.440  17.813 -0.1821 -0.2549 -0.4359
 1177TIP3    H127726   1.151   3.426  17.820 -0.5019 -0.1632 -3.2127
 1177TIP3    H227727   1.253   3.534  17.795  0.4429 -0.2527 -0.1480
 1178TIP3   OH227728   0.858   5.923  19.744 -0.0290  0.5914 -0.1496
 1178TIP3    H127729   0.812   5.952  19.665  0.7587  0.2794 -0.7492
 1178TIP3    H227730   0.924   5.861  19.711 -0.5545 -0.5678  0.9088
 1179TIP3   OH227731   3.466   1.412  17.977 -0.3614 -0.1608 -0.1810
 1179TIP3    H127732   3.458   1.484  18.040 -1.7350 -0.9674  0.6121
 1179TIP3    H227733   3.376   1.394  17.950  0.0014 -1.3700 -0.6141
 1180TIP3   OH227734   1.114   6.667  18.405  0.1113  0.0261  0.5498
 1180TIP3    H127735   1.027   6.696  18.377 -0.0562  0.8564  1.8502
 1180TIP3    H227736   1.100   6.579  18.441  0.4695 -1.4458 -2.5708
 1181TIP3   OH227737   6.177   2.987  18.430  0.1680 -0.0464  0.4964
 1181TIP3    H127738   6.207   2.971  18.340 -0.2435  1.2449  0.1000
 1181TIP3    H227739   6.247   3.039  18.469 -0.3879  0.7993  0.3854
 1182TIP3   OH227740   0.278   3.288  19.545 -0.3529 -0.3945 -0.2550
 1182TIP3    H127741   0.363   3.273  19.504 -0.9459 -0.4068 -1.5264
 1182TIP3    H227742   0.273   3.383  19.557  0.3867 -0.5130  1.0634
 1183TIP3   OH227743   2.486   0.891  20.083 -0.3477 -0.4249 -0.2420
 1183TIP3    H127744   2.433   0.938  20.018  1.3066  0.2238 -1.1630
 1183TIP3    H227745   2.554   0.848  20.033  1.2012  0.3794  1.0813
 1184TIP3   OH227746   3.710   2.513  19.117  0.2832 -0.2775 -0.1761
 1184TIP3    H127747   3.673   2.443  19.172  1.6316 -0.1790  0.8966
 1184TIP3    H227748   3.783   2.471  19.072  1.6867  0.6113  1.1683
 1185TIP3   OH227749   4.543   3.554  19.915 -0.3461  0.0234  0.0918
 1185TIP3    H127750   4.631   3.527  19.889 -0.0200  0.8613  0.3164
 1185TIP3    H227751   4.533   3.519  20.003  0.6547  1.8612  0.9843
 1186TIP3   OH227752   4.315   5.826  18.518  0.1354  0.0913  0.2860
 1186TIP3    H127753   4.258   5.758  18.482 -1.4140  1.5734 -0.2117
 1186TIP3    H227754   4.260   5.905  18.519  1.6559  1.1941  1.4404
 1187TIP3   OH227755   2.976   2.707  19.974  0.3744 -0.3762 -0.2322
 1187TIP3    H127756   2.906   2.749  19.923  0.1135 -1.7824 -1.1118
 1187TIP3    H227757   2.930   2.652  20.037  0.7007  0.0614  0.3932
 1188TIP3   OH227758   3.889   3.404  18.853  0.3727  0.1772  0.3469
 1188TIP3    H127759   3.916   3.469  18.788 -1.5673 -0.1551 -0.8876
 1188TIP3    H227760   3.932   3.323  18.827  1.5697  0.5765  0.9881
 1189TIP3   OH227761   2.795   3.167  18.157  0.2543  0.2862 -0.3750
 1189TIP3    H127762   2.859   3.164  18.227  0.9043 -1.0224 -0.9865
 1189TIP3    H227763   2.833   3.226  18.092  1.3317 -1.1658 -1.1373
 1190TIP3   OH227764   5.153   1.109  20.090  0.4378 -0.4058 -0.2195
 1190TIP3    H127765   5.219   1.044  20.116  0.2993 -0.3164  0.3909
 1190TIP3    H227766   5.196   1.194  20.105  0.7829 -0.3476 -1.4585
 1191TIP3   OH227767   1.782   4.692  19.615 -0.0534 -0.3415 -0.3922
 1191TIP3    H127768   1.756   4.672  19.525  0.3878  1.3785 -0.9518
 1191TIP3    H227769   1.718   4.757  19.644 -0.3249 -1.0490  0.6336
 1192TIP3   OH227770   6.698   5.325  17.973  0.5720 -0.3300 -0.7134
 1192TIP3    H127771   6.708   5.238  18.012  0.5858  0.0680  0.2024
 1192TIP3    H227772   6.620   5.318  17.919  0.6318 -0.9416 -0.7312
 1193TIP3   OH227773   1.341   1.001  17.753  0.4558  0.2677  0.2947
 1193TIP3    H127774   1.298   1.033  17.674 -0.6322  0.1765  0.8445
 1193TIP3    H227775   1.327   0.907  17.752  2.6826 -0.1385 -0.7225
 1194TIP3   OH227776   3.906   4.745  19.638  0.1400  0.3536  0.4552
 1194TIP3    H127777   3.917   4.652  19.619  0.9785  0.4490  0.4270
 1194TIP3    H227778   3.814   4.754  19.663  0.1582 -0.5573  0.8875
 1195TIP3   OH227779   2.280   0.136  19.625 -0.4222  0.1841  0.0916
 1195TIP3    H127780   2.205   0.153  19.683 -0.0823 -0.1378  0.6375
 1195TIP3    H227781   2.291   0.041  19.628 -0.0573  0.2218 -0.0690
 1196TIP3   OH227782   3.845   6.427  19.170 -0.3712 -0.1054  0.2842
 1196TIP3    H127783   3.780   6.497  19.171 -1.1608 -0.8205 -0.1135
 1196TIP3    H227784   3.813   6.364  19.235 -0.1208 -0.4982  0.0331
 1197TIP3   OH227785   6.470   6.659  18.311 -0.3313 -0.6588  0.6572
 1197TIP3    H127786   6.543   6.673  18.250 -0.6894 -0.6683  0.2212
 1197TIP3    H227787   6.512   6.632  18.392  0.1899 -0.0033  0.6129
 1198TIP3   OH227788   2.434   1.514  18.922 -0.2904  0.4028  0.1308
 1198TIP3    H127789   2.383   1.444  18.881 -1.7874  1.8655 -0.6304
 1198TIP3    H227790   2.427   1.496  19.016 -0.3076 -0.6924 -0.0701
 1199TIP3   OH227791   3.125   5.111  18.565 -0.0222  0.0518 -0.0702
 1199TIP3    H127792   3.152   5.071  18.648  0.7801  0.5151 -0.0944
 1199TIP3    H227793   3.036   5.142  18.582  0.4204  0.8782  0.9146
 1200TIP3   OH227794   4.777   1.857  18.804 -0.1589  0.6538 -0.3691
 1200TIP3    H127795   4.872   1.863  18.794  0.1593 -0.6168  1.3837
 1200TIP3    H227796   4.753   1.774  18.762 -0.5204  1.0018 -0.8658
 1201TIP3   OH227797   1.319   6.655  19.608  0.0629 -0.4134  0.0761
 1201TIP3    H127798   1.301   6.567  19.574  0.3426 -1.0053  1.3718
 1201TIP3    H227799   1.233   6.688  19.635  0.2856 -1.5755  2.4471
 1202TIP3   OH227800   5.261   2.091  20.090 -0.5273  0.9506 -0.3380
 1202TIP3    H127801   5.227   2.035  20.159 -0.7371 -1.2217 -2.0606
 1202TIP3    H227802   5.318   2.153  20.135 -1.0539 -0.0269  1.8069
 1203TIP3   OH227803   0.285   4.074  18.524  0.3150 -0.7358 -0.1257
 1203TIP3    H127804   0.260   4.000  18.579  0.2988 -0.6470 -0.0108
 1203TIP3    H227805   0.368   4.048  18.484  1.1355 -0.1975  1.1315
 1204TIP3   OH227806   3.342   2.814  18.084  1.0114 -0.3209 -0.0096
 1204TIP3    H127807   3.341   2.725  18.050 -1.1460 -0.8927  1.3439
 1204TIP3    H227808   3.253   2.828  18.117  1.3350  2.2780 -0.0026
 1205TIP3   OH227809   4.995   1.316  20.596  0.2121  0.0575 -0.2501
 1205TIP3    H127810   4.921   1.257  20.610  0.8863 -0.5349  1.1217
 1205TIP3    H227811   5.027   1.295  20.509 -0.9274 -0.0113 -0.6650
 1206TIP3   OH227812   4.359   4.942  20.202 -0.0966 -0.3391  0.0409
 1206TIP3    H127813   4.368   4.848  20.185  0.2916 -0.4976  1.0472
 1206TIP3    H227814   4.400   4.984  20.127  1.1003 -0.9964  0.3117
 1207TIP3   OH227815   1.251   1.736  18.983 -0.4096  0.8141 -0.1568
 1207TIP3    H127816   1.189   1.663  18.983 -1.3679  1.5564 -2.0793
 1207TIP3    H227817   1.325   1.706  19.036 -1.2431 -1.1189 -0.0354
 1208TIP3   OH227818   1.070   4.085  17.824 -0.3567 -0.3416 -0.2625
 1208TIP3    H127819   1.144   4.086  17.764  1.0597  2.1341  1.3666
 1208TIP3    H227820   1.048   4.177  17.838 -1.4913 -0.8680  1.9603
 1209TIP3   OH227821   4.173   2.703  18.634 -0.0861  0.4562  0.2284
 1209TIP3    H127822   4.180   2.674  18.543  0.3958  0.6045  0.2198
 1209TIP3    H227823   4.251   2.667  18.677 -0.1568  0.6422  0.5147
 1210TIP3   OH227824   3.901   6.320  20.021  0.4591 -0.6747 -0.3337
 1210TIP3    H127825   3.895   6.309  19.926  1.6871  0.6751 -0.6031
 1210TIP3    H227826   3.954   6.245  20.049 -1.3711 -2.0790 -0.4233
 1211TIP3   OH227827   4.396   4.453  18.095 -0.5295  0.3101  0.1527
 1211TIP3    H127828   4.412   4.358  18.091 -1.7303  0.0981 -0.0616
 1211TIP3    H227829   4.329   4.462  18.163 -1.9236  0.7798 -1.2307
 1212TIP3   OH227830   5.491   1.635  18.292  0.2909  0.1939 -0.6027
 1212TIP3    H127831   5.571   1.668  18.251  0.9471 -0.7831 -0.1434
 1212TIP3    H227832   5.468   1.558  18.240  1.4715 -1.4347  1.1072
 1213TIP3   OH227833   1.382   2.294  19.787 -0.1242  0.6269  0.2247
 1213TIP3    H127834   1.452   2.248  19.834  0.9149  0.3699 -1.4977
 1213TIP3    H227835   1.396   2.386  19.808  1.7296  0.7468 -1.2549
 1214TIP3   OH227836   2.424   1.941  20.604 -0.2986  0.3943 -0.0585
 1214TIP3    H127837   2.489   1.989  20.553  0.1995  0.6379  0.7904
 1214TIP3    H227838   2.374   2.009  20.650 -1.1869  0.2127 -0.7220
 1215TIP3   OH227839   1.521   3.099  19.760 -0.0425  0.1240 -0.5639
 1215TIP3    H127840   1.495   3.026  19.704  1.2520  0.1512 -1.2332
 1215TIP3    H227841   1.439   3.145  19.779 -0.6145 -0.3874 -1.7240
 1216TIP3   OH227842   0.877   4.658  18.511 -0.5547 -0.2227  0.3382
 1216TIP3    H127843   0.796   4.705  18.534  0.3401  0.9769  1.1903
 1216TIP3    H227844   0.938   4.682  18.581 -0.1325 -2.9707  1.0154
 1217TIP3   OH227845   6.513   1.137  20.675 -0.4919 -0.4390 -0.4060
 1217TIP3    H127846   6.515   1.175  20.586 -1.1154 -0.0038 -0.2405
 1217TIP3    H227847   6.605   1.133  20.701 -0.4223  1.6786 -0.1570
 1218TIP3   OH227848   3.471   5.624  19.295  0.1252 -0.2754  0.2353
 1218TIP3    H127849   3.494   5.532  19.290 -0.8162 -0.5908  1.3141
 1218TIP3    H227850   3.501   5.661  19.212  1.3201 -1.3547  0.1493
 1219TIP3   OH227851   6.606   5.848  18.488  0.0028  0.4453 -0.0819
 1219TIP3    H127852   6.668   5.776  18.488  0.0119  0.4122  1.4010
 1219TIP3    H227853   6.657   5.924  18.461 -0.2036 -0.1992 -2.5163
 1220TIP3   OH227854   3.481   5.500  20.599 -0.3109 -0.6085  0.3966
 1220TIP3    H127855   3.389   5.526  20.597  0.0243  0.5500 -0.8731
 1220TIP3    H227856   3.506   5.506  20.692 -1.2534 -0.0125  0.6207
 1221TIP3   OH227857   2.319   0.770  18.760 -0.1806 -0.0280  0.3341
 1221TIP3    H127858   2.325   0.785  18.665 -0.4409 -1.6670  0.0285
 1221TIP3    H227859   2.263   0.841  18.792  0.6420  1.0665 -0.5894
 1222TIP3   OH227860   1.876   4.228  17.002 -0.6817 -0.3783  0.5813
 1222TIP3    H127861   1.839   4.286  17.069 -0.1919 -1.4557  1.8179
 1222TIP3    H227862   1.827   4.250  16.923 -0.1237  2.1378  0.8345
 1223TIP3   OH227863   5.878   5.489  18.733 -0.1221 -0.2944 -0.1415
 1223TIP3    H127864   5.907   5.399  18.722  1.7373  0.2068  0.3407
 1223TIP3    H227865   5.940   5.527  18.795 -1.1394  1.1999  0.0186
 1224TIP3   OH227866   5.526   3.842  17.883 -0.8635  0.6019  0.0851
 1224TIP3    H127867   5.509   3.932  17.854  0.2352 -0.2400 -3.8267
 1224TIP3    H227868   5.480   3.788  17.819 -0.6360 -1.6559  1.7156
 1225TIP3   OH227869   6.036   3.547  20.371  0.3112 -0.0311 -0.3258
 1225TIP3    H127870   6.100   3.480  20.396  2.7664  1.7142 -1.4055
 1225TIP3    H227871   6.090   3.621  20.342 -2.2522  2.0529 -0.1379
 1226TIP3   OH227872   3.594   1.133  17.387 -0.0450 -0.0871 -0.1299
 1226TIP3    H127873   3.524   1.197  17.381 -1.7744 -2.0397 -2.2728
 1226TIP3    H227874   3.632   1.131  17.299  1.2910 -0.6221  0.4368
 1227TIP3   OH227875   2.179   0.944  17.202 -0.3641  0.2405 -0.1187
 1227TIP3    H127876   2.260   0.901  17.231  0.0006 -1.1383 -2.8795
 1227TIP3    H227877   2.109   0.888  17.236 -0.0898  0.2678  0.5080
 1228TIP3   OH227878   4.434   3.828  17.910  0.0863  0.0211  0.3666
 1228TIP3    H127879   4.385   3.825  17.828  1.8003  0.0910 -0.6980
 1228TIP3    H227880   4.523   3.805  17.886  1.0585  1.9340  1.8813
 1229TIP3   OH227881   2.635   0.338  18.555 -0.5025  0.1517  0.1201
 1229TIP3    H127882   2.605   0.248  18.543 -1.8645  0.5437  0.3195
 1229TIP3    H227883   2.664   0.342  18.646 -1.6410  0.1996  0.5062
 1230TIP3   OH227884   2.573   5.613  20.942  0.2536 -0.2456  0.5739
 1230TIP3    H127885   2.555   5.618  21.036 -1.0715  1.6601  0.2637
 1230TIP3    H227886   2.523   5.538  20.912 -2.5259  1.3960  0.7948
 1231TIP3   OH227887   5.561   2.027  17.794 -0.6537 -0.3247 -0.1676
 1231TIP3    H127888   5.536   2.015  17.703 -1.6226 -0.4967  0.1090
 1231TIP3    H227889   5.488   1.989  17.844 -1.4286  2.0899  0.6950
 1232TIP3   OH227890   0.796   6.218  17.990  0.3876  0.3454  0.4617
 1232TIP3    H127891   0.853   6.294  17.977  1.5928 -0.5063  0.6088
 1232TIP3    H227892   0.781   6.184  17.902 -0.5938  1.0391  0.3421
 1233TIP3   OH227893   2.093   1.076  19.421 -0.0246  0.3709 -0.2269
 1233TIP3    H127894   2.059   1.143  19.362 -0.5322  0.9329  0.6615
 1233TIP3    H227895   2.186   1.096  19.429 -0.2262  1.1590  0.2476
 1234TIP3   OH227896   0.460   5.535  19.232 -0.5656 -0.4377  0.3014
 1234TIP3    H127897   0.420   5.535  19.145 -0.1117 -0.2585  0.0871
 1234TIP3    H227898   0.387   5.519  19.292 -1.0107  0.1723 -0.0605
 1235TIP3   OH227899   0.828   4.236  18.582  1.0254 -0.1483  0.1675
 1235TIP3    H127900   0.757   4.191  18.629  1.3473 -0.9428 -0.0825
 1235TIP3    H227901   0.908   4.197  18.616  1.2393 -1.6376 -1.8579
 1236TIP3   OH227902   5.356   2.097  18.054  0.3389  0.8414  0.2189
 1236TIP3    H127903   5.427   2.086  18.117 -0.6779 -0.0620  1.2297
 1236TIP3    H227904   5.279   2.059  18.096 -0.0986 -1.0672 -2.0756
 1237TIP3   OH227905   5.777   1.819  19.152 -0.3928 -0.2528  0.2111
 1237TIP3    H127906   5.823   1.735  19.144 -0.2987 -0.1347 -0.5424
 1237TIP3    H227907   5.847   1.883  19.161 -0.3940 -0.0704 -0.9542
 1238TIP3   OH227908   5.317   2.058  19.794  0.3834  0.4035 -0.5247
 1238TIP3    H127909   5.292   2.061  19.887  1.2840  1.6162 -0.2940
 1238TIP3    H227910   5.399   2.008  19.794  0.4755  0.5550 -0.6382
 1239TIP3   OH227911   5.522   3.524  19.273 -0.2426  0.0685 -0.1211
 1239TIP3    H127912   5.474   3.569  19.204  0.5832  0.9942 -0.1106
 1239TIP3    H227913   5.611   3.559  19.268 -0.2972  0.6132  1.8010
 1240TIP3   OH227914   6.541   4.361  19.484 -0.3274  0.1508 -0.1373
 1240TIP3    H127915   6.468   4.325  19.433  0.6256 -0.0837 -1.3840
 1240TIP3    H227916   6.513   4.351  19.575 -1.4540 -0.7968 -0.5500
 1241TIP3   OH227917   6.618   6.250  18.670 -0.2674 -0.1197  0.3398
 1241TIP3    H127918   6.554   6.320  18.659 -0.8728 -0.5010  1.3061
 1241TIP3    H227919   6.684   6.287  18.728  0.0738  0.0709 -0.1697
 1242TIP3   OH227920   3.233   4.527  19.795  0.4307  0.2230  0.2452
 1242TIP3    H127921   3.197   4.616  19.795  0.7361  0.3759 -1.6085
 1242TIP3    H227922   3.190   4.483  19.722  1.3629 -0.7028  0.2291
 1243TIP3   OH227923   1.760   0.943  18.618  0.5463  0.3462  0.0801
 1243TIP3    H127924   1.696   0.985  18.675  0.7164  0.8745 -0.1055
 1243TIP3    H227925   1.719   0.943  18.532 -0.1121 -1.3258  0.3637
 1244TIP3   OH227926   2.099   5.397  18.930 -0.6296 -0.6553 -0.4933
 1244TIP3    H127927   2.012   5.432  18.914 -0.4984  0.1521  0.4512
 1244TIP3    H227928   2.092   5.303  18.910 -1.3119 -0.3355 -1.8544
 1245TIP3   OH227929   6.022   3.630  18.466 -0.1835  0.1349  0.0630
 1245TIP3    H127930   6.018   3.695  18.396  0.4568  0.7030  0.5348
 1245TIP3    H227931   6.076   3.560  18.429 -3.2154 -1.5496 -1.5223
 1246TIP3   OH227932   0.393   0.526  20.550  0.0169  0.0421 -0.2529
 1246TIP3    H127933   0.319   0.586  20.559 -0.6041 -0.8275  0.5957
 1246TIP3    H227934   0.405   0.518  20.455 -1.5782 -0.4994 -0.4495
 1247TIP3   OH227935   6.399   0.420  19.090  0.2191  0.3755 -0.0910
 1247TIP3    H127936   6.421   0.352  19.026  2.0788  2.9684 -2.4510
 1247TIP3    H227937   6.481   0.466  19.106 -0.1160 -0.1236  4.4101
 1248TIP3   OH227938   4.290   6.466  19.361  0.0208  0.0378 -0.1778
 1248TIP3    H127939   4.234   6.543  19.371  0.2816  0.1455  0.5564
 1248TIP3    H227940   4.313   6.465  19.268 -1.0629  0.0746 -0.4619
 1249TIP3   OH227941   2.220   4.743  17.874  0.5419  0.2284  0.0448
 1249TIP3    H127942   2.313   4.748  17.899  0.7161  0.4794 -0.6297
 1249TIP3    H227943   2.173   4.778  17.949  0.9329 -0.7404  0.7642
 1250TIP3   OH227944   4.626   4.731  20.433  0.6006 -0.4030 -0.3186
 1250TIP3    H127945   4.587   4.660  20.382 -1.6113  0.5973 -0.1339
 1250TIP3    H227946   4.588   4.811  20.396  2.6158  0.6883 -0.1743
 1251TIP3   OH227947   6.015   6.098  20.034 -0.1736 -0.0191 -0.5043
 1251TIP3    H127948   5.936   6.060  19.995 -0.3241 -0.9827  0.7007
 1251TIP3    H227949   6.044   6.034  20.098  0.7923  0.9629  0.0769
 1252TIP3   OH227950   1.281   3.961  18.249  0.2927 -0.2903  0.3498
 1252TIP3    H127951   1.266   3.914  18.166 -0.5215  0.9225 -0.2206
 1252TIP3    H227952   1.199   3.951  18.297  1.1037 -1.8508  1.4994
 1253TIP3   OH227953   3.459   0.077  18.556  0.0638  0.1867  0.0931
 1253TIP3    H127954   3.375   0.123  18.558 -0.1560 -0.1974 -0.0756
 1253TIP3    H227955   3.447   0.003  18.616  1.2111  1.6603  2.2906
 1254TIP3   OH227956   4.637   3.122  20.320  0.1604 -0.2599 -0.5321
 1254TIP3    H127957   4.555   3.132  20.370 -0.1332 -2.1483 -0.5273
 1254TIP3    H227958   4.692   3.068  20.377  0.9754  0.0647 -1.0077
 1255TIP3   OH227959   0.723   5.336  19.552 -0.0773  0.3652  0.2952
 1255TIP3    H127960   0.735   5.414  19.500 -0.3002  0.7767  0.8453
 1255TIP3    H227961   0.798   5.280  19.532  0.5223  1.0801  0.5343
 1256TIP3   OH227962   5.794   0.089  20.355 -0.1207 -0.5987 -0.3280
 1256TIP3    H127963   5.854   0.015  20.368  0.4947  0.3792  3.8039
 1256TIP3    H227964   5.708   0.055  20.376  0.0587 -0.3866  0.8217
 1257TIP3   OH227965   2.563   0.772  20.711  0.2480  0.1214  0.3218
 1257TIP3    H127966   2.586   0.684  20.742  0.7671  0.3744  0.6556
 1257TIP3    H227967   2.468   0.767  20.695  0.6950 -1.4268 -2.6330
 1258TIP3   OH227968   0.989   3.588  20.555 -0.2394  0.3813 -0.3333
 1258TIP3    H127969   0.982   3.501  20.515 -0.7754 -0.1772  0.9278
 1258TIP3    H227970   0.898   3.611  20.576 -0.0937  1.2278 -0.6054
 1259TIP3   OH227971   1.589   2.206  19.957  0.2358  0.3737 -0.1389
 1259TIP3    H127972   1.542   2.138  20.005 -1.3223  0.2756 -1.7058
 1259TIP3    H227973   1.624   2.263  20.025 -2.9919  0.9906  1.2248
 1260TIP3   OH227974   1.735   6.593  18.949  0.1125  0.0811  0.0913
 1260TIP3    H127975   1.693   6.572  18.866  0.9349  1.0085 -0.5936
 1260TIP3    H227976   1.793   6.519  18.966  2.0102  1.0626 -1.6216
 1261TIP3   OH227977   4.624   3.766  18.711  0.6614  0.6302 -0.0044
 1261TIP3    H127978   4.542   3.718  18.697 -0.8459  2.2146  2.5588
 1261TIP3    H227979   4.692   3.707  18.677 -1.3362 -1.7185 -0.2587
 1262TIP3   OH227980   3.846   1.850  20.531 -0.2745 -0.4198 -0.2211
 1262TIP3    H127981   3.892   1.927  20.566  0.6433  1.0863 -4.2047
 1262TIP3    H227982   3.754   1.874  20.536 -0.1490 -0.0812  0.6909
 1263TIP3   OH227983   3.856   5.894  19.085  0.5103 -0.1110  0.4951
 1263TIP3    H127984   3.908   5.899  19.005  0.6612 -1.7688  0.4695
 1263TIP3    H227985   3.812   5.979  19.090 -1.6077 -0.8380 -2.7779
 1264TIP3   OH227986   4.299   6.582  20.336 -0.5169 -0.0734  0.5741
 1264TIP3    H127987   4.328   6.616  20.251  1.3204 -0.6618  0.9026
 1264TIP3    H227988   4.291   6.488  20.322  0.4569 -0.2593  1.2000
 1265TIP3   OH227989   2.584   0.532  17.046  0.9770 -0.3746 -0.0119
 1265TIP3    H127990   2.560   0.624  17.041  2.1717 -0.0755 -0.6626
 1265TIP3    H227991   2.508   0.485  17.011 -0.2342  0.2342  1.6507
 1266TIP3   OH227992   5.043   5.129  20.182  0.2976 -0.2748  0.3072
 1266TIP3    H127993   5.137   5.140  20.165  0.1291 -0.3024 -0.7175
 1266TIP3    H227994   5.039   5.058  20.246  0.9870 -0.0356  0.6311
 1267TIP3   OH227995   0.221   2.279  20.661  0.3956  0.2659  0.2812
 1267TIP3    H127996   0.302   2.308  20.621 -0.7244  0.2068 -2.2374
 1267TIP3    H227997   0.230   2.184  20.669 -0.0569  0.0112 -1.7234
 1268TIP3   OH227998   4.347   3.967  19.268  0.0576  0.1128  0.9632
 1268TIP3    H127999   4.330   3.915  19.346  0.2659  1.7957  2.1925
 1268TIP3    H228000   4.383   4.050  19.301  1.0571  0.5296 -0.9699
 1269TIP3   OH228001   6.217   1.817  18.262 -0.0984  0.0833 -0.2588
 1269TIP3    H128002   6.124   1.814  18.240 -0.1746 -0.0573  0.0824
 1269TIP3    H228003   6.243   1.725  18.268  0.3627  0.1008 -1.6008
 1270TIP3   OH228004   1.874   1.466  18.984 -0.0783  0.1517 -0.0232
 1270TIP3    H128005   1.861   1.526  19.058 -0.2371  0.5908 -0.3998
 1270TIP3    H228006   1.937   1.512  18.928 -0.5454  0.1734 -0.5367
 1271TIP3   OH228007   2.160   3.152  17.580  0.5459 -0.0876  0.4139
 1271TIP3    H128008   2.138   3.151  17.487  1.2647 -0.5018  0.2423
 1271TIP3    H228009   2.122   3.072  17.615  0.1889  0.1176  0.5024
 1272TIP3   OH228010   4.297   5.407  17.557 -0.1312 -0.1977 -0.4293
 1272TIP3    H128011   4.373   5.350  17.544  0.9170  0.8713  0.7710
 1272TIP3    H228012   4.313   5.451  17.640 -0.4871  2.4452 -1.6486
 1273TIP3   OH228013   4.511   5.561  18.908 -0.5261  0.0550  0.1324
 1273TIP3    H128014   4.435   5.506  18.929  0.1983 -0.9505  0.1557
 1273TIP3    H228015   4.530   5.543  18.816  1.7877 -2.3884  0.9772
 1274TIP3   OH228016   4.317   2.059  17.438 -0.0342  0.5229 -0.3491
 1274TIP3    H128017   4.282   2.124  17.377 -0.1441  0.1431 -0.6967
 1274TIP3    H228018   4.299   2.095  17.525 -0.5282  0.7260 -0.5360
 1275TIP3   OH228019   5.267   2.395  18.168  0.1200  0.3031  0.1639
 1275TIP3    H128020   5.342   2.395  18.227  0.8345  1.9480 -0.6718
 1275TIP3    H228021   5.227   2.482  18.179 -1.4306 -0.3805  0.2773
 1276TIP3   OH228022   1.173   0.840  19.997  0.1387 -1.0198 -0.1777
 1276TIP3    H128023   1.205   0.752  20.018 -0.3212 -1.1038  0.1949
 1276TIP3    H228024   1.248   0.885  19.958  1.0679 -0.8390  1.7000
 1277TIP3   OH228025   1.173   1.333  18.260  0.4843 -0.0256  0.6845
 1277TIP3    H128026   1.085   1.352  18.290 -0.1459 -0.6050 -0.7014
 1277TIP3    H228027   1.171   1.241  18.234  2.1538 -0.7278  2.7787
 1278TIP3   OH228028   0.128   2.950  20.317 -0.8347  0.1554 -0.2874
 1278TIP3    H128029   0.082   3.034  20.324 -0.3302  0.4482 -0.4593
 1278TIP3    H228030   0.164   2.950  20.229 -0.3211  0.0256 -0.0774
 1279TIP3   OH228031   1.771   2.261  19.303 -0.1067  0.6828 -0.3220
 1279TIP3    H128032   1.709   2.202  19.261  0.4380 -0.0734 -0.0674
 1279TIP3    H228033   1.777   2.230  19.393  2.7891 -1.0710 -1.0006
 1280TIP3   OH228034   3.365   1.367  19.257  0.0305 -0.1575 -0.2422
 1280TIP3    H128035   3.367   1.350  19.351  0.1012 -0.6185 -0.3270
 1280TIP3    H228036   3.448   1.412  19.238  0.6978 -1.4091 -0.3438
 1281TIP3   OH228037   3.975   3.355  17.905 -0.2278  0.0040 -0.2493
 1281TIP3    H128038   3.897   3.408  17.887 -0.1879 -0.2793 -1.3180
 1281TIP3    H228039   3.988   3.304  17.825 -0.5351 -1.9849  0.9208
 1282TIP3   OH228040   0.618   4.791  18.593  0.2277  0.9601 -0.6176
 1282TIP3    H128041   0.569   4.709  18.589  0.3189  0.7947  1.0707
 1282TIP3    H228042   0.598   4.827  18.679  0.8216  2.3259 -1.0223
 1283TIP3   OH228043   3.154   0.326  20.721  0.1039 -0.1055  0.0967
 1283TIP3    H128044   3.208   0.283  20.787  1.4084 -0.8538 -1.3793
 1283TIP3    H228045   3.178   0.418  20.728  0.4192 -0.2123  0.5068
 1284TIP3   OH228046   5.112   0.599  18.559 -0.0195  0.5593  0.3466
 1284TIP3    H128047   5.123   0.694  18.556 -2.1671  0.8275 -1.5485
 1284TIP3    H228048   5.117   0.572  18.467  2.8982 -1.5431  0.9877
 1285TIP3   OH228049   2.066   4.801  18.082 -0.2327 -0.2119 -0.3496
 1285TIP3    H128050   1.973   4.799  18.059 -0.0215 -0.0895 -1.2459
 1285TIP3    H228051   2.073   4.868  18.150 -0.7870 -0.1640 -0.3374
 1286TIP3   OH228052   4.433   2.784  19.975 -0.1148 -0.0410 -0.1876
 1286TIP3    H128053   4.528   2.778  19.974  0.2014  3.1348 -0.6928
 1286TIP3    H228054   4.411   2.822  19.890 -1.6184  1.1375  0.6782
 1287TIP3   OH228055   2.721   4.057  19.789  0.2283 -0.3219  0.4272
 1287TIP3    H128056   2.636   4.024  19.818 -0.3878  0.4217 -0.4880
 1287TIP3    H228057   2.712   4.152  19.790  1.0914 -0.2298  0.4253
 1288TIP3   OH228058   3.740   5.561  20.193 -0.3260  0.1231  0.2834
 1288TIP3    H128059   3.760   5.472  20.166 -1.6977 -0.3622  0.7659
 1288TIP3    H228060   3.666   5.552  20.253 -1.2186  1.6549 -0.4970
 1289TIP3   OH228061   0.602   4.267  19.411  0.6633  0.2124 -0.0057
 1289TIP3    H128062   0.648   4.289  19.331 -0.9515 -1.8185 -1.6049
 1289TIP3    H228063   0.515   4.306  19.401 -0.1304 -1.4680 -0.0906
 1290TIP3   OH228064   1.930   4.915  18.596  0.6496  0.1284 -0.3106
 1290TIP3    H128065   1.913   4.988  18.655 -0.4474  0.9645 -1.5890
 1290TIP3    H228066   1.996   4.863  18.640 -1.1445 -0.1082  2.3382
 1291TIP3   OH228067   6.532   6.092  18.254 -0.5400  0.6391 -1.0409
 1291TIP3    H128068   6.532   6.020  18.190  1.3760 -0.9041  0.5383
 1291TIP3    H228069   6.447   6.087  18.297 -0.0914 -1.4560 -0.2697
 1292TIP3   OH228070   4.063   1.218  18.725  0.3890  0.4568 -0.3783
 1292TIP3    H128071   4.045   1.312  18.731  2.0736  0.7232  2.3113
 1292TIP3    H228072   3.977   1.177  18.729 -0.2973  1.8470  3.1189
 1293TIP3   OH228073   3.820   1.489  21.179  0.1955 -0.9964  0.0668
 1293TIP3    H128074   3.813   1.542  21.258 -0.7534  0.3113 -0.8413
 1293TIP3    H228075   3.790   1.547  21.108 -0.9691 -2.7492 -0.9735
 1294TIP3   OH228076   6.374   0.609  17.016  0.3625 -0.7677  0.9614
 1294TIP3    H128077   6.328   0.689  17.043 -0.6087 -1.2350  0.7239
 1294TIP3    H228078   6.308   0.557  16.970  0.9904 -1.6932  1.0736
 1295TIP3   OH228079   3.928   3.140  19.340 -0.1939  0.1281 -0.1231
 1295TIP3    H128080   3.920   3.045  19.333 -1.7213  0.1864  0.3723
 1295TIP3    H228081   3.903   3.173  19.254 -0.3728  0.1080 -0.0785
 1296TIP3   OH228082   2.532   4.234  19.376  0.2831 -0.0901  0.0102
 1296TIP3    H128083   2.543   4.326  19.354  3.4241 -0.5534 -0.8006
 1296TIP3    H228084   2.594   4.188  19.319 -1.9677 -2.8664 -0.4276
 1297TIP3   OH228085   5.762   2.098  19.333 -0.2812  0.1952  0.3591
 1297TIP3    H128086   5.726   2.178  19.372 -0.0571  0.9250 -0.9025
 1297TIP3    H228087   5.701   2.076  19.263 -0.2682 -0.6802  0.6126
 1298TIP3   OH228088   6.575   5.898  18.035 -0.0831 -0.0543  0.6621
 1298TIP3    H128089   6.563   5.820  17.981  0.8294 -0.8787  1.6115
 1298TIP3    H228090   6.623   5.959  17.978 -0.5791 -0.2690  0.0021
 1299TIP3   OH228091   2.957   6.148  18.029  0.3497 -0.6100  0.0769
 1299TIP3    H128092   2.954   6.243  18.039 -1.7245 -0.4884 -1.0572
 1299TIP3    H228093   2.957   6.114  18.118  1.5759  0.4372  0.4982
 1300TIP3   OH228094   2.113   2.891  18.815  0.1505 -0.5578 -0.1766
 1300TIP3    H128095   2.152   2.969  18.776  2.3350 -1.3047  0.3236
 1300TIP3    H228096   2.048   2.923  18.877 -0.9073  0.7406 -1.8723
 1301TIP3   OH228097   2.969   2.727  20.258  0.2960  0.2556  0.1773
 1301TIP3    H128098   2.956   2.809  20.210  0.8662 -0.3226 -0.9853
 1301TIP3    H228099   3.064   2.723  20.273  0.3223 -0.4121 -0.1619
 1302TIP3   OH228100   3.623   4.346  17.544 -0.0957 -0.4838  0.0893
 1302TIP3    H128101   3.572   4.265  17.544 -1.7599  0.5019 -0.7807
 1302TIP3    H228102   3.602   4.387  17.460  2.8955 -0.4284 -0.7282
 1303TIP3   OH228103   0.951   5.964  18.860 -0.0315 -0.1849  0.1491
 1303TIP3    H128104   0.947   5.884  18.913  0.6437 -0.3849 -0.0985
 1303TIP3    H228105   1.033   5.958  18.812 -0.7173 -0.1073 -1.0895
 1304TIP3   OH228106   2.161   0.358  18.909  0.3896 -0.3690 -0.0360
 1304TIP3    H128107   2.183   0.291  18.974 -2.1247 -1.1239  0.1341
 1304TIP3    H228108   2.120   0.310  18.837  1.7079  0.6401 -1.5469
 1305TIP3   OH228109   4.556   5.898  18.612 -0.0837  0.0516  0.0625
 1305TIP3    H128110   4.469   5.874  18.582  0.6568 -1.2955 -1.0941
 1305TIP3    H228111   4.597   5.941  18.537  0.9447 -1.1988 -0.1383
 1306TIP3   OH228112   0.506   4.425  17.868  0.0425  0.1385  0.3593
 1306TIP3    H128113   0.485   4.488  17.800 -2.1263 -0.9016 -0.0096
 1306TIP3    H228114   0.590   4.388  17.842 -0.6016 -0.0282 -1.5989
 1307TIP3   OH228115   3.790   6.299  19.753 -0.0464 -0.1083  0.1688
 1307TIP3    H128116   3.713   6.250  19.724 -0.4032  1.9434 -2.7609
 1307TIP3    H228117   3.862   6.263  19.701 -0.2697  2.1041 -1.8214
 1308TIP3   OH228118   2.850   3.703  18.449 -0.1876  0.2609  0.5846
 1308TIP3    H128119   2.882   3.616  18.428  1.7705  0.9521  0.4676
 1308TIP3    H228120   2.907   3.763  18.401 -1.2239  1.6282  0.9623
 1309TIP3   OH228121   1.995   2.089  18.510 -0.2656 -0.5648 -0.0656
 1309TIP3    H128122   2.049   2.118  18.584 -0.3121 -3.0924  1.0712
 1309TIP3    H228123   1.943   2.016  18.546 -3.6214  0.9437 -1.4092
 1310TIP3   OH228124   0.251   2.648  18.005  0.0012  0.7011  0.6457
 1310TIP3    H128125   0.249   2.741  18.030  0.0232  0.5513  1.2217
 1310TIP3    H228126   0.293   2.647  17.919 -1.6902  1.4008 -0.2220
 1311TIP3   OH228127   4.185   6.561  20.604 -0.4651 -0.2536  0.2111
 1311TIP3    H128128   4.217   6.567  20.514 -0.0022  1.8305  0.4591
 1311TIP3    H228129   4.094   6.535  20.595 -1.4144  2.9788 -1.1548
 1312TIP3   OH228130   0.613   2.959  18.539 -0.3354  0.7014  0.1675
 1312TIP3    H128131   0.527   2.933  18.572  0.0259  1.5616  1.9080
 1312TIP3    H228132   0.627   3.047  18.575  0.5324  1.3185 -1.5555
 1313TIP3   OH228133   1.418   6.081  17.901  0.3603  0.0742  0.0420
 1313TIP3    H128134   1.334   6.053  17.864 -1.2417  2.2098  1.8002
 1313TIP3    H228135   1.481   6.065  17.831 -1.8442  0.4443 -2.2027
 1314TIP3   OH228136   0.867   3.141  19.229 -0.0476  0.2873 -0.4497
 1314TIP3    H128137   0.774   3.116  19.236 -0.7770  2.7779 -0.4024
 1314TIP3    H228138   0.889   3.176  19.315  0.7660  0.2882 -0.6488
 1315TIP3   OH228139   2.595   2.708  19.436  0.2613 -0.7599  0.3526
 1315TIP3    H128140   2.571   2.739  19.348 -1.1775 -1.2006  0.5617
 1315TIP3    H228141   2.552   2.769  19.495  1.2772 -0.4295  0.7784
 1316TIP3   OH228142   3.097   6.002  18.545  0.5595  0.5226 -0.4143
 1316TIP3    H128143   3.162   6.025  18.611  1.7328 -2.3102 -0.4238
 1316TIP3    H228144   3.025   5.963  18.596  2.0360 -2.9073 -0.7195
 1317TIP3   OH228145   2.967   3.361  18.754  0.0748  0.0680  0.1759
 1317TIP3    H128146   2.876   3.387  18.745  0.6716  2.8739  1.2792
 1317TIP3    H228147   2.976   3.338  18.847 -0.0250 -2.8069 -0.4251
 1318TIP3   OH228148   4.671   0.185  19.294 -0.2405  0.6290  0.0127
 1318TIP3    H128149   4.658   0.090  19.289  0.8034  0.3821  1.4973
 1318TIP3    H228150   4.596   0.217  19.344 -1.7998  0.9364 -2.3575
 1319TIP3   OH228151   3.805   3.597  19.012 -0.6603  0.3659  0.0585
 1319TIP3    H128152   3.876   3.659  18.999 -1.0633  0.8762  0.2932
 1319TIP3    H228153   3.820   3.530  18.944  0.5031  0.0300  0.6166
 1320TIP3   OH228154   6.041   2.371  18.109 -0.2166 -0.2961 -0.1348
 1320TIP3    H128155   5.958   2.385  18.156 -0.2626  1.6545 -0.6937
 1320TIP3    H228156   6.108   2.380  18.176 -0.4268 -2.1668  0.3769
 1321TIP3   OH228157   5.028   2.761  18.998  0.3273 -0.7748 -0.4205
 1321TIP3    H128158   5.075   2.830  18.951 -0.8653 -0.1480 -0.7381
 1321TIP3    H228159   5.017   2.692  18.933 -0.3463 -0.3654 -0.7545
 1322TIP3   OH228160   1.339   6.380  20.639  0.4844  0.1190  0.2749
 1322TIP3    H128161   1.360   6.385  20.732 -1.5240  1.3447  0.7219
 1322TIP3    H228162   1.384   6.456  20.601  0.7266  0.0217  0.3620
 1323TIP3   OH228163   3.371   2.140  18.551  0.4632 -0.3751 -0.3666
 1323TIP3    H128164   3.441   2.100  18.500  0.3055 -1.7932  0.4516
 1323TIP3    H228165   3.301   2.074  18.550  0.2467 -0.2067  1.1546
 1324TIP3   OH228166   5.286   0.506  17.620 -0.1286  0.5587 -0.1630
 1324TIP3    H128167   5.309   0.515  17.713 -0.9239  2.2673 -0.0935
 1324TIP3    H228168   5.370   0.515  17.574  0.6146 -2.4027  0.4018
 1325TIP3   OH228169   0.928   1.518  20.300  0.3255 -0.2630  0.4311
 1325TIP3    H128170   0.934   1.457  20.227  0.1641  1.9856 -1.5673
 1325TIP3    H228171   1.018   1.533  20.327  0.5820  0.5291 -0.7883
 1326TIP3   OH228172   4.098   2.287  19.880 -0.1278  0.3380  1.0443
 1326TIP3    H128173   4.165   2.295  19.812 -0.4754  0.0637  0.6656
 1326TIP3    H228174   4.134   2.223  19.942  1.1374  2.1292  2.2676
 1327TIP3   OH228175   3.998   6.274  17.150 -0.1392 -0.5469 -0.0605
 1327TIP3    H128176   4.084   6.233  17.152 -0.2031 -0.6852 -0.1415
 1327TIP3    H228177   4.010   6.351  17.094  0.6661  1.1240  2.2486
 1328TIP3   OH228178   3.660   0.079  20.312  0.5578 -0.0344  0.3983
 1328TIP3    H128179   3.636   0.021  20.240  1.7874  0.4542 -0.4260
 1328TIP3    H228180   3.658   0.167  20.274  1.6760  0.1888  0.8277
 1329TIP3   OH228181   3.078   2.869  18.133 -0.0405  0.0990 -0.1550
 1329TIP3    H128182   2.989   2.858  18.167 -0.1081  0.9951 -0.0315
 1329TIP3    H228183   3.067   2.889  18.041  0.0490 -0.0995 -0.2097
 1330TIP3   OH228184   2.356   6.662  17.946 -0.6611  0.4873 -0.2033
 1330TIP3    H128185   2.333   6.744  17.902  1.1793  0.9837 -0.3000
 1330TIP3    H228186   2.373   6.687  18.036  0.1781  0.2732 -0.2950
 1331TIP3   OH228187   0.000   4.915  19.718 -0.0322  0.3120  0.0983
 1331TIP3    H128188   0.027   4.992  19.769 -0.3586  0.8620 -0.5354
 1331TIP3    H228189  -0.009   4.949  19.629  1.4557 -0.8316 -0.5304
 1332TIP3   OH228190   1.309   0.780  18.022 -0.4394 -0.2376  0.1627
 1332TIP3    H128191   1.326   0.690  17.993  0.4046  0.2693 -0.9907
 1332TIP3    H228192   1.235   0.809  17.968  0.9562  0.6119 -1.3976
 1333TIP3   OH228193   5.264   0.206  19.015 -0.4874  0.3275  0.4549
 1333TIP3    H128194   5.217   0.203  19.098 -0.0600  0.6711  0.7166
 1333TIP3    H228195   5.198   0.185  18.949 -1.1322  1.2531  0.7710
 1334TIP3   OH228196   4.839   5.405  17.791  0.1454 -0.3032 -0.0436
 1334TIP3    H128197   4.803   5.443  17.871 -0.4425  0.5870 -0.7244
 1334TIP3    H228198   4.899   5.337  17.823 -1.0676 -0.8892  1.1430
 1335TIP3   OH228199   1.880   3.226  18.753  0.0921 -0.1201  0.2523
 1335TIP3    H128200   1.924   3.311  18.746  0.7516 -0.5043 -0.2871
 1335TIP3    H228201   1.935   3.175  18.812 -0.6315  0.0201  1.0776
 1336TIP3   OH228202   1.871   6.159  18.490 -0.3523 -0.5414 -0.1942
 1336TIP3    H128203   1.952   6.142  18.442  1.0813  0.8727  1.5603
 1336TIP3    H228204   1.893   6.136  18.581 -1.7188  0.4820  0.4242
 1337TIP3   OH228205   0.953   1.008  17.820  0.1627 -0.5576  0.5439
 1337TIP3    H128206   0.939   1.034  17.729 -2.1408 -0.9422  0.7044
 1337TIP3    H228207   1.010   0.931  17.815  0.6055 -0.1826 -0.5108
 1338TIP3   OH228208   5.906   5.112  20.755 -0.5003 -0.2210  0.2389
 1338TIP3    H128209   5.865   5.032  20.723  2.3113 -1.2142 -1.2333
 1338TIP3    H228210   5.957   5.084  20.831  0.5943  0.0750 -0.3519
 1339TIP3   OH228211   5.677   4.689  20.829  0.1252 -0.2764 -0.5777
 1339TIP3    H128212   5.589   4.653  20.817 -0.0347 -0.2675  0.4258
 1339TIP3    H228213   5.693   4.681  20.923  1.0938 -0.0307 -0.7096
 1340TIP3   OH228214   1.702   2.325  19.669  0.2442 -0.0873 -0.2797
 1340TIP3    H128215   1.779   2.357  19.621  0.3039 -0.9104 -0.7489
 1340TIP3    H228216   1.738   2.288  19.750  0.5189 -1.7512 -1.1238
 1341TIP3   OH228217   4.374   5.121  20.630  0.4300  0.0294 -0.3497
 1341TIP3    H128218   4.308   5.100  20.564 -0.0683 -0.8540  0.3878
 1341TIP3    H228219   4.352   5.063  20.704  2.0124 -0.2724 -0.0779
 1342TIP3   OH228220   0.915   0.584  18.298  0.4809  0.1055  0.2862
 1342TIP3    H128221   0.946   0.524  18.367  0.0727  1.5547  1.7920
 1342TIP3    H228222   0.969   0.663  18.309 -0.6637  0.9443 -0.0270
 1343TIP3   OH228223   2.859   0.539  17.814  0.2617  0.7536  0.5606
 1343TIP3    H128224   2.876   0.508  17.726 -1.7387  1.0224  0.0282
 1343TIP3    H228225   2.854   0.460  17.868  0.8777  0.5528  0.3294
 1344TIP3   OH228226   4.572   4.157  20.018 -0.4371  1.3058  0.4582
 1344TIP3    H128227   4.641   4.094  20.000 -0.5133  1.0952  0.8881
 1344TIP3    H228228   4.592   4.192  20.105 -0.8342  1.2843  0.5636
 1345TIP3   OH228229   3.354   3.692  19.500  0.0029 -0.0528  0.5004
 1345TIP3    H128230   3.289   3.625  19.523  0.4981 -0.9559 -0.6662
 1345TIP3    H228231   3.383   3.725  19.585  1.0599 -2.5957  1.2399
 1346TIP3   OH228232   2.288   6.599  19.244  0.1492 -0.3137 -0.7221
 1346TIP3    H128233   2.346   6.574  19.172 -1.4853 -1.2213 -1.8013
 1346TIP3    H228234   2.335   6.571  19.323  0.9536 -1.5018 -1.5808
 1347TIP3   OH228235   3.708   5.173  17.755 -0.2576  0.0328 -0.2598
 1347TIP3    H128236   3.654   5.207  17.826  0.0437  0.8558 -0.4026
 1347TIP3    H228237   3.766   5.109  17.797 -2.9349 -2.7618 -0.5162
 1348TIP3   OH228238   0.712   5.887  16.966 -0.2757 -0.3982 -0.3589
 1348TIP3    H128239   0.664   5.851  17.041 -0.7140  2.2480  0.7304
 1348TIP3    H228240   0.797   5.913  17.001  1.1136 -2.7240 -1.7331
 1349TIP3   OH228241   4.083   1.775  19.792 -0.2717  0.0638 -0.3463
 1349TIP3    H128242   4.034   1.819  19.861  0.5349  1.5331 -0.6624
 1349TIP3    H228243   4.154   1.835  19.771 -1.1686  0.2551 -3.2907
 1350TIP3   OH228244   3.343   6.405  18.366  0.6884 -0.2695 -0.5175
 1350TIP3    H128245   3.400   6.342  18.322  0.9890  0.1020 -0.6608
 1350TIP3    H228246   3.289   6.441  18.295  1.0672  0.2158 -0.5673
 1351TIP3   OH228247   0.359   2.747  18.340 -0.4556  0.0682 -0.4831
 1351TIP3    H128248   0.343   2.804  18.416 -0.1840  1.3602 -1.3641
 1351TIP3    H228249   0.276   2.700  18.329 -0.2562 -0.6954  1.0503
 1352TIP3   OH228250   6.585   1.389  20.056  0.6285  0.0005 -0.0242
 1352TIP3    H128251   6.612   1.456  19.993  0.1736 -0.0630 -0.2936
 1352TIP3    H228252   6.565   1.437  20.136 -3.0225  0.6862 -1.1741
 1353TIP3   OH228253   4.803   4.003  19.956 -0.1674 -0.4493 -0.1913
 1353TIP3    H128254   4.883   4.055  19.964 -0.2491 -0.4192  0.5599
 1353TIP3    H228255   4.834   3.913  19.948 -0.0387 -0.3416 -0.9477
 1354TIP3   OH228256   3.887   5.091  18.882 -0.0288 -0.0533  0.0216
 1354TIP3    H128257   3.793   5.108  18.868  0.3469  1.3134 -1.0127
 1354TIP3    H228258   3.931   5.162  18.836  1.5301 -0.5857  0.6476
 1355TIP3   OH228259   0.689   3.984  19.146  0.3009  0.6894 -0.0071
 1355TIP3    H128260   0.668   3.966  19.238 -0.0569  1.2564  0.0279
 1355TIP3    H228261   0.729   4.071  19.147  1.0528  0.3545 -0.2930
 1356TIP3   OH228262   5.410   3.297  19.136  0.1752  0.0083  0.0691
 1356TIP3    H128263   5.327   3.323  19.175  0.1123  1.4615 -0.9534
 1356TIP3    H228264   5.477   3.345  19.186  0.3596 -0.6478  0.4670
 1357TIP3   OH228265   2.786   5.919  19.855 -0.1321 -0.5588  0.3348
 1357TIP3    H128266   2.881   5.929  19.856  0.0450 -1.6030 -1.4426
 1357TIP3    H228267   2.769   5.843  19.911  0.2610 -1.3241 -0.5544
 1358TIP3   OH228268   1.922   2.409  20.774  0.1929  0.4249 -0.5144
 1358TIP3    H128269   1.883   2.414  20.687 -1.9166  1.1265  0.3851
 1358TIP3    H228270   2.010   2.444  20.763 -1.2967  4.4356 -1.7274
 1359TIP3   OH228271   2.825   3.262  19.251 -0.2738  0.1055  0.7650
 1359TIP3    H128272   2.792   3.173  19.262  1.8644 -0.7489  0.7449
 1359TIP3    H228273   2.847   3.290  19.340  2.0832 -0.6874  0.4987
 1360TIP3   OH228274   3.090   3.758  20.124  0.4628 -0.1265 -0.6994
 1360TIP3    H128275   3.087   3.711  20.207 -1.3273  1.3874  0.1815
 1360TIP3    H228276   3.016   3.723  20.073  0.3007  0.3504 -0.8070
 1361TIP3   OH228277   1.558   3.921  18.411 -0.5708  0.7633 -0.4059
 1361TIP3    H128278   1.537   3.993  18.352 -1.3227  1.2021  0.3558
 1361TIP3    H228279   1.480   3.914  18.467 -0.3548 -0.4018 -0.2314
 1362TIP3   OH228280   1.873   0.686  19.466 -0.5408 -0.2140  0.3280
 1362TIP3    H128281   1.828   0.738  19.532  0.1187  0.9001 -0.0651
 1362TIP3    H228282   1.882   0.745  19.391  3.0286  0.2337  0.9448
 1363TIP3   OH228283   5.533   4.090  18.843 -0.0023  0.2071  0.4114
 1363TIP3    H128284   5.509   4.022  18.780 -0.3401 -0.3516  1.1164
 1363TIP3    H228285   5.555   4.166  18.790 -1.0480  0.0015 -0.3462
 1364TIP3   OH228286   5.273   4.555  19.319 -0.0811 -0.0319  0.3079
 1364TIP3    H128287   5.344   4.562  19.255  0.4754  1.6120  1.0397
 1364TIP3    H228288   5.229   4.640  19.315 -0.7367 -0.3076  1.2944
 1365TIP3   OH228289   0.425   0.512  20.268 -0.0157 -0.0718 -0.1471
 1365TIP3    H128290   0.353   0.521  20.206  0.1984 -1.5917 -0.6709
 1365TIP3    H228291   0.503   0.499  20.213  0.2214 -1.1412  0.4027
 1366TIP3   OH228292   0.016   5.711  18.216  0.1278 -0.1733 -0.1732
 1366TIP3    H128293  -0.074   5.737  18.196  0.6991  0.8223 -1.6119
 1366TIP3    H228294   0.007   5.636  18.275 -1.6208  1.0552  1.2112
 1367TIP3   OH228295   5.399   1.720  18.790  0.2941 -0.7619 -0.2698
 1367TIP3    H128296   5.460   1.715  18.716 -0.9148 -0.9405 -1.2916
 1367TIP3    H228297   5.441   1.779  18.852  0.0799  1.7387 -2.3463
 1368TIP3   OH228298   6.693   3.408  20.077  0.4065 -0.0469  0.1851
 1368TIP3    H128299   6.650   3.488  20.048  1.1990 -0.3037 -1.8638
 1368TIP3    H228300   6.621   3.351  20.106 -0.2405  1.0186  0.7225
 1369TIP3   OH228301   5.619   2.384  18.553  0.5581 -0.2845 -0.0088
 1369TIP3    H128302   5.633   2.399  18.460  1.5526 -0.0555  0.1656
 1369TIP3    H228303   5.700   2.413  18.594 -0.1336  0.2913  1.0047
 1370TIP3   OH228304   5.544   0.215  19.167 -0.0571  0.8476  0.0272
 1370TIP3    H128305   5.520   0.158  19.094  0.0162 -0.3242  0.8859
 1370TIP3    H228306   5.600   0.161  19.222 -1.2887  1.1946  1.7068
 1371TIP3   OH228307   5.466   2.928  16.878  0.3174  0.5147 -0.0733
 1371TIP3    H128308   5.381   2.925  16.834  0.2142  1.1305  0.0814
 1371TIP3    H228309   5.460   2.862  16.947 -0.4069  1.2649  0.5934
 1372TIP3   OH228310   0.972   0.321  20.179  0.4215  0.0078  0.1922
 1372TIP3    H128311   0.951   0.236  20.141  1.4022 -0.8246  1.4666
 1372TIP3    H228312   0.894   0.345  20.230 -0.3062  0.4422 -1.0571
 1373TIP3   OH228313   6.706   5.417  19.264  0.3627  0.1868  0.7330
 1373TIP3    H128314   6.699   5.321  19.260  0.6998  0.1860 -0.2422
 1373TIP3    H228315   6.619   5.449  19.240  1.1300  0.1185 -2.6232
 1374TIP3   OH228316   2.817   6.049  18.510 -0.2227 -0.4475 -0.0398
 1374TIP3    H128317   2.863   6.021  18.589  1.2051  0.1765 -0.6198
 1374TIP3    H228318   2.883   6.096  18.459 -0.7329 -1.8927 -2.2018
 1375TIP3   OH228319   0.395   0.106  17.806 -0.6637  0.0181 -0.0140
 1375TIP3    H128320   0.408   0.051  17.729  0.5833 -0.0876  0.2578
 1375TIP3    H228321   0.361   0.189  17.771 -3.5823 -1.2171 -0.3412
 1376TIP3   OH228322   4.152   0.206  19.664  0.2147 -0.0518  0.0301
 1376TIP3    H128323   4.188   0.146  19.730 -0.7413 -2.1312 -1.2492
 1376TIP3    H228324   4.226   0.262  19.640  0.9647 -0.2281  1.7448
 1377TIP3   OH228325   2.110   3.442  19.286  0.9092  0.0637  0.3185
 1377TIP3    H128326   2.075   3.390  19.358  1.6635  0.6616  1.1551
 1377TIP3    H228327   2.045   3.435  19.216  0.0323 -0.3267  1.1564
 1378TIP3   OH228328   5.645   1.444  20.558  0.0541  0.7011  0.4481
 1378TIP3    H128329   5.604   1.365  20.523  0.3728  0.7387 -0.0225
 1378TIP3    H228330   5.696   1.414  20.634  0.3875  0.4103  0.1126
 1379TIP3   OH228331   1.831   1.319  19.548 -0.6520 -0.6161  0.5075
 1379TIP3    H128332   1.746   1.284  19.524 -0.9138 -0.1814  0.7930
 1379TIP3    H228333   1.883   1.315  19.467 -1.5305  0.8601 -0.1690
 1380TIP3   OH228334   3.153   4.810  20.249  0.7957  0.3965 -0.3586
 1380TIP3    H128335   3.217   4.826  20.318  0.5802 -1.5218  0.3642
 1380TIP3    H228336   3.162   4.717  20.229 -1.2616  0.2195 -0.7353
 1381TIP3   OH228337   4.025   2.071  20.376  0.3212 -0.0213 -0.3738
 1381TIP3    H128338   4.096   2.127  20.343  1.4455 -0.7610  0.7014
 1381TIP3    H228339   4.061   2.031  20.455 -0.6921 -1.7380 -0.7361
 1382TIP3   OH228340   1.269   0.037  18.193  0.3694 -0.1682 -0.1613
 1382TIP3    H128341   1.212   0.007  18.264 -1.0563 -1.5422 -1.8284
 1382TIP3    H228342   1.328  -0.037  18.176  2.1051  0.8975  0.9049
 1383TIP3   OH228343   3.188   1.086  20.872 -0.2347 -0.3245 -0.1048
 1383TIP3    H128344   3.104   1.076  20.827 -0.6946 -1.5852  0.9947
 1383TIP3    H228345   3.182   1.172  20.915 -1.7151 -1.1466  1.4349
 1384TIP3   OH228346   1.366   2.561  19.846 -0.2268  0.0783 -0.2862
 1384TIP3    H128347   1.412   2.527  19.923  1.2083 -1.3573 -1.6901
 1384TIP3    H228348   1.340   2.649  19.871  1.9495  0.3915  1.1663
 1385TIP3   OH228349   2.351   3.392  18.914  0.8611 -0.0102 -0.1596
 1385TIP3    H128350   2.290   3.450  18.959  0.9554 -1.8197  2.5555
 1385TIP3    H228351   2.356   3.427  18.825 -2.0255  1.7876  0.2353
 1386TIP3   OH228352   3.447   5.987  19.904  0.2188  0.1251 -0.3530
 1386TIP3    H128353   3.529   6.036  19.905 -0.5819  1.5022  0.0615
 1386TIP3    H228354   3.457   5.923  19.974  0.9551  0.2476 -0.3337
 1387TIP3   OH228355   6.020   1.721  20.756  0.2009  0.5074 -0.1979
 1387TIP3    H128356   6.012   1.661  20.831  2.6548  0.4504  0.0906
 1387TIP3    H228357   5.949   1.695  20.698 -0.2215 -1.1583  0.9658
 1388TIP3   OH228358   6.547   6.489  19.992  0.6393 -0.8510 -0.0006
 1388TIP3    H128359   6.471   6.478  20.050  1.0169 -1.4753  0.3873
 1388TIP3    H228360   6.510   6.525  19.912  0.0641 -0.2727  0.5092
 1389TIP3   OH228361   3.595   6.067  20.536 -0.0457  0.5751 -0.2505
 1389TIP3    H128362   3.609   6.130  20.465  2.1151 -0.9297 -1.2577
 1389TIP3    H228363   3.677   6.069  20.586 -1.1405  0.8448  1.6419
 1390TIP3   OH228364   5.693   4.204  17.821 -0.1500  0.4009  0.1087
 1390TIP3    H128365   5.767   4.199  17.882 -0.3609 -0.7520  0.2891
 1390TIP3    H228366   5.709   4.284  17.771  1.8008 -0.3375 -0.5748
 1391TIP3   OH228367   0.819   4.925  18.334 -0.6790 -0.1539  0.1830
 1391TIP3    H128368   0.793   5.017  18.329  0.3388  0.0889 -1.1276
 1391TIP3    H228369   0.856   4.915  18.422 -0.5124  0.7629  0.2226
 1392TIP3   OH228370   5.543   5.340  20.687  0.1270 -0.7838  0.1603
 1392TIP3    H128371   5.617   5.352  20.747  0.1742 -0.2607  0.0007
 1392TIP3    H228372   5.575   5.278  20.622  1.4255  1.5168 -1.5243
 1393TIP3   OH228373   1.992   1.667  20.387  0.1521  0.1459  0.2746
 1393TIP3    H128374   1.970   1.577  20.409 -1.4824  1.0253  2.6457
 1393TIP3    H228375   2.071   1.686  20.438 -0.8798  0.7189  1.7355
 1394TIP3   OH228376   2.629   4.753  17.591  0.4772 -0.1809  0.3938
 1394TIP3    H128377   2.590   4.763  17.504 -1.0049 -1.1470  0.9147
 1394TIP3    H228378   2.661   4.841  17.613 -3.5555  1.3673  0.8771
 1395TIP3   OH228379   5.117   1.790  17.978  0.0035  0.2552  0.5341
 1395TIP3    H128380   5.053   1.861  17.980 -0.0403  0.2502 -0.3458
 1395TIP3    H228381   5.142   1.778  18.070 -0.2310  1.1834  0.7335
 1396TIP3   OH228382   0.178   0.336  20.644 -0.5852  0.4833  0.0003
 1396TIP3    H128383   0.152   0.401  20.709 -0.4387  0.8116 -0.2688
 1396TIP3    H228384   0.256   0.373  20.603 -0.8484  0.4204 -0.5741
 1397TIP3   OH228385   4.032   1.422  21.004 -0.4056 -0.5708  0.0190
 1397TIP3    H128386   3.981   1.437  21.083  0.5312 -0.2587  0.5683
 1397TIP3    H228387   3.969   1.382  20.943 -1.0405 -1.1616  1.0313
 1398TIP3   OH228388   6.247   2.340  18.516  0.1002  0.0543  0.1111
 1398TIP3    H128389   6.213   2.406  18.456 -0.5497  0.3965  0.8325
 1398TIP3    H228390   6.252   2.384  18.601 -0.6425 -0.8854  0.6801
 1399TIP3   OH228391   2.304   6.679  18.817  0.4776 -0.1878  0.4285
 1399TIP3    H128392   2.374   6.617  18.836  0.0037 -0.8576  0.0267
 1399TIP3    H228393   2.349   6.760  18.792  1.1277 -0.9058 -0.8082
 1400TIP3   OH228394   5.518   5.687  20.529 -0.1008 -0.1821 -0.0106
 1400TIP3    H128395   5.587   5.733  20.576 -0.9257  1.2799 -0.1350
 1400TIP3    H228396   5.491   5.749  20.461 -0.6655 -1.2317 -0.7720
 1401TIP3   OH228397   5.733   5.970  20.265  0.5952 -0.2092 -0.5391
 1401TIP3    H128398   5.726   5.876  20.252  1.1558 -0.4929  1.0209
 1401TIP3    H228399   5.710   6.008  20.180  0.3901 -1.7425 -1.1941
 1402TIP3   OH228400   2.580   4.999  20.490 -0.3663  0.5453  0.5264
 1402TIP3    H128401   2.485   5.006  20.490 -0.5960 -1.6167  1.3541
 1402TIP3    H228402   2.598   4.917  20.443  1.0634  0.7544  0.6567
 1403TIP3   OH228403   2.851   2.145  19.402  0.3165 -0.6726  0.5859
 1403TIP3    H128404   2.819   2.094  19.328 -0.8018 -0.8213  1.1513
 1403TIP3    H228405   2.919   2.201  19.365  0.7355 -1.7162 -0.2719
 1404TIP3   OH228406   3.369   1.938  20.346  0.0921 -0.4754 -0.2718
 1404TIP3    H128407   3.417   1.977  20.273  0.5834 -0.1343  0.2317
 1404TIP3    H228408   3.427   1.870  20.379  0.4820  0.2983  0.6837
 1405TIP3   OH228409   1.143   1.635  18.427 -0.1192  1.0420 -0.1305
 1405TIP3    H128410   1.096   1.564  18.384 -1.1871  2.1125 -0.7745
 1405TIP3    H228411   1.096   1.648  18.509  1.6168 -0.6623  1.2511
 1406TIP3   OH228412   6.257   4.647  18.361 -0.4810  0.0520 -0.3457
 1406TIP3    H128413   6.284   4.678  18.448  0.8231 -0.3035 -0.5991
 1406TIP3    H228414   6.285   4.555  18.360  0.5700  0.3572 -1.5479
 1407TIP3   OH228415   5.932   3.048  18.743  0.6430 -0.0280  0.1762
 1407TIP3    H128416   5.971   3.090  18.667 -0.7314  1.8392  0.4379
 1407TIP3    H228417   5.840   3.076  18.742 -0.2078 -2.5174  0.7683
 1408TIP3   OH228418   3.203   3.255  19.147  0.2348  0.4891  0.4334
 1408TIP3    H128419   3.171   3.215  19.067 -1.0752  0.4260  0.9490
 1408TIP3    H228420   3.295   3.275  19.130  1.2686 -3.5273  0.4627
 1409TIP3   OH228421   5.159   0.077  18.793  0.5695 -0.0511  0.2454
 1409TIP3    H128422   5.162   0.141  18.722 -1.5671  0.3652  0.4896
 1409TIP3    H228423   5.190  -0.004  18.752 -1.0337  0.0736 -1.3398
 1410TIP3   OH228424   0.412   3.857  18.254 -0.1643 -0.2294 -0.0135
 1410TIP3    H128425   0.387   3.936  18.205 -0.7202 -0.1712  0.3502
 1410TIP3    H228426   0.480   3.816  18.200  0.2813  0.6050 -0.1082
 1411TIP3   OH228427   3.675   4.679  18.031 -0.0248 -0.6287 -0.5054
 1411TIP3    H128428   3.694   4.603  18.087 -0.4261 -0.6770 -0.4303
 1411TIP3    H228429   3.701   4.651  17.943 -1.0419 -1.2007 -0.6406
 1412TIP3   OH228430   3.700   4.928  18.634  0.2875  0.1675 -0.2602
 1412TIP3    H128431   3.734   4.839  18.625 -0.0512  0.1459 -1.5437
 1412TIP3    H228432   3.669   4.933  18.724  0.9033 -0.7924  0.0249
 1413TIP3   OH228433   0.030   0.493  19.701 -0.1463 -0.7968 -0.3604
 1413TIP3    H128434   0.082   0.549  19.644  0.2188 -0.7646 -0.0034
 1413TIP3    H228435  -0.015   0.553  19.759 -1.2643 -0.7754 -1.2148
 1414TIP3   OH228436   6.685   0.678  18.213  0.3728  0.3203  0.0721
 1414TIP3    H128437   6.676   0.771  18.195  0.4498 -0.0050 -1.9433
 1414TIP3    H228438   6.778   0.659  18.197  0.9005  0.2838  2.7578
 1415TIP3   OH228439   0.469   1.359  18.718  0.3042 -0.2459  0.1354
 1415TIP3    H128440   0.450   1.304  18.794  1.0821  1.3508  1.5645
 1415TIP3    H228441   0.521   1.303  18.661  0.7720 -1.1211  1.3706
 1416TIP3   OH228442   2.877   6.537  19.257 -0.0957 -0.6010 -0.0816
 1416TIP3    H128443   2.860   6.621  19.299  1.3049 -0.7096  0.7483
 1416TIP3    H228444   2.898   6.560  19.166  4.4322  0.4877  1.0137
 1417TIP3   OH228445   4.163   2.976  19.409 -0.4173 -0.4391 -0.1505
 1417TIP3    H128446   4.094   3.033  19.375 -0.6782 -0.7631 -0.1748
 1417TIP3    H228447   4.137   2.888  19.380  0.5117 -0.4531 -1.0070
 1418TIP3   OH228448   4.097   6.364  18.220  0.4218 -0.3771  0.2043
 1418TIP3    H128449   4.157   6.435  18.197  0.5542 -0.1863  1.0826
 1418TIP3    H228450   4.011   6.406  18.224  0.5573 -0.1674  1.1193
 1419TIP3   OH228451   0.034   2.546  20.595 -0.4810 -0.0413 -0.1062
 1419TIP3    H128452   0.079   2.468  20.628 -1.4022 -2.1756 -3.4257
 1419TIP3    H228453  -0.057   2.534  20.621 -0.3532  0.7525  0.7199
 1420TIP3   OH228454   3.712   1.006  20.647 -0.0463 -0.4193 -0.4913
 1420TIP3    H128455   3.752   0.976  20.728  1.5189  1.2771 -0.5687
 1420TIP3    H228456   3.628   1.043  20.674  0.0961 -0.6096  0.2379
 1421TIP3   OH228457   3.702   2.083  18.289  0.2112  0.0405  0.1014
 1421TIP3    H128458   3.639   2.149  18.261  0.9060  1.3321  1.4926
 1421TIP3    H228459   3.784   2.107  18.245 -0.0420 -1.2817 -1.2141
 1422TIP3   OH228460   1.710   5.769  18.791 -0.2461  0.0050 -0.5199
 1422TIP3    H128461   1.628   5.747  18.748 -0.3745  0.5427 -0.5630
 1422TIP3    H228462   1.697   5.859  18.821  0.1607 -0.0666 -0.1275
 1423TIP3   OH228463   5.274   2.626  19.993  0.1553  0.0712 -0.2231
 1423TIP3    H128464   5.267   2.569  19.917 -2.9186 -0.6745  0.5177
 1423TIP3    H228465   5.366   2.620  20.018  1.2888  0.2502 -3.7147
 1424TIP3   OH228466   2.271   0.426  17.996  0.4119 -0.4446 -0.3617
 1424TIP3    H128467   2.189   0.460  17.960 -0.4232 -1.3576  0.6307
 1424TIP3    H228468   2.265   0.332  17.983  0.2477 -0.7767  1.7592
 1425TIP3   OH228469   4.359   5.947  19.971 -0.0063 -0.3713  0.2647
 1425TIP3    H128470   4.369   5.972  20.063 -0.1134 -0.7213  0.3741
 1425TIP3    H228471   4.344   5.853  19.974 -0.6495 -0.2830 -0.0717
 1426TIP3   OH228472   0.446   5.971  17.814  0.0214  0.1923  0.0602
 1426TIP3    H128473   0.476   5.905  17.752  1.9951  2.7893 -1.9560
 1426TIP3    H228474   0.375   6.016  17.768  0.0039  0.7417  0.6104
 1427TIP3   OH228475   0.741   2.086  18.724 -0.3876 -0.1156 -0.7144
 1427TIP3    H128476   0.741   2.181  18.732  0.4877  0.0393 -2.1257
 1427TIP3    H228477   0.781   2.069  18.638  1.6811 -1.7995  0.4698
 1428TIP3   OH228478   0.647   3.166  18.113 -0.1228 -0.0889  0.0462
 1428TIP3    H128479   0.605   3.084  18.141 -0.6240 -0.2797 -1.1972
 1428TIP3    H228480   0.701   3.141  18.038 -0.1380  0.6811 -0.2297
 1429TIP3   OH228481   0.535   1.508  20.356  0.6046 -0.3006  0.0721
 1429TIP3    H128482   0.482   1.538  20.281  0.0330 -0.5028  0.3883
 1429TIP3    H228483   0.591   1.582  20.377 -1.3906  0.9256  1.4050
 1430TIP3   OH228484   1.864   2.919  19.827  0.1883  0.3592 -0.2147
 1430TIP3    H128485   1.801   2.921  19.899  0.8949  0.7060  0.4128
 1430TIP3    H228486   1.937   2.972  19.858  0.6514  0.2396 -1.0626
 1431TIP3   OH228487   0.015   1.551  18.373 -0.4333 -0.6629 -0.0845
 1431TIP3    H128488   0.029   1.490  18.301  1.1531 -1.4248  0.8196
 1431TIP3    H228489  -0.080   1.552  18.385 -0.5726 -2.1724 -0.7755
 1432TIP3   OH228490   1.586   1.045  20.235 -0.8974  0.3746 -0.3715
 1432TIP3    H128491   1.604   1.034  20.142 -1.4850  1.3665 -0.6121
 1432TIP3    H228492   1.639   1.121  20.261 -0.5977 -0.0059  0.1489
 1433TIP3   OH228493   5.206   2.927  18.868  0.1583  0.0852 -0.5795
 1433TIP3    H128494   5.272   2.876  18.822  0.5770  0.9549 -0.9562
 1433TIP3    H228495   5.174   2.990  18.803 -0.0676  0.5624 -0.0147
 1434TIP3   OH228496   1.589   3.374  19.409  0.1996  0.2451 -0.2331
 1434TIP3    H128497   1.631   3.373  19.323  2.1398  0.4249  0.6448
 1434TIP3    H228498   1.587   3.282  19.436 -0.1423  0.2169 -0.3577
 1435TIP3   OH228499   0.542   1.432  19.090  0.6842  0.0946  0.4717
 1435TIP3    H128500   0.489   1.364  19.049  2.3217 -1.1436  0.2927
 1435TIP3    H228501   0.490   1.462  19.164  0.3623 -2.2227  1.2878
 1436TIP3   OH228502   2.445   5.543  19.522 -0.2126 -0.4899  0.1547
 1436TIP3    H128503   2.359   5.583  19.510  0.6963  1.8859  1.0042
 1436TIP3    H228504   2.430   5.472  19.584 -1.4913  0.1339  0.5915
 1437TIP3   OH228505   3.234   5.919  17.688  0.4433  0.2263  1.2344
 1437TIP3    H128506   3.220   5.983  17.758 -1.1975  0.9483  0.2955
 1437TIP3    H228507   3.263   5.970  17.613 -1.7208  0.0744  0.2082
 1438TIP3   OH228508   3.397   4.359  20.618 -0.0134  0.3527  0.2168
 1438TIP3    H128509   3.473   4.335  20.565 -0.5410  0.9687 -0.8531
 1438TIP3    H228510   3.341   4.282  20.618 -0.6951  0.8094 -1.3900
 1439TIP3   OH228511   1.938   0.958  17.880  0.5174 -0.3013  0.2721
 1439TIP3    H128512   2.026   0.931  17.906 -0.1784 -2.8572  0.2036
 1439TIP3    H228513   1.921   0.911  17.799 -0.3911  1.3106 -0.5244
 1440TIP3   OH228514   0.226   0.332  19.819  0.3825  0.5577  0.6378
 1440TIP3    H128515   0.199   0.243  19.798  1.3868  0.0708  1.3383
 1440TIP3    H228516   0.159   0.387  19.778 -1.2809 -0.5518  1.7489
 1441TIP3   OH228517   3.870   0.956  17.887 -0.0814 -0.1185  0.5113
 1441TIP3    H128518   3.937   0.948  17.819  0.9191 -0.1148  1.4490
 1441TIP3    H228519   3.828   1.040  17.870  2.6800  1.7514  1.9859
 1442TIP3   OH228520   5.481   4.655  20.400  0.0931  0.4971 -0.2614
 1442TIP3    H128521   5.476   4.560  20.393 -0.9124  0.5530 -0.3582
 1442TIP3    H228522   5.482   4.685  20.309 -1.2290  0.6520 -0.2368
 1443TIP3   OH228523   4.647   4.690  18.177  0.3369 -0.3210  0.0539
 1443TIP3    H128524   4.712   4.709  18.245 -0.2686  1.2404  0.2354
 1443TIP3    H228525   4.602   4.611  18.208  1.3420 -0.7307  0.5073
 1444TIP3   OH228526   0.948   5.771  19.954  0.1760 -0.6251 -0.0098
 1444TIP3    H128527   0.988   5.684  19.953 -0.2490 -0.8280  0.2299
 1444TIP3    H228528   0.866   5.760  19.906  0.1000 -0.3696  0.0610
 1445TIP3   OH228529   1.098   0.743  17.842 -0.5027  0.0313 -0.3351
 1445TIP3    H128530   1.124   0.651  17.835  0.5243  0.2363  0.5048
 1445TIP3    H228531   1.032   0.745  17.912 -0.3517 -0.0331 -0.1904
 1446TIP3   OH228532   5.145   4.252  18.885  0.1563 -0.0123 -0.7644
 1446TIP3    H128533   5.204   4.202  18.942 -1.2064  0.3865  1.0862
 1446TIP3    H228534   5.178   4.342  18.891  1.4324 -0.3023 -2.5563
 1447TIP3   OH228535   5.120   2.614  18.132  0.6947  0.1709  0.5286
 1447TIP3    H128536   5.031   2.587  18.111  0.9171  0.0504 -0.2933
 1447TIP3    H228537   5.119   2.709  18.122  0.3536  0.3117  1.7357
 1448TIP3   OH228538   3.968   0.299  18.446  0.0643 -0.0472 -0.6534
 1448TIP3    H128539   3.998   0.310  18.536  0.9812 -0.6085 -0.8783
 1448TIP3    H228540   4.001   0.213  18.420 -0.9765 -0.2900 -1.2263
 1449TIP3   OH228541   4.253   5.574  20.804 -0.7563 -0.1396  0.0271
 1449TIP3    H128542   4.233   5.585  20.897  2.0623 -1.4287  0.8930
 1449TIP3    H228543   4.178   5.526  20.769 -2.0167  0.6440  1.5185
 1450TIP3   OH228544   5.053   0.517  19.065  0.3839 -0.1147  0.3643
 1450TIP3    H128545   4.972   0.506  19.114 -0.6990 -0.8172 -1.4523
 1450TIP3    H228546   5.025   0.521  18.973  2.4163 -0.4565 -0.3321
 1451TIP3   OH228547   4.917   0.488  20.497  0.9422 -0.6116  0.4485
 1451TIP3    H128548   4.892   0.580  20.508  0.6750 -0.3231 -2.1245
 1451TIP3    H228549   4.868   0.441  20.565 -1.6801  0.7313 -0.3897
 1452TIP3   OH228550   4.526   2.527  18.478 -0.6147 -0.0408  0.0271
 1452TIP3    H128551   4.467   2.505  18.550  0.5617 -0.0052  1.0445
 1452TIP3    H228552   4.612   2.493  18.507  0.3415  1.9285 -0.3349
 1453TIP3   OH228553   0.078   4.394  18.477  0.1462  0.5876 -1.0839
 1453TIP3    H128554   0.131   4.462  18.437  0.9827  0.4718 -0.2072
 1453TIP3    H228555   0.134   4.355  18.543 -0.4065 -0.7882 -1.3890
 1454TIP3   OH228556   2.167   0.027  17.393 -0.3419  0.0567 -0.2935
 1454TIP3    H128557   2.199   0.109  17.357 -1.4637  1.0283  0.8001
 1454TIP3    H228558   2.243  -0.012  17.435 -0.2748  1.8020  1.3543
 1455TIP3   OH228559   5.332   4.111  19.019  0.0638  0.1095  0.2888
 1455TIP3    H128560   5.418   4.120  18.978 -0.6107 -0.5962 -1.3851
 1455TIP3    H228561   5.347   4.130  19.111  1.5131  2.6807 -0.3920
 1456TIP3   OH228562   6.143   6.605  19.987  0.3913  0.4320  0.1060
 1456TIP3    H128563   6.211   6.645  19.933  0.5979  0.3689  0.3168
 1456TIP3    H228564   6.169   6.625  20.077 -0.0759  0.7377  0.1743
 1457TIP3   OH228565   1.889   0.298  18.011 -0.1582 -0.0914 -0.2108
 1457TIP3    H128566   1.948   0.309  18.085 -0.1890  0.1952 -0.2281
 1457TIP3    H228567   1.804   0.327  18.044 -0.1074  0.3334 -0.4564
 1458TIP3   OH228568   5.447   3.379  20.483 -0.4168  0.5207 -0.5876
 1458TIP3    H128569   5.360   3.340  20.477  0.2060 -0.9650 -0.3650
 1458TIP3    H228570   5.431   3.470  20.509 -1.9023  0.3158 -0.7195
 1459TIP3   OH228571   1.209   3.302  17.564 -0.6383 -0.4011  0.0721
 1459TIP3    H128572   1.231   3.364  17.633 -1.8607  1.0106 -0.7606
 1459TIP3    H228573   1.290   3.291  17.514 -0.2673  0.1018  0.5594
 1460TIP3   OH228574   2.043   6.694  18.914  0.0168  1.0080 -0.5464
 1460TIP3    H128575   1.978   6.730  18.854  0.3767 -0.2795 -1.7655
 1460TIP3    H228576   2.126   6.705  18.868  0.2915 -0.0274 -0.3190
 1461TIP3   OH228577   3.974   6.067  19.710  0.2551  0.4896 -0.5231
 1461TIP3    H128578   4.015   6.002  19.768 -0.4181 -1.6116 -2.2564
 1461TIP3    H228579   4.043   6.094  19.650  0.3011  0.6567 -0.3945
 1462TIP3   OH228580   6.508   1.500  20.345  0.1272  0.3615  0.2826
 1462TIP3    H128581   6.468   1.417  20.370 -0.4946  0.5495 -0.0799
 1462TIP3    H228582   6.601   1.488  20.364 -0.0856 -0.1019  1.0655
 1463TIP3   OH228583   5.136   6.206  19.095 -0.4094 -0.2034 -0.1307
 1463TIP3    H128584   5.083   6.236  19.021 -0.7030 -0.7134 -0.1326
 1463TIP3    H228585   5.093   6.244  19.172 -0.8580 -0.7261 -0.1206
 1464TIP3   OH228586   5.000   5.381  18.450  0.0601  0.6327 -0.3092
 1464TIP3    H128587   4.963   5.413  18.367  1.3035  0.5547 -0.9284
 1464TIP3    H228588   4.996   5.286  18.443 -1.3891  0.6054  0.4803
 1465TIP3   OH228589   6.594   3.905  19.321 -0.2560 -0.4448 -0.5309
 1465TIP3    H128590   6.666   3.958  19.355  0.0426 -1.2645  0.1653
 1465TIP3    H228591   6.573   3.845  19.393 -1.7916 -0.0809 -0.6265
 1466TIP3   OH228592   2.594   3.760  18.504  0.0708 -0.0921  0.1277
 1466TIP3    H128593   2.564   3.688  18.559  0.7881 -0.1420  0.4610
 1466TIP3    H228594   2.685   3.738  18.484  0.4619  0.9719  0.6706
 1467TIP3   OH228595   2.675   1.222  20.236  0.2958  0.5071 -0.0713
 1467TIP3    H128596   2.660   1.292  20.173  1.8376  0.1791 -0.8420
 1467TIP3    H228597   2.733   1.260  20.302  1.0735 -0.0114 -0.4490
 1468TIP3   OH228598   4.139   6.068  19.300 -0.8870  0.7165  0.6669
 1468TIP3    H128599   4.107   6.109  19.220 -1.5510 -0.9456  0.0258
 1468TIP3    H228600   4.081   5.993  19.313 -0.1439  0.3592  2.1358
 1469TIP3   OH228601   0.503   3.432  18.069  0.5281 -0.0355  0.4105
 1469TIP3    H128602   0.455   3.420  17.987  1.7479  0.4610 -0.4006
 1469TIP3    H228603   0.579   3.375  18.062  0.7131  0.1072  1.1432
 1470TIP3   OH228604   1.327   3.287  19.163 -0.1110  0.1634  0.0309
 1470TIP3    H128605   1.383   3.357  19.131  0.2015  0.0898  0.4167
 1470TIP3    H228606   1.242   3.302  19.120  0.4997 -0.3532 -1.4188
 1471TIP3   OH228607   2.628   5.341  18.248 -0.7353 -0.2360 -0.1475
 1471TIP3    H128608   2.605   5.433  18.240 -0.0831 -0.0158  0.4643
 1471TIP3    H228609   2.704   5.330  18.190 -1.0109 -0.4742 -0.4734
 1472TIP3   OH228610   2.861   1.449  20.293 -0.3261  0.5493  0.0310
 1472TIP3    H128611   2.911   1.518  20.338 -1.6362  1.4009  0.2539
 1472TIP3    H228612   2.927   1.396  20.249  0.8387  1.0447  1.1037
 1473TIP3   OH228613   4.407   4.595  17.668 -0.3786  0.0135  0.1326
 1473TIP3    H128614   4.332   4.564  17.617 -1.0146  2.7103 -0.7464
 1473TIP3    H228615   4.369   4.623  17.751 -0.3979  1.3052 -0.2814
 1474TIP3   OH228616   2.002   3.151  19.887  0.0330  0.2108  0.0966
 1474TIP3    H128617   1.946   3.218  19.848 -0.3306 -0.2797 -0.2333
 1474TIP3    H228618   1.984   3.156  19.981 -0.7603 -0.1117 -0.0327
 1475TIP3   OH228619   0.677   2.633  17.892  0.1075  0.6137 -0.5671
 1475TIP3    H128620   0.673   2.662  17.984 -0.9887  0.6895 -0.6300
 1475TIP3    H228621   0.628   2.699  17.844  0.0887  0.2008 -1.1197
 1476TIP3   OH228622   4.227   1.987  20.884 -0.2026 -0.1912 -0.2514
 1476TIP3    H128623   4.311   1.951  20.912  1.0978  1.5415 -1.6763
 1476TIP3    H228624   4.249   2.045  20.811 -2.3436  1.9776  0.6718
 1477TIP3   OH228625   0.024   0.181  18.692 -0.6248  0.6230 -0.3506
 1477TIP3    H128626   0.109   0.190  18.736 -0.6414 -0.3948 -0.0815
 1477TIP3    H228627   0.041   0.209  18.602  0.0145  0.3972 -0.3110
 1478TIP3   OH228628   4.217   2.549  19.832  0.5370 -0.3768  0.1897
 1478TIP3    H128629   4.286   2.597  19.878  0.0546  0.5853 -0.0755
 1478TIP3    H228630   4.255   2.462  19.818  0.6898 -0.7284  2.4120
 1479TIP3   OH228631   0.943   4.891  20.382 -0.2726  0.2641 -0.2015
 1479TIP3    H128632   0.914   4.982  20.381 -0.1146  0.3138 -0.4363
 1479TIP3    H228633   0.866   4.841  20.408 -0.1187  0.5491  0.8263
 1480TIP3   OH228634   1.376   5.420  19.589 -0.2146  0.6771  0.2712
 1480TIP3    H128635   1.341   5.503  19.622 -1.3054 -0.0101  0.8991
 1480TIP3    H228636   1.463   5.413  19.629 -0.0404  1.5853  0.0792
 1481TIP3   OH228637   6.379   5.087  19.198 -0.3467  0.2491 -0.0225
 1481TIP3    H128638   6.468   5.057  19.180 -0.7079 -0.4286 -0.7629
 1481TIP3    H228639   6.326   5.047  19.129 -1.2406  0.5654  0.4650
 1482TIP3   OH228640   3.401   3.885  19.297  0.1485  0.4406  0.3742
 1482TIP3    H128641   3.315   3.892  19.256  0.9172 -2.8313 -2.2424
 1482TIP3    H228642   3.385   3.833  19.376 -0.2621 -0.4522 -0.2797
 1483TIP3   OH228643   2.821   2.829  19.769 -0.6234 -0.1285 -0.1974
 1483TIP3    H128644   2.895   2.874  19.729 -1.8759  0.7831 -1.6026
 1483TIP3    H228645   2.814   2.747  19.720 -0.0177 -0.6338  0.5390
 1484TIP3   OH228646   2.504   0.764  19.016 -0.3725 -0.2795 -0.8128
 1484TIP3    H128647   2.451   0.802  19.087  0.9193  0.9063 -0.4428
 1484TIP3    H228648   2.451   0.692  18.983 -1.3152 -0.4381  0.9239
 1485TIP3   OH228649   0.782   6.271  20.071 -0.1969  0.4490 -0.0883
 1485TIP3    H128650   0.848   6.298  20.136  1.4751 -1.4153 -0.9096
 1485TIP3    H228651   0.772   6.177  20.085 -0.6800  0.2270 -1.7874
 1486TIP3   OH228652   1.987   2.584  20.314 -0.2283 -0.6325 -0.1565
 1486TIP3    H128653   2.068   2.589  20.263 -0.7955  0.6765 -0.9835
 1486TIP3    H228654   1.972   2.673  20.345 -1.3162 -0.8634  0.0412
 1487TIP3   OH228655   1.913   1.620  20.088 -0.4324  0.1336  0.7006
 1487TIP3    H128656   1.967   1.628  20.009 -0.5407 -1.9852  0.3502
 1487TIP3    H228657   1.964   1.664  20.156  1.7951 -1.7738  0.3786
 1488TIP3   OH228658   0.678   6.654  20.819 -0.2627 -0.3784  0.7264
 1488TIP3    H128659   0.606   6.710  20.792 -0.2153  0.2109  1.7689
 1488TIP3    H228660   0.753   6.712  20.826  0.7043 -1.2198 -1.7054
 1489TIP3   OH228661   3.391   1.081  17.588 -0.4519 -0.4797 -0.3028
 1489TIP3    H128662   3.424   1.109  17.673  0.7331 -1.7423 -0.3044
 1489TIP3    H228663   3.380   1.162  17.538  1.0341  0.1142  0.2951
 1490TIP3   OH228664   1.574   1.285  19.823  0.2210  0.4030  0.2715
 1490TIP3    H128665   1.501   1.244  19.871  0.6549  0.5858  1.1093
 1490TIP3    H228666   1.533   1.320  19.744 -0.6694  0.7571  0.8648
 1491TIP3   OH228667   3.417   3.591  20.786  0.4578 -0.4905 -0.0622
 1491TIP3    H128668   3.412   3.615  20.879  1.1305  1.1434 -0.4188
 1491TIP3    H228669   3.510   3.596  20.765  0.1663  0.6267 -1.1772
 1492TIP3   OH228670   4.950   3.618  19.511  0.8523  0.0377 -0.1061
 1492TIP3    H128671   5.007   3.673  19.565  1.4325 -0.1706 -0.4981
 1492TIP3    H228672   4.996   3.534  19.505  0.6263 -0.0508 -0.6398
 1493TIP3   OH228673   0.740   0.690  18.700 -0.3093 -0.0656  0.1004
 1493TIP3    H128674   0.718   0.636  18.777 -0.5659 -3.3541 -2.0725
 1493TIP3    H228675   0.657   0.703  18.656  0.0406  0.4771 -0.4052
 1494TIP3   OH228676   5.359   3.619  19.475 -0.0369  0.0004 -0.0219
 1494TIP3    H128677   5.385   3.546  19.419 -1.0411 -0.5106  0.1403
 1494TIP3    H228678   5.299   3.671  19.421  1.1456  1.0844 -0.3509
 1495TIP3   OH228679   6.258   1.860  17.476 -0.2318  0.3839  0.2494
 1495TIP3    H128680   6.286   1.904  17.557 -0.1156  2.1123 -0.6997
 1495TIP3    H228681   6.222   1.776  17.506 -0.3680  1.0628  2.1176
 1496TIP3   OH228682   4.188   6.545  19.901 -0.7653  0.3416 -0.2404
 1496TIP3    H128683   4.106   6.568  19.857 -0.4004 -0.7637 -1.5478
 1496TIP3    H228684   4.255   6.554  19.833 -0.5138 -3.9716 -0.8527
 1497TIP3   OH228685   6.493   2.280  19.325 -0.4225  0.3604 -0.6718
 1497TIP3    H128686   6.538   2.360  19.352 -0.0278 -0.2452  0.5392
 1497TIP3    H228687   6.529   2.212  19.382 -1.7574 -0.4250 -0.7208
 1498TIP3   OH228688   1.129   2.972  18.725 -1.0126 -0.0606  0.2764
 1498TIP3    H128689   1.186   3.011  18.791 -0.1853  2.3037 -1.6811
 1498TIP3    H228690   1.040   2.995  18.754 -0.6078  2.1320 -0.0066
 1499TIP3   OH228691   5.193   4.019  20.153  0.3274  0.5521  0.5593
 1499TIP3    H128692   5.098   4.009  20.160  0.3297  0.4897  0.4990
 1499TIP3    H228693   5.229   3.950  20.210  0.3837 -1.5858 -1.8903
 1500TIP3   OH228694   5.975   5.575  18.022  0.2579 -0.2075 -0.6601
 1500TIP3    H128695   5.994   5.639  18.090  0.0491  1.4594 -2.1042
 1500TIP3    H228696   5.880   5.582  18.008  0.3486 -0.2841 -1.3515
 1501TIP3   OH228697   4.661   1.815  19.907  0.1324 -0.6862  0.5167
 1501TIP3    H128698   4.637   1.907  19.906  1.3893 -0.2341  3.1717
 1501TIP3    H228699   4.691   1.797  19.818  1.3229  1.9153  0.3091
 1502TIP3   OH228700   4.491   4.002  17.117  0.3796  0.0792  0.1377
 1502TIP3    H128701   4.551   3.929  17.131 -1.2053 -1.0660  1.2489
 1502TIP3    H228702   4.499   4.055  17.197  0.9967  0.7534 -0.3591
 1503TIP3   OH228703   2.498   3.149  18.580 -0.6462 -0.0811  0.2160
 1503TIP3    H128704   2.410   3.122  18.607 -0.1339 -2.1816  0.0217
 1503TIP3    H228705   2.539   3.067  18.550  1.0928  0.9959 -0.4771
 1504TIP3   OH228706   0.006   3.034  18.205  0.0796 -0.3032 -0.8632
 1504TIP3    H128707  -0.008   2.991  18.289 -1.0903  0.7317 -0.4887
 1504TIP3    H228708   0.083   2.992  18.169  0.6927 -0.6847  0.7905
 1505TIP3   OH228709   2.282   4.402  19.580 -0.2453  0.4150 -0.0645
 1505TIP3    H128710   2.266   4.315  19.543  1.6224 -0.6975  1.5393
 1505TIP3    H228711   2.256   4.394  19.672  4.5374 -0.1728  1.5047
 1506TIP3   OH228712   5.314   6.612  18.592  0.3942 -0.5774 -0.2908
 1506TIP3    H128713   5.353   6.684  18.542 -0.7121  1.7056  1.8876
 1506TIP3    H228714   5.232   6.593  18.545  1.5145 -1.7350 -1.8803
 1507TIP3   OH228715   2.988   5.426  17.647  0.4368  0.4355 -0.1995
 1507TIP3    H128716   2.901   5.445  17.612 -0.8472 -1.5089  1.6901
 1507TIP3    H228717   3.017   5.349  17.598  0.5879  0.3878 -0.0361
 1508TIP3   OH228718   6.507   2.716  20.460  0.3200  0.0281  0.7039
 1508TIP3    H128719   6.480   2.649  20.397  1.5900 -0.9866  1.1965
 1508TIP3    H228720   6.503   2.672  20.545  1.3852  0.4934  1.0114
 1509TIP3   OH228721   0.631   5.704  19.091  0.3497  0.0048  0.1495
 1509TIP3    H128722   0.719   5.668  19.095  0.4895  0.1056 -1.5088
 1509TIP3    H228723   0.582   5.654  19.156  1.6342  0.0104  1.1539
 1510TIP3   OH228724   4.357   4.919  19.695 -0.2800  0.1879  0.0133
 1510TIP3    H128725   4.283   4.934  19.636  0.3168  2.2765 -0.2937
 1510TIP3    H228726   4.324   4.857  19.760 -1.1730 -1.6318 -2.0742
 1511TIP3   OH228727   5.520   2.881  18.402  0.6252  0.1948 -0.5264
 1511TIP3    H128728   5.523   2.975  18.419  2.2519 -0.0700  0.9912
 1511TIP3    H228729   5.515   2.874  18.307  1.6352  1.8301 -0.7333
 1512TIP3   OH228730   4.422   0.849  17.353 -0.2825 -0.0082 -0.3945
 1512TIP3    H128731   4.368   0.883  17.282  0.2042  2.6320  0.4201
 1512TIP3    H228732   4.373   0.869  17.433  1.6320  2.1784  0.3402
 1513TIP3   OH228733   3.424   5.247  18.618  0.3714 -0.4798  0.0620
 1513TIP3    H128734   3.436   5.332  18.574  3.9116 -0.7023  0.3005
 1513TIP3    H228735   3.363   5.199  18.562 -1.1293  1.8977 -0.4857
 1514TIP3   OH228736   3.611   4.949  19.163  0.2947  0.6439  0.4017
 1514TIP3    H128737   3.651   4.878  19.213 -1.3266 -0.8386 -0.2743
 1514TIP3    H228738   3.636   4.931  19.072 -0.5056  0.6315  0.1713
 1515TIP3   OH228739   4.729   2.747  19.714  0.7334  0.0704  0.2214
 1515TIP3    H128740   4.793   2.728  19.645 -1.7167 -0.6533 -2.0183
 1515TIP3    H228741   4.728   2.842  19.721  1.7241  0.1071 -0.0192
 1516TIP3   OH228742   6.313   5.822  20.443  0.5929  0.4377  0.1554
 1516TIP3    H128743   6.224   5.788  20.437  0.3365  1.2388 -0.7319
 1516TIP3    H228744   6.307   5.894  20.506  0.6666  0.3444  0.2696
 1517TIP3   OH228745   1.794   0.503  20.326 -0.0898  0.1835 -0.1952
 1517TIP3    H128746   1.762   0.590  20.304  1.4829  0.9241  0.2771
 1517TIP3    H228747   1.793   0.500  20.421  1.9988  0.6104 -0.0923
 1518TIP3   OH228748   0.258   4.314  18.675  0.5885  0.0050 -0.8558
 1518TIP3    H128749   0.304   4.240  18.636  0.1433 -0.7482  0.0072
 1518TIP3    H228750   0.241   4.286  18.765  0.5721  1.2348 -0.4650
 1519TIP3   OH228751   3.525   4.029  19.608 -0.0498 -0.0857 -0.4076
 1519TIP3    H128752   3.439   4.060  19.582 -0.8515 -1.2181  0.7833
 1519TIP3    H228753   3.560   4.099  19.663  0.4231  0.9934 -2.0053
 1520TIP3   OH228754   5.313   5.119  19.889 -0.3392  0.0148  0.6676
 1520TIP3    H128755   5.386   5.180  19.879 -0.7274  0.5771  1.2542
 1520TIP3    H228756   5.261   5.132  19.809 -0.3959  0.4165  0.7677
 1521TIP3   OH228757   6.630   5.811  17.290  0.0605 -0.0259  0.1917
 1521TIP3    H128758   6.682   5.835  17.213  0.8131  0.5747  0.8761
 1521TIP3    H228759   6.560   5.877  17.293 -0.2251 -0.3048 -0.2148
 1522TIP3   OH228760   3.578   6.241  20.828 -0.1129 -0.1666  0.5489
 1522TIP3    H128761   3.636   6.235  20.752 -0.5223 -0.9405  0.2885
 1522TIP3    H228762   3.591   6.330  20.861  2.0157 -0.6432  1.1508
 1523TIP3   OH228763   0.729   3.926  19.696  0.3941 -0.1308  0.3958
 1523TIP3    H128764   0.636   3.909  19.708  0.0173  2.0249  0.9985
 1523TIP3    H228765   0.771   3.885  19.772 -0.3449  0.8599  1.3570
 1524TIP3   OH228766   4.772   3.811  20.830  0.2715 -0.1324 -0.8338
 1524TIP3    H128767   4.686   3.843  20.858  0.9990  1.1208  0.0993
 1524TIP3    H228768   4.806   3.765  20.907  1.0848  0.7871 -0.6235
 1525TIP3   OH228769   6.299   5.923  18.005 -0.0990 -1.1146 -0.0816
 1525TIP3    H128770   6.271   5.833  17.987 -0.2868 -1.1007  0.1242
 1525TIP3    H228771   6.385   5.914  18.046 -1.3965 -1.4375  2.8670
 1526TIP3   OH228772   6.313   5.443  19.004  0.4313 -0.1738  0.5456
 1526TIP3    H128773   6.225   5.468  18.978  0.3324 -0.8430  0.2299
 1526TIP3    H228774   6.352   5.524  19.036 -0.4072  0.0534  1.0062
 1527TIP3   OH228775   2.294   3.834  19.988 -0.1068  0.2876  0.0315
 1527TIP3    H128776   2.250   3.868  19.910 -0.0103  1.0251  0.2913
 1527TIP3    H228777   2.305   3.740  19.970 -0.1978  0.4224 -0.7851
 1528TIP3   OH228778   2.517   2.184  20.423 -0.0742  0.0682  0.1095
 1528TIP3    H128779   2.555   2.258  20.471 -0.2981  0.1169  0.2087
 1528TIP3    H228780   2.566   2.182  20.340 -1.0149  1.1903 -0.4953
 1529TIP3   OH228781   4.613   5.428  17.968 -0.4361  0.2174 -0.1086
 1529TIP3    H128782   4.537   5.444  18.023 -0.7002  1.5377 -0.8168
 1529TIP3    H228783   4.576   5.410  17.881  0.0403  0.4049 -0.3535
 1530TIP3   OH228784   0.389   6.199  18.171 -0.0166  0.5075 -0.0929
 1530TIP3    H128785   0.369   6.287  18.202 -1.6162  0.4954 -0.9763
 1530TIP3    H228786   0.425   6.212  18.083 -0.4203  0.2766 -0.2932
 1531TIP3   OH228787   0.485   2.004  19.047  0.3183  0.0300 -0.0829
 1531TIP3    H128788   0.495   2.099  19.046  0.4512  0.0166 -0.0269
 1531TIP3    H228789   0.476   1.979  18.955  0.1379  0.1117 -0.0875
 1532TIP3   OH228790   1.815   5.348  18.404 -0.0689 -0.1968  0.4961
 1532TIP3    H128791   1.813   5.253  18.391 -0.2191 -0.1289  0.0037
 1532TIP3    H228792   1.895   5.364  18.453  0.4315 -0.4760 -0.2231
 1533TIP3   OH228793   0.926   5.978  17.090 -0.3601 -0.0834 -0.4509
 1533TIP3    H128794   0.910   6.070  17.114 -1.3149 -0.2983 -0.2396
 1533TIP3    H228795   1.017   5.963  17.114 -0.4879  0.5166  0.4728
 1534TIP3   OH228796   6.603   1.882  19.100 -0.2262  0.8481 -1.1764
 1534TIP3    H128797   6.587   1.798  19.143 -0.7732 -0.2690 -3.4073
 1534TIP3    H228798   6.605   1.946  19.171 -1.5155 -0.8171  0.4404
 1535TIP3   OH228799   5.573   4.087  20.872 -0.7321  0.7999 -0.1169
 1535TIP3    H128800   5.621   4.130  20.943  0.2420 -1.3361  0.6078
 1535TIP3    H228801   5.516   4.155  20.837 -0.5284  2.1996  2.0672
 1536TIP3   OH228802   5.858   1.851  19.481 -0.4624 -0.3015  0.4811
 1536TIP3    H128803   5.803   1.918  19.441  0.3142  0.0204 -0.0847
 1536TIP3    H228804   5.899   1.894  19.556  0.6261  0.1145 -0.3252
 1537TIP3   OH228805   6.581   4.747  18.848  0.1717  0.4647 -0.4446
 1537TIP3    H128806   6.665   4.718  18.884  0.1844  1.2002  0.1332
 1537TIP3    H228807   6.548   4.810  18.911 -0.6517  0.4565 -0.8532
 1538TIP3   OH228808   0.120   5.983  19.215  0.0766 -0.0610  0.3700
 1538TIP3    H128809   0.090   6.074  19.220 -0.0236  0.0187 -1.1689
 1538TIP3    H228810   0.158   5.965  19.302 -1.1349  0.9911  1.1537
 1539TIP3   OH228811   3.095   5.050  19.124  0.2162 -0.0457  0.0774
 1539TIP3    H128812   3.026   5.072  19.187 -0.6904 -0.1025 -0.8661
 1539TIP3    H228813   3.050   5.047  19.040  0.9767 -2.0403 -0.3131
 1540TIP3   OH228814   0.484   4.085  19.640  0.5676 -0.5816  0.0571
 1540TIP3    H128815   0.405   4.031  19.630  1.5877 -2.3863  1.0466
 1540TIP3    H228816   0.457   4.173  19.614 -1.4562 -1.3661 -0.7162
 1541TIP3   OH228817   5.527   3.564  18.666 -0.0868 -0.2125  0.4166
 1541TIP3    H128818   5.530   3.491  18.728  0.9490 -1.9057 -1.5139
 1541TIP3    H228819   5.606   3.615  18.686 -1.2213  0.9269  2.2990
 1542TIP3   OH228820   3.577   0.753  17.991  0.1920  0.1641  0.2280
 1542TIP3    H128821   3.495   0.791  18.024 -0.3918  1.1368 -2.0773
 1542TIP3    H228822   3.564   0.750  17.896  2.3832 -0.8204 -0.0904
 1543TIP3   OH228823   5.195   4.056  18.554  0.0529  0.3130  0.3770
 1543TIP3    H128824   5.141   4.008  18.617  0.3042 -0.8133 -0.2325
 1543TIP3    H228825   5.259   3.991  18.524 -0.6686  0.5231 -1.7742
 1544TIP3   OH228826   2.166   2.218  18.242 -0.3616  0.7159 -0.3268
 1544TIP3    H128827   2.110   2.181  18.310 -0.0476  1.0439  0.1193
 1544TIP3    H228828   2.135   2.307  18.230 -0.6934  0.5256 -0.9294
 1545TIP3   OH228829   4.634   6.193  20.214 -0.3013  0.3040 -0.1597
 1545TIP3    H128830   4.558   6.239  20.250  0.0445  0.2981  0.5974
 1545TIP3    H228831   4.657   6.242  20.136  0.3714  1.7581  0.9063
 1546TIP3   OH228832   0.442   4.908  20.476  0.4007 -0.7186 -0.0203
 1546TIP3    H128833   0.372   4.884  20.537  0.6486  1.0574  1.0102
 1546TIP3    H228834   0.431   4.846  20.403 -1.8387 -0.9181  0.3958
 1547TIP3   OH228835   1.135   4.419  20.566 -0.0262 -0.5495  0.3454
 1547TIP3    H128836   1.171   4.462  20.643  1.3631 -1.4621  0.2409
 1547TIP3    H228837   1.201   4.430  20.498 -0.5810 -1.0134 -0.2927
 1548TIP3   OH228838   1.435   4.342  20.720  0.2448 -0.1521  0.1200
 1548TIP3    H128839   1.464   4.257  20.752  1.7171 -0.2606 -1.4125
 1548TIP3    H228840   1.503   4.403  20.749 -1.0895  0.6555  1.7257
 1549TIP3   OH228841   5.313   2.523  18.925 -0.1004 -0.7901 -0.4110
 1549TIP3    H128842   5.356   2.607  18.941  0.3032 -1.2728  1.1908
 1549TIP3    H228843   5.358   2.461  18.982 -0.5003 -2.0903 -1.4342
 1550TIP3   OH228844   5.894   4.350  20.138  0.1048  0.4222  0.2249
 1550TIP3    H128845   5.988   4.368  20.147  0.1092  1.2750 -1.2877
 1550TIP3    H228846   5.884   4.259  20.166  1.0058  0.9432  2.5108
 1551TIP3   OH228847   4.832   5.197  19.514  0.2629 -0.6263 -0.2141
 1551TIP3    H128848   4.788   5.133  19.458  0.9856  0.4055 -2.0271
 1551TIP3    H228849   4.762   5.256  19.543  0.1236 -0.1627 -1.4536
 1552TIP3   OH228850   5.795   0.375  19.099 -0.0698  0.0685 -1.0911
 1552TIP3    H128851   5.838   0.320  19.033 -0.8543 -0.8823 -0.8278
 1552TIP3    H228852   5.718   0.325  19.125  0.3831  0.2812  0.7689
 1553TIP3   OH228853   5.734   4.894  20.672  0.4954 -0.0653 -0.1396
 1553TIP3    H128854   5.747   4.818  20.616  0.7803  0.5005 -0.8536
 1553TIP3    H228855   5.704   4.858  20.755 -1.0130 -0.8333 -0.9841
 1554TIP3   OH228856   2.122   2.074  19.495 -0.0721  0.4584 -0.0648
 1554TIP3    H128857   2.027   2.086  19.496 -0.0316  1.2491 -2.1083
 1554TIP3    H228858   2.140   2.027  19.577 -2.0784  1.2055  0.8953
 1555TIP3   OH228859   3.168   4.135  17.237  0.1738 -0.3758 -0.0522
 1555TIP3    H128860   3.103   4.202  17.218  1.7278  1.2081 -0.0219
 1555TIP3    H228861   3.164   4.076  17.162 -1.9459 -0.8940  0.4189
 1556TIP3   OH228862   4.691   6.588  19.239 -0.3196 -0.0078 -0.1457
 1556TIP3    H128863   4.691   6.524  19.167 -2.1702 -0.3606  0.0935
 1556TIP3    H228864   4.694   6.534  19.318  0.2678  0.3105  0.0527
 1557TIP3   OH228865   6.131   6.409  19.692 -0.1962  0.1989  0.1008
 1557TIP3    H128866   6.041   6.442  19.683 -0.3374 -0.2933 -0.3834
 1557TIP3    H228867   6.145   6.403  19.786 -1.3269 -1.4328  0.2079
 1558TIP3   OH228868   1.384   1.430  18.631  0.3462 -0.2274  0.0951
 1558TIP3    H128869   1.359   1.450  18.721  1.0126 -0.8568  0.4331
 1558TIP3    H228870   1.337   1.349  18.611  1.8113 -1.2418  0.6226
 1559TIP3   OH228871   0.704   1.124  18.951  0.2831 -0.1322 -0.5135
 1559TIP3    H128872   0.765   1.198  18.955  0.3556 -0.1437 -1.2867
 1559TIP3    H228873   0.664   1.130  18.864 -0.5940 -0.3124 -0.1355
 1560TIP3   OH228874   1.355   4.834  17.279  0.3920 -0.1819  0.4692
 1560TIP3    H128875   1.417   4.781  17.329  0.2845 -0.3406  0.4325
 1560TIP3    H228876   1.408   4.872  17.209 -0.1738 -3.0888 -1.7044
 1561TIP3   OH228877   1.650   0.155  19.163 -0.1388 -0.0929  0.1780
 1561TIP3    H128878   1.692   0.075  19.195 -0.4591 -0.3468 -0.0252
 1561TIP3    H228879   1.707   0.226  19.191  0.0049 -0.3744  0.6005
 1562TIP3   OH228880   6.250   2.211  17.550  0.2074  0.2365  0.1683
 1562TIP3    H128881   6.262   2.139  17.611 -1.1864 -0.8366 -0.7696
 1562TIP3    H228882   6.259   2.171  17.463  1.3748  1.5808 -0.3754
 1563TIP3   OH228883   1.043   3.728  19.787  0.1571  0.2105 -0.0369
 1563TIP3    H128884   0.980   3.716  19.716 -0.3547  0.6283  0.3434
 1563TIP3    H228885   1.113   3.665  19.768  0.2438  0.6291 -1.1476
 1564TIP3   OH228886   3.580   0.605  20.360 -0.1882  0.5213 -0.0032
 1564TIP3    H128887   3.643   0.540  20.389  0.6777  1.4914  0.3581
 1564TIP3    H228888   3.507   0.554  20.325 -0.3442 -0.6446  1.9264
 1565TIP3   OH228889   0.253   3.835  19.740 -0.1519  0.0986 -0.1284
 1565TIP3    H128890   0.241   3.790  19.656 -0.4990 -0.1937  0.0712
 1565TIP3    H228891   0.337   3.803  19.773 -0.2779 -0.2113 -0.1059
 1566TIP3   OH228892   3.366   6.267  20.616  0.0528 -0.3061 -0.3918
 1566TIP3    H128893   3.422   6.209  20.565  1.0307 -0.4640  0.7961
 1566TIP3    H228894   3.399   6.259  20.705 -1.7283 -0.1955  0.3180
 1567TIP3   OH228895   2.468   1.371  19.587  0.1425 -0.3317  0.5021
 1567TIP3    H128896   2.377   1.342  19.591 -0.1686  0.0679 -1.9334
 1567TIP3    H228897   2.517   1.291  19.565 -0.2727  0.1338 -2.6486
 1568TIP3   OH228898   1.009   6.135  19.864 -0.0602  1.0681 -0.9320
 1568TIP3    H128899   0.990   6.044  19.840  2.5812  0.5314 -1.3137
 1568TIP3    H228900   0.980   6.142  19.955 -1.2722  0.1936 -1.2223
 1569TIP3   OH228901   3.084   4.350  20.547 -0.6637  0.0964 -0.3582
 1569TIP3    H128902   2.999   4.351  20.502  0.0814 -0.9200 -1.8961
 1569TIP3    H228903   3.101   4.257  20.562 -0.4693  0.3609  1.3167
 1570TIP3   OH228904   2.311   6.572  20.417 -0.2950  0.2419  0.1386
 1570TIP3    H128905   2.296   6.664  20.397 -2.3992  0.3094  1.6232
 1570TIP3    H228906   2.226   6.531  20.404 -0.1298 -0.9081  2.2509
 1571TIP3   OH228907   5.498   2.788  18.142  0.1067  0.5819 -0.4325
 1571TIP3    H128908   5.472   2.788  18.050  1.7270 -0.5663 -0.9202
 1571TIP3    H228909   5.577   2.735  18.146  0.3981  1.0544  1.5499
 1572TIP3   OH228910   1.843   6.386  19.259  0.0677 -0.3376  0.3109
 1572TIP3    H128911   1.918   6.357  19.207 -0.1744  0.1422 -0.3165
 1572TIP3    H228912   1.855   6.343  19.344  1.3120  0.1137  0.3829
 1573TIP3   OH228913   5.337   4.601  18.152  0.1609 -0.0938 -0.0027
 1573TIP3    H128914   5.377   4.688  18.146 -1.3231  0.6584  0.3799
 1573TIP3    H228915   5.389   4.555  18.217  0.7923  0.6066  0.0006
 1574TIP3   OH228916   5.377   3.901  18.391  0.1869 -0.0737 -0.2200
 1574TIP3    H128917   5.376   3.864  18.302 -1.7308  1.7606 -1.0425
 1574TIP3    H228918   5.470   3.906  18.414  0.7886  0.1431 -2.4673
 1575TIP3   OH228919   3.327   3.247  18.799 -0.3003  0.0151 -0.1228
 1575TIP3    H128920   3.351   3.248  18.892 -0.1840 -0.3139 -0.1491
 1575TIP3    H228921   3.353   3.334  18.767 -1.0346  0.4128  0.3234
 1576TIP3   OH228922   6.402   3.215  18.454  0.2655 -0.1811  0.0280
 1576TIP3    H128923   6.355   3.297  18.441 -0.0991 -0.2583  0.8272
 1576TIP3    H228924   6.454   3.205  18.374  1.5124  1.6044  0.5479
 1577TIP3   OH228925   2.274   3.556  19.964  0.2303  0.3032 -0.3288
 1577TIP3    H128926   2.299   3.468  19.991  2.2965  0.4857 -1.4494
 1577TIP3    H228927   2.214   3.586  20.033 -1.5722 -2.3971 -0.5596
 1578TIP3   OH228928   3.627   4.056  20.007 -0.3347 -0.3288 -0.1376
 1578TIP3    H128929   3.647   3.963  20.000 -0.9067 -0.5768  1.1011
 1578TIP3    H228930   3.712   4.098  20.021  0.1230 -0.4359 -2.3095
 1579TIP3   OH228931   1.404   6.602  19.178  0.2153 -0.5428  0.1303
 1579TIP3    H128932   1.436   6.685  19.212 -0.0587 -0.4649  0.2035
 1579TIP3    H228933   1.309   6.606  19.190  0.2762 -1.2462  0.9827
 1580TIP3   OH228934   5.211   3.691  19.258  0.1123 -0.6340 -0.2100
 1580TIP3    H128935   5.241   3.714  19.170 -0.0262  0.7924  0.0770
 1580TIP3    H228936   5.121   3.724  19.262 -0.7338 -2.8013 -0.2950
 1581TIP3   OH228937   4.185   6.430  19.067  0.1251  0.0477  0.2799
 1581TIP3    H128938   4.140   6.481  19.135  0.7448  0.5036  0.3627
 1581TIP3    H228939   4.152   6.341  19.078 -0.4558  0.2953  0.5923
 1582TIP3   OH228940   2.394   4.345  18.988  0.4917  0.0659  0.4506
 1582TIP3    H128941   2.486   4.336  18.964  0.5105 -0.9158  0.8567
 1582TIP3    H228942   2.346   4.317  18.911  0.5067  1.3802 -0.0653
 1583TIP3   OH228943   4.871   6.562  18.605  0.3811 -0.0692 -0.1799
 1583TIP3    H128944   4.871   6.653  18.636  0.7335  0.5903 -2.0036
 1583TIP3    H228945   4.942   6.559  18.540  0.7424 -1.8038  0.2508
 1584TIP3   OH228946   2.990   3.979  19.852 -0.0485 -0.5008  0.1120
 1584TIP3    H128947   2.940   3.933  19.920 -0.4332 -0.0378  0.1525
 1584TIP3    H228948   2.926   4.039  19.813  0.3406 -0.3013 -0.2195
 1585TIP3   OH228949   3.788   5.054  19.999  0.0457  0.2188  0.2218
 1585TIP3    H128950   3.846   5.001  20.053 -1.1450 -0.5909  0.7511
 1585TIP3    H228951   3.817   5.144  20.014  0.4202 -0.0786  1.3833
 1586TIP3   OH228952   6.298   3.898  17.912 -0.1363  0.3393 -0.0199
 1586TIP3    H128953   6.239   3.846  17.858 -1.0441  1.2848  0.0446
 1586TIP3    H228954   6.375   3.912  17.857 -0.4081  0.0077 -0.4899
 1587TIP3   OH228955   4.931   0.669  19.859  0.1741  0.3221  0.0580
 1587TIP3    H128956   4.990   0.700  19.790  0.0747  1.4431  0.4489
 1587TIP3    H228957   4.951   0.576  19.868  2.6214  0.8659  0.8668
 1588TIP3   OH228958   5.206   6.586  19.851  0.8368 -0.2127  0.2165
 1588TIP3    H128959   5.199   6.618  19.761  0.3494  1.2835  0.7448
 1588TIP3    H228960   5.283   6.631  19.887  0.4136  0.0219  0.8529
 1589TIP3   OH228961   5.797   2.070  19.956 -0.7425  0.0461 -0.2022
 1589TIP3    H128962   5.821   2.149  20.005 -2.2644  0.3385  0.1203
 1589TIP3    H228963   5.838   1.998  20.004  1.1603  0.6462 -0.8237
 1590TIP3   OH228964   1.691   3.282  19.913  0.1389 -0.2500 -0.0209
 1590TIP3    H128965   1.703   3.361  19.859 -1.6618 -0.1774 -0.3607
 1590TIP3    H228966   1.636   3.225  19.861  0.8532 -1.4731  0.5230
 1591TIP3   OH228967   6.188   2.584  17.974  0.1237  0.4345  0.0244
 1591TIP3    H128968   6.113   2.540  18.013 -1.7741  1.9705 -1.6439
 1591TIP3    H228969   6.216   2.526  17.903  0.8022 -0.3288  0.9024
 1592TIP3   OH228970   5.905   6.429  19.975 -0.0949 -0.0317  0.2693
 1592TIP3    H128971   5.866   6.404  20.059  0.4258 -1.0240  0.2313
 1592TIP3    H228972   5.984   6.478  19.999 -0.0406 -0.1642  0.3636
 1593TIP3   OH228973   2.774   5.788  18.383 -0.0714  0.3209  0.0476
 1593TIP3    H128974   2.710   5.787  18.311 -0.2565  1.3995  0.1785
 1593TIP3    H228975   2.770   5.877  18.417 -1.3047 -0.6272  2.6123
 1594TIP3   OH228976   3.770   5.913  17.822  0.1628 -0.2401 -0.5980
 1594TIP3    H128977   3.787   5.995  17.869 -0.4659 -0.5516  0.2112
 1594TIP3    H228978   3.746   5.851  17.891 -2.1329 -0.3782 -1.4452
 1595TIP3   OH228979   1.299   4.967  20.135  0.1656  0.2417  0.0123
 1595TIP3    H128980   1.280   4.977  20.228  3.5509  1.6084  0.7100
 1595TIP3    H228981   1.304   5.057  20.102 -1.2187 -0.2230 -1.6141
 1596TIP3   OH228982   3.086   3.569  18.553  0.3195  0.6749  0.4173
 1596TIP3    H128983   3.119   3.655  18.579  0.6250  0.7735 -0.2933
 1596TIP3    H228984   3.039   3.538  18.630 -0.0066  1.5803  0.5942
 1597TIP3   OH228985   5.181   4.413  19.806 -0.7953 -0.3298  0.1678
 1597TIP3    H128986   5.131   4.443  19.730 -2.0314  0.8006  1.3709
 1597TIP3    H228987   5.183   4.488  19.865 -2.7407 -2.0738  2.6978
 1598TIP3   OH228988   2.634   4.860  18.650 -0.6289 -0.6515 -0.1205
 1598TIP3    H128989   2.718   4.906  18.654 -1.9993  2.0719  0.1609
 1598TIP3    H228990   2.631   4.809  18.731  1.3893 -2.1345 -0.9069
 1599TIP3   OH228991   2.470   1.356  19.229  0.3711 -0.3973 -0.1607
 1599TIP3    H128992   2.560   1.378  19.254  0.1134  0.0412  0.3960
 1599TIP3    H228993   2.420   1.435  19.248 -0.2194 -0.8013 -0.0194
 1600TIP3   OH228994   3.259   1.331  17.837 -0.7699  0.2655 -0.1606
 1600TIP3    H128995   3.201   1.401  17.806  0.3678  1.7803  0.9142
 1600TIP3    H228996   3.209   1.288  17.907 -1.1789  0.5626 -0.2638
 1601TIP3   OH228997   4.470   3.016  19.386 -0.6826  0.1741  0.1122
 1601TIP3    H128998   4.375   3.032  19.389 -1.1631 -2.1621 -0.4920
 1601TIP3    H228999   4.505   3.066  19.460 -2.6362 -0.3285  1.4525
 1602TIP3   OH229000   3.904   6.085  17.591 -0.3244  0.3324  0.9020
 1602TIP3    H129001   3.902   6.150  17.521 -0.2475  0.2566  0.8300
 1602TIP3    H229002   3.885   6.135  17.671 -0.2354  0.4493  0.8496
 1603TIP3   OH229003   2.693   4.483  17.675 -0.0551  0.0938  0.1047
 1603TIP3    H129004   2.727   4.567  17.644  0.4337 -0.3412 -0.5722
 1603TIP3    H229005   2.646   4.504  17.756 -0.0804  1.0419 -0.1445
 1604TIP3   OH229006   2.694   0.420  18.835  0.0555  0.3846  0.1054
 1604TIP3    H129007   2.630   0.483  18.802  0.1082  0.2673 -0.2220
 1604TIP3    H229008   2.733   0.462  18.911  0.2108  0.8204 -0.2126
 1605TIP3   OH229009   1.746   4.414  19.649  0.4884  0.1726  0.3749
 1605TIP3    H129010   1.749   4.510  19.642 -0.2323  0.2257  0.7264
 1605TIP3    H229011   1.659   4.395  19.682  0.3863 -0.6476 -0.3244
 1606TIP3   OH229012   4.762   6.239  19.895 -0.1324  0.3635 -0.0073
 1606TIP3    H129013   4.757   6.165  19.955 -0.9963  0.2191 -0.2534
 1606TIP3    H229014   4.696   6.221  19.829  1.2526  0.1936 -1.3922
 1607TIP3   OH229015   3.281   0.823  20.810  0.1661  0.2253  0.0925
 1607TIP3    H129016   3.268   0.904  20.861 -0.2452 -0.1648  0.6249
 1607TIP3    H229017   3.346   0.774  20.860  0.1433  0.0644 -0.0363
 1608TIP3   OH229018   3.502   5.444  20.327  0.1445 -0.8819  0.7324
 1608TIP3    H129019   3.442   5.374  20.298  1.0533 -1.9954  1.4619
 1608TIP3    H229020   3.491   5.447  20.422 -1.1090  1.1636  0.5771
 1609TIP3   OH229021   5.100   1.811  19.211 -0.1767  0.0072 -0.5823
 1609TIP3    H129022   5.036   1.876  19.239  0.1604 -0.7551  2.2450
 1609TIP3    H229023   5.178   1.861  19.187 -0.1659  0.7424  0.8695
 1610TIP3   OH229024   1.988   5.817  17.683  0.1454  0.3266  0.6500
 1610TIP3    H129025   1.987   5.910  17.662 -1.4688  0.1348 -0.2890
 1610TIP3    H229026   2.021   5.775  17.603  1.0354  0.0778  1.1282
 1611TIP3   OH229027   1.972   3.655  19.835  0.7146  0.3017 -0.1034
 1611TIP3    H129028   2.010   3.623  19.917  0.5654 -0.5327 -0.3510
 1611TIP3    H229029   2.013   3.602  19.767 -2.1496 -1.9465 -0.2633
 1612TIP3   OH229030   0.715   2.265  19.582 -0.2121 -0.0997  0.3620
 1612TIP3    H129031   0.676   2.330  19.640 -0.1581 -1.0908  1.5402
 1612TIP3    H229032   0.659   2.265  19.504 -0.3219  1.1952  0.4341
 1613TIP3   OH229033   6.277   0.344  17.974  0.1332 -0.1007  0.3720
 1613TIP3    H129034   6.345   0.338  18.041 -0.1009  1.9859  0.8785
 1613TIP3    H229035   6.220   0.268  17.989  3.0391 -2.7820 -0.9804
 1614TIP3   OH229036   1.403   4.165  17.986 -0.4096 -0.2586 -0.0935
 1614TIP3    H129037   1.369   4.092  17.935  0.0651 -0.6403  0.1291
 1614TIP3    H229038   1.438   4.225  17.920 -0.7231 -0.2715 -0.2729
 1615TIP3   OH229039   5.131   2.802  20.101 -0.0024 -0.0016 -0.1762
 1615TIP3    H129040   5.188   2.728  20.082  1.5667  0.8230  1.0145
 1615TIP3    H229041   5.135   2.857  20.023  0.7437 -0.0269 -0.1586
 1616TIP3   OH229042   5.271   2.249  19.586  0.2530  0.1533  0.6150
 1616TIP3    H129043   5.254   2.190  19.659 -1.5163 -0.7324 -0.4169
 1616TIP3    H229044   5.237   2.334  19.614  0.2023 -0.0198  1.0720
 1617TIP3   OH229045   3.793   6.056  18.398 -0.3098 -0.1167  0.6511
 1617TIP3    H129046   3.785   6.143  18.437  0.5443 -0.8255  2.5787
 1617TIP3    H229047   3.769   5.996  18.469  0.9810 -1.4948 -0.0149
 1618TIP3   OH229048   5.153   1.614  20.123 -0.1222  0.3104 -0.3702
 1618TIP3    H129049   5.064   1.586  20.103 -0.1399  0.0963 -0.0130
 1618TIP3    H229050   5.146   1.654  20.210 -0.3107  2.4912 -1.3476
 1619TIP3   OH229051   1.983   0.231  20.335  0.3413  0.6200 -0.3645
 1619TIP3    H129052   1.933   0.262  20.259  1.4414 -1.0299 -1.8538
 1619TIP3    H229053   1.920   0.232  20.407 -0.8328  1.9718 -1.3401
 1620TIP3   OH229054   3.519   2.112  19.817  0.2382 -0.2447  0.1115
 1620TIP3    H129055   3.448   2.055  19.845  1.8516 -0.4868  4.3807
 1620TIP3    H229056   3.584   2.053  19.779  0.3128 -0.7355  0.9972
 1621TIP3   OH229057   2.842   6.509  19.857  0.3163  0.2895  0.5630
 1621TIP3    H129058   2.800   6.586  19.820 -1.8597 -1.0275  0.0914
 1621TIP3    H229059   2.866   6.535  19.946 -1.1013  1.3074  0.6931
 1622TIP3   OH229060   5.356   2.303  20.248 -0.3765 -0.0943 -0.7561
 1622TIP3    H129061   5.404   2.373  20.292  0.9640  0.3170 -2.7118
 1622TIP3    H229062   5.276   2.345  20.216  0.6101  0.7471 -2.2767
 1623TIP3   OH229063   5.933   1.239  19.718 -0.3133  0.5683 -0.2069
 1623TIP3    H129064   5.862   1.176  19.729 -0.3351  0.3265 -1.5287
 1623TIP3    H229065   5.936   1.255  19.624  2.6929 -0.9654 -0.4952
 1624TIP3   OH229066   6.592   5.512  20.391 -0.0049  0.4506 -0.5814
 1624TIP3    H129067   6.569   5.602  20.368 -1.3356 -0.1595 -1.8306
 1624TIP3    H229068   6.665   5.490  20.334  0.6891  0.9022  0.1194
 1625TIP3   OH229069   3.418   4.875  19.490  0.2922 -0.4567  0.0380
 1625TIP3    H129070   3.441   4.864  19.398  1.7166 -0.0494  0.3138
 1625TIP3    H229071   3.324   4.856  19.494  0.4620 -1.7825 -1.2687
 1626TIP3   OH229072   5.245   6.070  19.929 -0.5295 -0.4007 -0.1249
 1626TIP3    H129073   5.193   6.068  19.849 -1.5192 -2.1151  0.5058
 1626TIP3    H229074   5.244   6.162  19.957  0.6502  0.4168 -2.5380
 1627TIP3   OH229075   4.467   0.020  18.489  0.2180  0.0618 -0.1630
 1627TIP3    H129076   4.485   0.055  18.402  0.6513  0.9693  0.2809
 1627TIP3    H229077   4.492   0.090  18.549  1.2068 -1.0575  0.7672
 1628TIP3   OH229078   4.488   6.735  19.994  0.0586 -0.0183 -0.8093
 1628TIP3    H129079   4.560   6.689  19.951 -0.0273  2.1157 -3.4451
 1628TIP3    H229080   4.527   6.814  20.030 -0.4877 -0.2085  0.2457
 1629TIP3   OH229081   2.327   0.771  18.456 -0.2437  0.0460 -0.5153
 1629TIP3    H129082   2.398   0.764  18.392  0.1760 -0.7634  0.0160
 1629TIP3    H229083   2.283   0.853  18.435  0.9065  0.6029 -0.8141
 1630TIP3   OH229084   2.357   5.490  20.196 -0.7711  0.2513 -0.3897
 1630TIP3    H129085   2.332   5.572  20.153  0.3444  0.9404  0.2260
 1630TIP3    H229086   2.278   5.464  20.245 -1.1666  0.9100 -0.6625
 1631TIP3   OH229087   4.728   2.607  20.178 -0.2106 -0.3684 -0.1263
 1631TIP3    H129088   4.715   2.694  20.139  3.8737 -0.7807 -3.0348
 1631TIP3    H229089   4.815   2.612  20.218 -0.0853 -2.9555  0.0738
 1632TIP3   OH229090   5.999   0.321  17.875  0.6896 -0.5506  0.2067
 1632TIP3    H129091   5.998   0.282  17.787  0.3756 -0.1936  0.0464
 1632TIP3    H229092   6.069   0.386  17.871  1.2687 -1.1457  0.4993
 1633TIP3   OH229093   6.245   3.251  18.714  0.2830 -0.2404 -0.1067
 1633TIP3    H129094   6.249   3.345  18.696  0.6811  0.0952  1.5054
 1633TIP3    H229095   6.157   3.225  18.687 -0.9146  1.2443  2.0192
 1634TIP3   OH229096   4.679   6.582  18.132  0.8407 -0.4035  0.5141
 1634TIP3    H129097   4.688   6.656  18.072  1.5053 -0.6724  0.2752
 1634TIP3    H229098   4.629   6.517  18.082  0.0060 -0.0168  0.8269
 1635TIP3   OH229099   5.810   3.498  19.071 -0.3741 -0.1791  0.4856
 1635TIP3    H129100   5.876   3.557  19.035  0.1354 -0.6410  0.6451
 1635TIP3    H229101   5.849   3.411  19.063 -0.5830 -0.3728  1.4095
 1636TIP3   OH229102   6.524   3.704  19.479  0.6341  0.2467  0.5751
 1636TIP3    H129103   6.461   3.632  19.487 -0.5226  1.1411 -0.2257
 1636TIP3    H229104   6.535   3.736  19.568  0.3686 -0.2642  0.7972
 1637TIP3   OH229105   1.509   4.484  20.203  0.2984 -0.0199 -0.2825
 1637TIP3    H129106   1.430   4.516  20.245 -0.1545 -0.2416 -0.9631
 1637TIP3    H229107   1.565   4.456  20.276  0.4244  1.6315  0.2889
 1638TIP3   OH229108   2.768   0.238  19.562  0.1589  0.2630  0.5652
 1638TIP3    H129109   2.813   0.304  19.510  1.1179 -0.4398  0.4760
 1638TIP3    H229110   2.679   0.272  19.572  0.2190  0.8687 -0.7178
 1639TIP3   OH229111   5.170   5.301  20.941 -0.2084 -0.2090 -0.1945
 1639TIP3    H129112   5.190   5.359  21.014 -0.4074 -0.8845  0.4074
 1639TIP3    H229113   5.147   5.360  20.869 -0.0103  0.4641  0.2822
 1640TIP3   OH229114   1.650   5.241  18.731 -0.3867  0.0595  0.1168
 1640TIP3    H129115   1.588   5.216  18.800 -1.0988  1.2358 -0.0554
 1640TIP3    H229116   1.595   5.252  18.653  0.2362 -0.1181 -0.3491
 1641TIP3   OH229117   5.574   0.753  18.834  0.3362  0.2068  0.2527
 1641TIP3    H129118   5.552   0.824  18.893  0.3544  2.3508 -2.1459
 1641TIP3    H229119   5.491   0.729  18.793  0.5815 -0.0259 -0.1154
 1642TIP3   OH229120   5.469   2.249  20.921  0.9593 -0.3198  0.0236
 1642TIP3    H129121   5.483   2.344  20.920 -0.0464 -0.0529 -3.6666
 1642TIP3    H229122   5.384   2.238  20.964  1.2014  0.4106  0.7165
 1643TIP3   OH229123   3.499   4.956  20.265  0.5728 -0.1523  0.3885
 1643TIP3    H129124   3.490   4.957  20.170  0.9258 -1.4617  0.3193
 1643TIP3    H229125   3.470   5.043  20.293  0.2222  0.1622 -0.8838
 1644TIP3   OH229126   1.895   0.661  17.677 -0.3695  0.5627  0.1101
 1644TIP3    H129127   1.908   0.752  17.650 -1.3737  0.9272  0.7775
 1644TIP3    H229128   1.813   0.662  17.727 -0.3736 -0.7033  0.1740
 1645TIP3   OH229129   5.235   3.459  18.418  0.0103 -0.2149  0.1249
 1645TIP3    H129130   5.152   3.492  18.385  0.0926  1.6803  1.6030
 1645TIP3    H229131   5.281   3.428  18.340 -1.2526  0.6111 -1.0018
 1646TIP3   OH229132   0.457   4.187  20.653  0.4687  0.3064  0.2697
 1646TIP3    H129133   0.507   4.245  20.596 -0.2896  0.6847 -0.0225
 1646TIP3    H229134   0.373   4.231  20.665 -0.4080 -1.0594 -0.5552
 1647TIP3   OH229135   6.079   6.217  18.483  0.1149  0.2533  0.0123
 1647TIP3    H129136   6.044   6.150  18.542  1.7155  1.2650  2.2496
 1647TIP3    H229137   6.002   6.259  18.446 -0.9975 -0.2208  1.6717
 1648TIP3   OH229138   3.149   6.551  20.339  0.3639 -0.3960 -0.4118
 1648TIP3    H129139   3.080   6.617  20.340 -1.3649 -2.1041 -0.4701
 1648TIP3    H229140   3.183   6.553  20.249 -1.5582 -1.3857 -1.2147
 1649TIP3   OH229141   4.148   4.900  17.956 -0.5855 -0.0388  0.3616
 1649TIP3    H129142   4.176   4.970  18.015  0.9559  0.2671 -0.6841
 1649TIP3    H229143   4.109   4.946  17.881 -0.4630 -0.3394  0.1138
 1650TIP3   OH229144   0.824   6.309  20.578  0.1871 -0.6061  0.6166
 1650TIP3    H129145   0.835   6.330  20.671 -1.0076 -0.0709  0.6477
 1650TIP3    H229146   0.806   6.394  20.537  1.8654 -0.6590 -0.3100
 1651TIP3   OH229147   5.451   6.419  17.777  0.1511  0.1234  0.2702
 1651TIP3    H129148   5.365   6.388  17.805 -0.4966  1.4906 -0.1398
 1651TIP3    H229149   5.444   6.431  17.683  1.6850 -2.4338 -0.2600
 1652TIP3   OH229150   0.410   4.584  19.585  0.6951 -0.4563  0.6547
 1652TIP3    H129151   0.481   4.649  19.579  0.1063  0.0524 -2.5353
 1652TIP3    H229152   0.334   4.634  19.613  0.1922  0.4021 -1.9973
 1653TIP3   OH229153   4.511   2.078  18.010 -0.1676  0.1164 -0.0110
 1653TIP3    H129154   4.536   2.014  18.076 -0.4633  0.4649  0.4490
 1653TIP3    H229155   4.534   2.037  17.926 -1.7124 -1.2365  0.1626
 1654TIP3   OH229156   5.167   0.699  20.194 -0.0882 -0.1422  0.1710
 1654TIP3    H129157   5.199   0.628  20.250  1.7428 -0.9288 -1.7325
 1654TIP3    H229158   5.104   0.656  20.135  0.9136 -0.1808 -0.8897
 1655TIP3   OH229159   4.004   6.358  19.538  0.4079 -0.1524 -0.3634
 1655TIP3    H129160   3.926   6.337  19.488 -1.1481  1.1747  1.3833
 1655TIP3    H229161   4.063   6.285  19.521 -1.0510 -1.0293 -1.9937
 1656TIP3   OH229162   5.444   2.391  19.821 -0.7253 -0.8862  0.0994
 1656TIP3    H129163   5.421   2.299  19.810  0.9649 -1.1741 -1.5057
 1656TIP3    H229164   5.419   2.433  19.738  1.6078 -0.6420 -0.5544
 1657TIP3   OH229165   4.214   4.231  19.660 -0.1480 -0.5992  0.0837
 1657TIP3    H129166   4.180   4.244  19.748  2.0229 -0.8201  1.0263
 1657TIP3    H229167   4.237   4.320  19.630 -1.2590 -0.4768 -0.4564
 1658TIP3   OH229168   5.006   0.885  17.309 -0.5204  0.3409 -0.0008
 1658TIP3    H129169   4.958   0.829  17.248  2.1491 -1.4543 -0.6634
 1658TIP3    H229170   5.019   0.967  17.261 -1.5636  0.3012 -0.3777
 1659TIP3   OH229171   5.898   6.125  17.689 -0.1360 -0.1043 -0.5335
 1659TIP3    H129172   5.951   6.045  17.693  0.1185  0.1049  2.2729
 1659TIP3    H229173   5.957   6.190  17.651  0.6429 -0.5695 -0.1638
 1660TIP3   OH229174   5.550   5.774  18.639  0.1773  0.1479  0.3340
 1660TIP3    H129175   5.454   5.778  18.641  0.0579 -0.5301 -1.6394
 1660TIP3    H229176   5.570   5.682  18.626  1.0399  0.4351 -0.4584
 1661TIP3   OH229177   2.020   2.103  20.519  0.5762  0.1819 -0.4450
 1661TIP3    H129178   2.093   2.150  20.477  2.2356 -1.3685  0.5527
 1661TIP3    H229179   2.029   2.123  20.612 -1.0058  0.8525 -0.3990
 1662TIP3   OH229180   0.027   6.682  18.982  0.1295 -0.1152 -0.6118
 1662TIP3    H129181  -0.039   6.639  19.036 -1.6716 -0.0619 -2.6417
 1662TIP3    H229182  -0.020   6.709  18.903  1.9822  2.4838 -0.9501
 1663TIP3   OH229183   4.638   6.090  17.631  0.0831  0.2638  0.3157
 1663TIP3    H129184   4.572   6.102  17.563 -0.7090 -0.2393  0.9617
 1663TIP3    H229185   4.620   6.159  17.695 -1.0358 -0.9483  1.3910
 1664TIP3   OH229186   0.300   2.034  20.591 -0.4335 -0.0767 -0.4873
 1664TIP3    H129187   0.333   1.956  20.636 -2.0835 -0.0339  0.9009
 1664TIP3    H229188   0.378   2.079  20.559  0.5568 -2.5414 -1.8108
 1665TIP3   OH229189   4.008   0.736  20.712  0.0884 -0.4569 -0.1766
 1665TIP3    H129190   4.003   0.696  20.625 -0.9104  0.9044 -0.8030
 1665TIP3    H229191   3.962   0.675  20.769 -3.6049  0.7572 -1.5455
 1666TIP3   OH229192   4.501   3.115  17.516 -0.2124  0.6401  0.1227
 1666TIP3    H129193   4.506   3.031  17.470  3.0923 -0.7098  2.5251
 1666TIP3    H229194   4.418   3.110  17.564 -0.4562 -0.9200 -0.3867
 1667TIP3   OH229195   4.079   1.613  20.204 -0.2507  0.9769 -0.2575
 1667TIP3    H129196   4.165   1.639  20.238  0.0876  1.5314 -1.4576
 1667TIP3    H229197   4.099   1.577  20.117 -1.2061  0.7935 -0.4050
 1668TIP3   OH229198   5.169   2.821  17.876  0.6222 -0.0463 -0.4861
 1668TIP3    H129199   5.169   2.821  17.971 -0.3374 -0.0971 -0.4699
 1668TIP3    H229200   5.096   2.880  17.853  0.7214 -0.1912 -1.1814
 1669TIP3   OH229201   1.046   1.051  19.010 -0.5711  0.5968  0.5192
 1669TIP3    H129202   0.984   1.017  18.946 -0.1005 -0.9185  0.8247
 1669TIP3    H229203   0.991   1.089  19.079 -1.2277 -1.0298  0.9554
 1670TIP3   OH229204   5.291   5.376  19.617 -0.4480 -0.3168 -0.1954
 1670TIP3    H129205   5.375   5.337  19.640 -1.1998 -2.1921 -0.5062
 1670TIP3    H229206   5.255   5.407  19.701 -0.1074 -0.8312  0.1427
 1671TIP3   OH229207   2.081   3.667  20.117  0.6341 -0.1881  0.1973
 1671TIP3    H129208   1.990   3.663  20.145  0.6567 -1.8116  0.1217
 1671TIP3    H229209   2.095   3.759  20.096 -0.8491  0.1709  0.6309
 1672TIP3   OH229210   6.027   2.817  17.952 -0.2005 -0.2311  0.1867
 1672TIP3    H129211   6.010   2.758  17.879 -3.6004  0.4376  0.2583
 1672TIP3    H229212   6.089   2.770  18.007  1.2409 -1.4325 -2.2760
 1673TIP3   OH229213   2.259   2.923  20.430 -0.4662  0.0519 -0.4738
 1673TIP3    H129214   2.240   3.016  20.428  1.2357  0.5067  1.3432
 1673TIP3    H229215   2.337   2.913  20.375 -0.2354 -0.1702 -0.1151
 1674TIP3   OH229216   1.353   2.925  18.182  0.2278  0.0580 -0.6015
 1674TIP3    H129217   1.381   2.866  18.112  0.7393  0.7776 -1.0087
 1674TIP3    H229218   1.334   2.867  18.256  0.3460 -0.6482 -1.1185
 1675TIP3   OH229219   6.271   6.637  19.449 -0.4372  0.0392 -0.5425
 1675TIP3    H129220   6.300   6.546  19.446 -0.9176 -0.1539  0.2718
 1675TIP3    H229221   6.181   6.632  19.483 -0.8905  0.7308 -1.5917
 1676TIP3   OH229222   1.900   4.384  18.938 -0.3211  0.4327 -0.3887
 1676TIP3    H129223   1.972   4.365  18.878 -0.4927  1.4257 -0.9289
 1676TIP3    H229224   1.901   4.311  19.000 -0.3460 -0.7816 -1.7766
 1677TIP3   OH229225   5.836   1.566  18.057  0.2249  0.6515  0.7520
 1677TIP3    H129226   5.801   1.478  18.044  0.1275  1.0027 -1.8342
 1677TIP3    H229227   5.759   1.621  18.069  0.1058  0.7480 -0.3426
 1678TIP3   OH229228   4.949   4.808  18.010  0.3841 -0.5377  0.2240
 1678TIP3    H129229   4.993   4.768  18.086 -0.9418 -0.8375  0.8598
 1678TIP3    H229230   4.958   4.902  18.025 -0.5545 -0.5837  1.1949
 1679TIP3   OH229231   2.470   2.512  19.805 -0.0967  0.3732  0.2174
 1679TIP3    H129232   2.463   2.420  19.830  0.1119  0.2680 -0.1105
 1679TIP3    H229233   2.507   2.555  19.882  0.5168  0.0558  0.1037
 1680TIP3   OH229234   5.553   1.348  18.480 -0.2759  0.4013 -0.3582
 1680TIP3    H129235   5.590   1.424  18.524 -1.5793 -0.3798  2.2845
 1680TIP3    H229236   5.477   1.325  18.532 -2.3302 -0.3087 -3.4158
 1681TIP3   OH229237   5.310   3.850  20.313  0.0353 -0.3862 -0.7408
 1681TIP3    H129238   5.291   3.896  20.394 -1.2746 -0.8195 -0.7757
 1681TIP3    H229239   5.265   3.766  20.322 -2.1717  0.4529 -2.8497
 1682TIP3   OH229240   0.695   3.321  18.359 -0.1093 -0.2623  0.0139
 1682TIP3    H129241   0.654   3.285  18.281  0.4275 -0.6592 -0.0874
 1682TIP3    H229242   0.768   3.373  18.327 -0.9231  1.0055  0.1549
 1683TIP3   OH229243   3.028   5.811  20.572  0.0092 -0.3784 -0.0362
 1683TIP3    H129244   2.991   5.871  20.637 -0.7045 -1.4827  0.6098
 1683TIP3    H229245   3.112   5.850  20.549 -0.6177  1.0838  0.0464
 1684TIP3   OH229246   6.384   4.450  18.091  0.3024  0.1472  0.6214
 1684TIP3    H129247   6.335   4.526  18.061 -0.8669 -0.5377  0.7650
 1684TIP3    H229248   6.352   4.432  18.179  1.0713 -0.0965  0.8657
 1685TIP3   OH229249   4.798   3.164  20.092 -0.2586 -0.1778  0.0612
 1685TIP3    H129250   4.728   3.152  20.157 -0.4943  1.1223  0.0641
 1685TIP3    H229251   4.865   3.216  20.137  0.5381 -1.0471 -0.0811
 1686TIP3   OH229252   3.021   1.622  18.619  0.0034  0.1282  0.2829
 1686TIP3    H129253   3.012   1.578  18.704 -1.4550 -0.6839 -0.2664
 1686TIP3    H229254   2.932   1.647  18.595  0.3718  0.2312 -1.0729
 1687TIP3   OH229255   3.702   0.534  18.344 -0.0775  0.9093 -0.7770
 1687TIP3    H129256   3.704   0.447  18.385  2.4339  0.4684 -1.6771
 1687TIP3    H229257   3.675   0.593  18.414 -0.5221 -0.4251  0.2138
 1688TIP3   OH229258   5.394   2.770  19.046 -0.1589  0.7746  0.0846
 1688TIP3    H129259   5.325   2.836  19.039  1.3920  2.4197 -0.4396
 1688TIP3    H229260   5.456   2.807  19.109  0.5997 -0.3473  0.0156
 1689TIP3   OH229261   0.955   6.216  19.458 -0.0452 -0.3858  0.0651
 1689TIP3    H129262   1.021   6.248  19.519 -0.3730 -0.0486  0.2462
 1689TIP3    H229263   0.876   6.267  19.478 -0.6933 -1.5493  0.6216
 1690TIP3   OH229264   0.754   2.879  18.048 -0.0219 -0.8580  0.4126
 1690TIP3    H129265   0.784   2.957  18.002 -0.2087  0.3951  2.2896
 1690TIP3    H229266   0.834   2.834  18.074  0.0967 -0.9898 -0.1633
 1691TIP3   OH229267   2.798   5.043  19.553 -0.7582 -0.0523 -0.1531
 1691TIP3    H129268   2.750   5.106  19.499  0.3951  1.5403  0.6426
 1691TIP3    H229269   2.801   5.081  19.640  1.5394 -0.2907 -0.0591
 1692TIP3   OH229270   5.434   3.782  18.145  0.0285 -0.1417 -0.0022
 1692TIP3    H129271   5.471   3.805  18.060 -0.2277 -2.2473 -0.7320
 1692TIP3    H229272   5.357   3.730  18.124 -2.1926  2.3154  1.5149
 1693TIP3   OH229273   3.966   3.120  20.536 -0.7146 -0.4526  0.3290
 1693TIP3    H129274   3.962   3.087  20.446 -1.2384 -1.3256  0.6567
 1693TIP3    H229275   3.988   3.043  20.589  1.9076  0.4990  0.7317
 1694TIP3   OH229276   1.585   5.795  19.741 -0.4075  0.1068  0.1790
 1694TIP3    H129277   1.651   5.832  19.683  0.1369 -0.1913  0.5977
 1694TIP3    H229278   1.629   5.787  19.826 -1.7214  2.3422  1.1852
 1695TIP3   OH229279   4.757   6.623  18.934 -0.1052  0.7750 -0.1640
 1695TIP3    H129280   4.683   6.587  18.886  0.0528  0.6062 -0.2817
 1695TIP3    H229281   4.724   6.705  18.970  0.0853  1.4399 -1.4470
 1696TIP3   OH229282   2.163   5.565  18.135  0.1664 -0.8811 -0.8117
 1696TIP3    H129283   2.210   5.604  18.062  1.2578 -2.2657 -0.9032
 1696TIP3    H229284   2.099   5.631  18.161  0.4025  0.0168 -2.3886
 1697TIP3   OH229285   6.286   1.771  19.350 -0.7464  0.0242 -0.0839
 1697TIP3    H129286   6.292   1.826  19.428 -0.7852 -1.8097  1.2790
 1697TIP3    H229287   6.243   1.826  19.284 -1.3948  1.3749  1.4127
 1698TIP3   OH229288   2.182   0.581  20.078 -0.1379  0.0075 -0.1248
 1698TIP3    H129289   2.169   0.557  20.170  3.6010  0.2069  0.6267
 1698TIP3    H229290   2.151   0.505  20.029 -0.5856 -0.8301  1.3920
 1699TIP3   OH229291   0.973   5.346  20.649 -0.1549 -0.1847 -0.1444
 1699TIP3    H129292   0.974   5.441  20.660 -0.4950  0.1145 -2.2385
 1699TIP3    H229293   0.883   5.320  20.668  0.5125 -0.5576  3.1438
 1700TIP3   OH229294   2.754   1.905  18.290 -0.2694  0.6779  0.5471
 1700TIP3    H129295   2.719   1.949  18.213  0.1961  0.5323  0.2486
 1700TIP3    H229296   2.846   1.888  18.269 -0.5037 -0.6773  0.5438
 1701TIP3   OH229297   4.785   0.342  20.700  0.0708 -0.1329 -0.4636
 1701TIP3    H129298   4.712   0.340  20.761  0.4844  0.7452  0.0832
 1701TIP3    H229299   4.815   0.252  20.695 -1.0209 -0.4965 -0.6664
 1702TIP3   OH229300   0.549   0.774  19.024  0.2295 -0.5500 -0.5661
 1702TIP3    H129301   0.469   0.736  19.060 -1.9050  3.5157 -0.4655
 1702TIP3    H229302   0.530   0.784  18.931 -0.4538  2.4504 -0.1997
 1703TIP3   OH229303   2.367   6.624  19.619 -0.4025  0.7179  0.5998
 1703TIP3    H129304   2.338   6.558  19.557  0.6217 -0.1260  0.9960
 1703TIP3    H229305   2.419   6.576  19.683 -0.6437  1.7166  1.5868
 1704TIP3   OH229306   0.767   2.156  17.992  0.5944  0.2112 -0.1874
 1704TIP3    H129307   0.825   2.143  17.917  0.5115 -1.0370 -0.0535
 1704TIP3    H229308   0.826   2.171  18.065  0.8055 -1.4569  0.0251
 1705TIP3   OH229309   5.688   5.154  19.546  0.3877 -0.2119 -0.9010
 1705TIP3    H129310   5.599   5.120  19.555 -0.0430  1.3037  1.0567
 1705TIP3    H229311   5.688   5.199  19.462 -0.3803 -1.0283 -1.3599
 1706TIP3   OH229312   3.862   5.307  20.091 -0.3287  0.1062 -0.3466
 1706TIP3    H129313   3.901   5.310  20.178 -2.0419  0.6208  0.4469
 1706TIP3    H229314   3.910   5.372  20.041  0.9720 -0.5084  0.0593
 1707TIP3   OH229315   6.044   0.745  18.450 -0.4526  0.5249 -0.5907
 1707TIP3    H129316   6.097   0.796  18.512 -0.1471 -0.9703  0.4218
 1707TIP3    H229317   6.035   0.802  18.374  2.4898  0.8926 -0.7578
 1708TIP3   OH229318   4.038   1.748  19.473  0.1511 -0.0223 -0.3418
 1708TIP3    H129319   4.005   1.789  19.553 -0.7139 -0.4010 -0.4936
 1708TIP3    H229320   4.132   1.765  19.475  0.3088 -0.8553  1.2580
 1709TIP3   OH229321   4.507   1.743  19.245  0.1329 -0.4430 -0.5756
 1709TIP3    H129322   4.520   1.648  19.250  1.7992 -0.2045  0.6098
 1709TIP3    H229323   4.584   1.780  19.288 -0.7825  1.4520 -0.4502
 1710TIP3   OH229324   2.237   1.638  19.875  0.3659 -0.4446 -0.4873
 1710TIP3    H129325   2.219   1.689  19.954  0.2101 -2.5953  0.9572
 1710TIP3    H229326   2.150   1.607  19.846  0.6884 -2.4335  0.5238
 1711TIP3   OH229327   1.813   3.039  19.204 -0.4584 -0.3941 -0.1847
 1711TIP3    H129328   1.760   3.058  19.281  1.0019 -0.1001  0.7771
 1711TIP3    H229329   1.788   2.950  19.180 -1.7321 -0.0896 -0.0636
 1712TIP3   OH229330   1.644   6.498  17.093  0.2507  0.0405  0.9022
 1712TIP3    H129331   1.570   6.475  17.149  2.1123 -0.6008  3.2612
 1712TIP3    H229332   1.659   6.420  17.040 -0.6525  0.1347  0.4796
 1713TIP3   OH229333   5.623   1.377  19.748 -0.5527 -0.7825  0.1355
 1713TIP3    H129334   5.546   1.340  19.791 -0.9184 -0.5715 -0.3214
 1713TIP3    H229335   5.697   1.351  19.803 -0.5130 -4.0828 -1.2701
 1714TIP3   OH229336   3.956   0.438  19.818  0.5775 -0.0382 -0.0932
 1714TIP3    H129337   3.963   0.374  19.747 -1.7205 -0.6445  0.1559
 1714TIP3    H229338   4.027   0.415  19.877  0.2000 -2.0176 -0.3174
 1715TIP3   OH229339   3.193   5.557  19.402  0.1938 -0.4191  0.5327
 1715TIP3    H129340   3.208   5.560  19.497  1.4778  0.5267  0.3278
 1715TIP3    H229341   3.280   5.548  19.364 -0.4469 -2.6130 -0.5391
 1716TIP3   OH229342   3.831   5.371  18.664 -0.5972  0.1122 -0.2149
 1716TIP3    H129343   3.766   5.309  18.698  0.8488 -0.5818  1.4492
 1716TIP3    H229344   3.898   5.317  18.623  0.7271  0.4968  1.3261
 1717TIP3   OH229345   3.806   3.072  17.884 -0.3129 -0.5292 -0.0453
 1717TIP3    H129346   3.741   3.089  17.816 -0.7597  0.1297  0.5279
 1717TIP3    H229347   3.891   3.085  17.841 -0.5957  0.2460 -0.3757
 1718TIP3   OH229348   4.185   5.796  18.124  0.2047  0.5484  0.2545
 1718TIP3    H129349   4.108   5.849  18.144 -0.2444 -0.5614  1.6368
 1718TIP3    H229350   4.161   5.747  18.046  0.7494  2.5473 -1.2547
 1719TIP3   OH229351   1.015   0.854  20.479  0.1231 -0.1567 -0.0641
 1719TIP3    H129352   0.940   0.898  20.439 -0.3683  0.6270  1.6378
 1719TIP3    H229353   1.004   0.762  20.455 -1.1477  0.0206 -0.2110
 1720TIP3   OH229354   5.887   4.952  19.280 -0.7585 -0.1123 -0.1625
 1720TIP3    H129355   5.792   4.941  19.287 -1.1946  1.5209 -2.4192
 1720TIP3    H229356   5.902   4.972  19.188  1.8522 -0.7311  0.0676
 1721TIP3   OH229357   2.167   1.250  18.387 -0.2659  0.0029 -0.3028
 1721TIP3    H129358   2.219   1.172  18.407  0.3457  0.7781  1.3875
 1721TIP3    H229359   2.076   1.220  18.393 -0.1089 -1.3307 -3.1282
 1722TIP3   OH229360   6.705   2.334  19.027  0.2351 -0.1044  0.2926
 1722TIP3    H129361   6.659   2.280  18.963 -1.1976  1.1548  0.1885
 1722TIP3    H229362   6.724   2.275  19.100  0.6586 -1.2334 -0.6973
 1723TIP3   OH229363   0.780   1.751  18.829  0.4633  0.0737  0.0800
 1723TIP3    H129364   0.734   1.810  18.769  0.4612 -1.2612 -1.2998
 1723TIP3    H229365   0.712   1.694  18.865  0.7408 -0.5648 -0.3807
 1724TIP3   OH229366   2.907   5.212  16.872 -0.5983 -0.7239  0.4249
 1724TIP3    H129367   2.896   5.209  16.967 -0.7475 -2.8507  0.3827
 1724TIP3    H229368   2.977   5.276  16.858 -1.4162  0.5430  1.8463
 1725TIP3   OH229369   5.229   2.834  19.645 -0.4546  0.2588 -0.3780
 1725TIP3    H129370   5.214   2.740  19.659 -0.1606 -0.1515 -2.4891
 1725TIP3    H229371   5.305   2.837  19.586  0.8333  1.9136  1.2499
 1726TIP3   OH229372   1.690   6.533  18.035  0.7143  0.0941  0.4145
 1726TIP3    H129373   1.731   6.571  17.957 -0.1183  0.9807  0.3880
 1726TIP3    H229374   1.748   6.461  18.060  1.1766  0.0139 -0.8181
 1727TIP3   OH229375   5.394   6.636  20.150  0.3190 -0.1832 -0.5195
 1727TIP3    H129376   5.315   6.670  20.192 -0.5511 -1.9415 -0.6518
 1727TIP3    H229377   5.395   6.678  20.064 -0.7220 -0.4485 -0.6808
 1728TIP3   OH229378   0.490   2.258  19.162 -0.4114  0.1012 -0.0588
 1728TIP3    H129379   0.583   2.271  19.180 -1.1230  1.7652  3.0590
 1728TIP3    H229380   0.452   2.345  19.171 -2.4386 -0.6998 -0.3619
 1729TIP3   OH229381   0.846   1.665  17.701 -0.8225  0.1031 -0.7084
 1729TIP3    H129382   0.894   1.660  17.619 -1.0952 -1.9691 -0.8091
 1729TIP3    H229383   0.768   1.611  17.686 -0.1630 -1.5467  1.3238
 1730TIP3   OH229384   6.282   0.980  19.752 -0.3783 -0.0397 -0.3343
 1730TIP3    H129385   6.347   1.045  19.779  0.3054 -1.4024  1.5028
 1730TIP3    H229386   6.202   1.030  19.741  0.5858  1.4223 -1.0059
 1731TIP3   OH229387   2.588   3.479  18.549 -0.3593 -0.0250  0.0861
 1731TIP3    H129388   2.521   3.422  18.586  0.2251 -2.1894 -1.9453
 1731TIP3    H229389   2.643   3.504  18.624 -1.8154 -0.4544  1.3328
 1732TIP3   OH229390   1.783   1.182  18.136  0.3893  0.5915  0.1571
 1732TIP3    H129391   1.721   1.254  18.124  2.2819  2.0827 -1.4845
 1732TIP3    H229392   1.768   1.126  18.061  2.3178  2.0687 -1.4298
 1733TIP3   OH229393   4.974   2.833  18.355  0.7568  0.1957 -0.2329
 1733TIP3    H129394   5.044   2.791  18.404 -0.7204 -0.1128  1.7302
 1733TIP3    H229395   4.899   2.774  18.363 -0.6961  2.0437  0.6278
 1734TIP3   OH229396   2.975   1.857  18.099  0.5324 -0.4224 -0.5130
 1734TIP3    H129397   3.007   1.775  18.059  1.7515  0.8869 -2.3928
 1734TIP3    H229398   3.043   1.921  18.078 -0.4808  1.1340  0.7841
 1735TIP3   OH229399   2.454   3.627  17.575 -0.0806 -0.2021  0.2719
 1735TIP3    H129400   2.495   3.649  17.492  2.1471  0.9746  1.5759
 1735TIP3    H229401   2.417   3.710  17.606 -1.7108 -0.8173  0.1021
 1736TIP3   OH229402   4.754   1.026  17.954 -0.0313  0.5044 -0.2100
 1736TIP3    H129403   4.768   1.031  18.048 -0.5217  2.0374 -0.1936
 1736TIP3    H229404   4.742   0.933  17.936  1.8143 -0.0054  0.9646
 1737TIP3   OH229405   0.305   6.306  20.158  0.8176 -0.2690 -0.2793
 1737TIP3    H129406   0.256   6.386  20.139 -0.6634 -0.8851  0.7752
 1737TIP3    H229407   0.391   6.321  20.118  1.0535  2.3768  0.9711
 1738TIP3   OH229408   3.965   5.375  17.826 -0.5649 -0.0892 -0.1369
 1738TIP3    H129409   4.058   5.356  17.821 -0.4909  0.4832 -1.1143
 1738TIP3    H229410   3.935   5.326  17.903  0.1058 -2.0970 -1.0755
 1739TIP3   OH229411   2.245   3.646  18.852  0.4640 -0.2355  0.1093
 1739TIP3    H129412   2.246   3.690  18.767  0.2901 -0.2367  0.1072
 1739TIP3    H229413   2.153   3.647  18.878  0.4189 -0.8050 -0.0005
 1740TIP3   OH229414   2.443   3.424  20.300 -0.4654 -0.4638 -0.0248
 1740TIP3    H129415   2.450   3.463  20.213  0.0705 -0.3948  0.0449
 1740TIP3    H229416   2.350   3.426  20.320 -0.4004  1.5136  0.2936
 1741TIP3   OH229417   0.443   4.488  20.358 -0.0754 -0.4037  0.4709
 1741TIP3    H129418   0.521   4.453  20.401  1.7814  0.9718 -1.5649
 1741TIP3    H229419   0.417   4.419  20.296 -0.2161 -0.6879  0.8425
 1742TIP3   OH229420   2.462   0.181  18.748 -0.3205 -0.2436  0.1771
 1742TIP3    H129421   2.476   0.196  18.841  2.0521 -0.2625 -0.1216
 1742TIP3    H229422   2.436   0.266  18.713  0.6954  0.2418  0.5628
 1743TIP3   OH229423   6.404   4.545  18.836  0.2938  0.3439 -0.3726
 1743TIP3    H129424   6.454   4.626  18.841  0.1349  0.4477 -0.4563
 1743TIP3    H229425   6.470   4.476  18.835  0.5093  0.5311 -2.0545
 1744TIP3   OH229426   2.992   1.968  19.566  0.1279  0.6221  0.0188
 1744TIP3    H129427   2.938   2.001  19.494  0.9158  0.9635 -0.4288
 1744TIP3    H229428   3.021   1.882  19.537  1.3240  1.2067 -0.5482
 1745TIP3   OH229429   3.202   4.950  18.775  0.1117 -0.1634  0.3089
 1745TIP3    H129430   3.201   4.901  18.857 -1.7362 -2.9330 -1.1765
 1745TIP3    H229431   3.234   4.887  18.710 -1.6502  0.8164 -1.6241
 1746TIP3   OH229432   6.251   5.549  18.123  0.2390 -0.1335  0.2625
 1746TIP3    H129433   6.202   5.626  18.150  0.9089  0.0295  1.0668
 1746TIP3    H229434   6.238   5.544  18.028 -0.1872  0.6975  0.2705
 1747TIP3   OH229435   4.056   1.062  17.466  0.1554  0.1001  0.0616
 1747TIP3    H129436   4.062   1.154  17.442 -1.5224  0.3236  0.3634
 1747TIP3    H229437   3.964   1.039  17.451  0.0949 -1.0067  1.7593
 1748TIP3   OH229438   4.093   6.484  20.151  0.4192  0.5296  0.1086
 1748TIP3    H129439   4.161   6.498  20.085  1.5274 -1.7879  0.6652
 1748TIP3    H229440   4.013   6.469  20.100  0.3906  2.6424 -0.5672
 1749TIP3   OH229441   6.725   3.499  19.665 -0.3691  0.4778  0.2324
 1749TIP3    H129442   6.729   3.568  19.731  0.9086  0.9601 -0.3014
 1749TIP3    H229443   6.780   3.429  19.701  0.0171  0.5867 -0.1402
 1750TIP3   OH229444   3.539   5.336  19.277 -0.7192  0.0473 -0.6291
 1750TIP3    H129445   3.486   5.257  19.265 -0.6181 -0.2390  0.6504
 1750TIP3    H229446   3.615   5.306  19.326  0.4200  0.5499 -2.0219
 1751TIP3   OH229447   5.816   4.440  18.033  0.0418  0.1559  0.2304
 1751TIP3    H129448   5.802   4.527  17.997  1.2360 -0.0561 -0.8104
 1751TIP3    H229449   5.732   4.417  18.074 -1.1130  0.7320 -1.7075
 1752TIP3   OH229450   4.466   3.420  18.487  0.2824  0.6880  0.4315
 1752TIP3    H129451   4.446   3.362  18.561  1.1378 -0.0199  0.1263
 1752TIP3    H229452   4.434   3.373  18.410  3.1353 -0.5984 -0.0988
 1753TIP3   OH229453   4.754   2.251  20.610 -0.1291  0.2981  0.7293
 1753TIP3    H129454   4.777   2.291  20.694  1.4525  0.2014  0.3823
 1753TIP3    H229455   4.724   2.325  20.556 -2.5975  0.1621  1.7761
 1754TIP3   OH229456   6.551   1.395  17.816 -0.2168  0.0437  0.5252
 1754TIP3    H129457   6.601   1.433  17.744  0.3032  2.4839  2.0453
 1754TIP3    H229458   6.591   1.309  17.830 -0.5827 -0.6876 -2.2492
 1755TIP3   OH229459   4.641   1.514  19.684  0.2093 -0.2557  0.3538
 1755TIP3    H129460   4.694   1.442  19.720  1.7389  0.7801  0.2584
 1755TIP3    H229461   4.552   1.478  19.681  0.6800 -1.6680  1.6167
 1756TIP3   OH229462   6.187   6.453  20.590  0.4569 -0.3663  0.0183
 1756TIP3    H129463   6.197   6.533  20.643  0.3771 -1.1549  1.2724
 1756TIP3    H229464   6.093   6.433  20.595  0.4179 -0.3470 -0.5939
 1757TIP3   OH229465   6.575   0.246  18.159  0.0857  0.1005  0.1864
 1757TIP3    H129466   6.596   0.273  18.249  0.4574  0.1676  0.0798
 1757TIP3    H229467   6.624   0.307  18.104 -1.0611  0.8211 -0.0747
 1758TIP3   OH229468   5.921   4.494  18.687  0.0346  0.7329 -0.2371
 1758TIP3    H129469   5.919   4.539  18.771 -0.4890  0.1170  0.0966
 1758TIP3    H229470   5.832   4.460  18.676  0.0039  1.0855 -1.2002
 1759TIP3   OH229471   1.126   1.487  20.704 -0.1998  0.0092 -0.1769
 1759TIP3    H129472   1.035   1.500  20.676 -0.7953 -0.5750  1.3688
 1759TIP3    H229473   1.156   1.575  20.728 -0.4003  0.1815 -0.5380
 1760TIP3   OH229474   5.678   6.048  19.395 -0.3511 -0.7599  0.5979
 1760TIP3    H129475   5.732   6.119  19.431 -0.7120  0.0215 -0.3740
 1760TIP3    H229476   5.590   6.084  19.389 -0.5056 -1.2293 -0.0887
 1761TIP3   OH229477   4.224   6.633  16.595 -0.2964  0.0154  0.1042
 1761TIP3    H129478   4.289   6.574  16.557  0.0198 -0.4573  1.3231
 1761TIP3    H229479   4.162   6.575  16.639 -1.4095  0.4774 -0.7851
 1762TIP3   OH229480   4.587   0.543  20.430 -0.1405 -0.2967  0.1578
 1762TIP3    H129481   4.514   0.591  20.390  0.4737 -0.5792 -1.3734
 1762TIP3    H229482   4.567   0.543  20.523 -0.8733  1.7277  0.0559
 1763TIP3   OH229483   4.127   5.359  18.360  0.0186  0.6339 -0.4334
 1763TIP3    H129484   4.208   5.320  18.326 -0.8155 -0.4488 -1.2358
 1763TIP3    H229485   4.092   5.293  18.420 -1.2326  0.2782 -1.5335
 1764TIP3   OH229486   1.838   1.196  18.872  0.0197  0.0027 -0.4955
 1764TIP3    H129487   1.747   1.216  18.854 -0.0460  0.0582 -0.1066
 1764TIP3    H229488   1.871   1.271  18.922 -0.0167 -0.4871  0.2836
 1765TIP3   OH229489   1.674   0.672  17.851  0.6140 -0.6956  0.0531
 1765TIP3    H129490   1.660   0.745  17.912  0.8755 -0.0961 -0.5970
 1765TIP3    H229491   1.691   0.596  17.908 -0.5276 -0.4471  0.7523
 1766TIP3   OH229492   4.172   0.677  18.578 -0.3424 -0.1489  0.0141
 1766TIP3    H129493   4.235   0.745  18.605  0.2287 -1.4409  2.1580
 1766TIP3    H229494   4.087   0.717  18.592 -0.0145  0.1532  1.2985
 1767TIP3   OH229495   1.673   3.444  18.414 -0.3505  0.3595 -0.4202
 1767TIP3    H129496   1.680   3.539  18.417 -0.4060  0.3429  0.5573
 1767TIP3    H229497   1.662   3.418  18.506  1.3403 -0.7158 -0.4879
 1768TIP3   OH229498   2.300   6.250  17.403 -0.1504 -0.4867 -0.9766
 1768TIP3    H129499   2.369   6.312  17.425 -1.5871  1.4453 -1.6507
 1768TIP3    H229500   2.325   6.215  17.318  0.1062  0.0474 -1.1260
 1769TIP3   OH229501   4.360   5.036  17.751  0.4415  0.3309  0.5043
 1769TIP3    H129502   4.288   5.007  17.695  0.4875  2.0652 -0.5059
 1769TIP3    H229503   4.400   4.955  17.783 -1.8113 -0.6783  0.9445
 1770TIP3   OH229504   3.477   2.360  19.637 -0.2712  0.3406 -0.1328
 1770TIP3    H129505   3.477   2.443  19.684  2.8973  0.3563  0.0755
 1770TIP3    H229506   3.493   2.294  19.705 -0.4511 -0.1940 -0.5986
 1771TIP3   OH229507   1.662   4.002  19.253 -0.3563 -0.5940  0.0015
 1771TIP3    H129508   1.591   3.938  19.263 -0.0981 -0.9952 -0.6580
 1771TIP3    H229509   1.690   4.021  19.342  1.1082 -3.1729  0.1771
 1772TIP3   OH229510   0.387   1.880  20.063 -0.0500 -0.1303 -0.2825
 1772TIP3    H129511   0.424   1.792  20.066  0.0473 -0.1638 -1.6827
 1772TIP3    H229512   0.462   1.938  20.058 -0.1293  0.0014  0.0185
 1773TIP3   OH229513   4.613   4.244  18.333 -0.3977 -0.4676 -0.1660
 1773TIP3    H129514   4.651   4.204  18.254 -0.7530 -0.7992 -0.1674
 1773TIP3    H229515   4.534   4.194  18.350 -0.2655 -0.4673  0.4730
 1774TIP3   OH229516   0.575   2.108  20.035 -0.6913  0.4013 -0.1227
 1774TIP3    H129517   0.523   2.165  19.979 -1.9869  0.4146  1.0449
 1774TIP3    H229518   0.582   2.156  20.118 -0.2227 -0.3301  0.2709
 1775TIP3   OH229519   4.155   0.416  20.255 -0.1163 -0.3089  0.1037
 1775TIP3    H129520   4.185   0.367  20.179  0.5241 -0.3931  0.4037
 1775TIP3    H229521   4.186   0.365  20.330  3.7436  2.2419  0.5344
 1776TIP3   OH229522   0.853   2.481  18.247 -0.0770  0.0534  0.0624
 1776TIP3    H129523   0.887   2.515  18.329 -0.0553  0.0652  0.0471
 1776TIP3    H229524   0.760   2.504  18.248 -0.3599 -1.0337  0.6502
 1777TIP3   OH229525   3.647   2.241  20.423 -0.0183 -0.0858 -0.6540
 1777TIP3    H129526   3.693   2.186  20.360  1.5339  1.4996 -0.9715
 1777TIP3    H229527   3.627   2.321  20.375 -0.0236  0.6110  0.4693
 1778TIP3   OH229528   4.804   0.499  19.648 -0.4441 -0.3207  0.6277
 1778TIP3    H129529   4.870   0.501  19.718  0.8059  1.3633 -0.4869
 1778TIP3    H229530   4.844   0.550  19.577 -1.0975 -2.9651 -1.8440
 1779TIP3   OH229531   5.443   0.421  19.295 -0.0177 -0.0793 -0.0312
 1779TIP3    H129532   5.488   0.492  19.251  1.8124 -1.0070  0.2563
 1779TIP3    H229533   5.456   0.345  19.238 -1.8717 -0.2358 -0.3047
 1780TIP3   OH229534   5.343   6.040  19.102 -0.0081  0.2205  0.1368
 1780TIP3    H129535   5.254   6.074  19.092  0.6633  1.4791 -2.3759
 1780TIP3    H229536   5.369   6.015  19.014  1.5260 -1.8245  1.0947
 1781TIP3   OH229537   6.316   1.970  19.117  0.4611  0.2853  0.0812
 1781TIP3    H129538   6.329   2.064  19.101 -0.0332  0.1524 -1.2338
 1781TIP3    H229539   6.405   1.933  19.115  0.6092  0.6388  0.0160
 1782TIP3   OH229540   0.508   6.261  17.936 -0.1339  0.2028 -0.0107
 1782TIP3    H129541   0.533   6.334  17.878  0.2306  1.0255  1.1426
 1782TIP3    H229542   0.584   6.203  17.935 -0.3595 -0.0976 -0.8025
 1783TIP3   OH229543   6.049   6.469  17.397 -0.3147 -0.1151  0.1131
 1783TIP3    H129544   6.083   6.558  17.392 -0.0681  0.0964  3.2510
 1783TIP3    H229545   6.125   6.413  17.380  0.0587  0.3100  0.3659
 1784TIP3   OH229546   4.558   1.017  16.722  0.0709  0.0502  0.5243
 1784TIP3    H129547   4.501   0.956  16.768 -0.8735  0.0280 -0.6091
 1784TIP3    H229548   4.634   0.965  16.695 -0.3893 -0.4595  0.1989
 1785TIP3   OH229549   5.070   0.791  18.094 -0.3443 -0.2167 -0.6468
 1785TIP3    H129550   5.013   0.825  18.164 -0.8096 -1.6598 -0.2880
 1785TIP3    H229551   5.152   0.769  18.138 -0.7448 -1.4217 -0.4601
 1786TIP3   OH229552   4.699   5.538  20.150  0.1344 -0.1507  0.0028
 1786TIP3    H129553   4.709   5.444  20.135  0.5728 -0.3476  1.4048
 1786TIP3    H229554   4.772   5.578  20.102 -0.4049 -0.4522 -1.1048
 1787TIP3   OH229555   5.718   2.849  20.074  0.0210  0.2487  0.0482
 1787TIP3    H129556   5.670   2.923  20.036 -0.1269 -1.6097 -3.9951
 1787TIP3    H229557   5.667   2.825  20.151 -1.4843  2.6396 -0.0899
 1788TIP3   OH229558   1.882   4.152  17.401 -0.3882 -0.1518  0.3095
 1788TIP3    H129559   1.797   4.114  17.377  0.3954 -0.5407 -2.1729
 1788TIP3    H229560   1.903   4.211  17.329  1.5853 -0.3231  0.6821
 1789TIP3   OH229561   2.143   2.371  18.518  0.8476  0.1613 -0.2696
 1789TIP3    H129562   2.138   2.433  18.445  0.4064  1.0365  0.4852
 1789TIP3    H229563   2.200   2.301  18.486  0.3663  0.3453 -1.5812
 1790TIP3   OH229564   1.369   2.643  17.554  0.4742 -0.0498 -0.3757
 1790TIP3    H129565   1.409   2.633  17.640 -1.0035 -1.7054  0.1927
 1790TIP3    H229566   1.421   2.711  17.511  2.2424 -0.2964  1.2138
 1791TIP3   OH229567   2.537   5.967  19.740 -0.0448  0.6096 -0.4409
 1791TIP3    H129568   2.622   5.956  19.782 -0.5007 -0.2416  0.3160
 1791TIP3    H229569   2.518   6.061  19.746  1.0106  0.8659 -0.9916
 1792TIP3   OH229570   0.969   1.367  17.537  0.1678 -0.3712 -0.8886
 1792TIP3    H129571   0.976   1.341  17.629 -0.5396  0.2866 -0.6355
 1792TIP3    H229572   1.043   1.325  17.494 -0.9374 -2.9017 -0.5145
 1793TIP3   OH229573   6.398   2.691  18.089 -0.1565 -0.2339  0.9199
 1793TIP3    H129574   6.320   2.660  18.043  0.3485  0.0778 -0.1760
 1793TIP3    H229575   6.443   2.611  18.117 -1.1308 -0.4173  2.0732
 1794TIP3   OH229576   4.874   4.380  18.390  0.7770  0.7149 -0.5789
 1794TIP3    H129577   4.795   4.328  18.394 -0.5907  2.7226  0.0487
 1794TIP3    H229578   4.900   4.379  18.298 -1.1600  1.6334 -1.1740
 1795TIP3   OH229579   5.177   5.649  18.515 -0.3175  0.2988  0.0451
 1795TIP3    H129580   5.191   5.597  18.436 -0.8082  0.6608 -0.2892
 1795TIP3    H229581   5.082   5.663  18.518 -0.3234  0.1293  0.8008
 1796TIP3   OH229582   6.485   1.226  19.733  0.0359 -0.1465  0.2699
 1796TIP3    H129583   6.575   1.195  19.723 -0.3967 -0.7877 -2.2716
 1796TIP3    H229584   6.494   1.319  19.754  1.2717 -0.6374  2.1701
 1797TIP3   OH229585   6.567   4.411  18.546 -0.0157 -0.3736 -0.1242
 1797TIP3    H129586   6.660   4.399  18.527  0.1973  0.3929  0.3738
 1797TIP3    H229587   6.563   4.494  18.595 -1.0504  0.0293 -0.8570
 1798TIP3   OH229588   5.964   2.873  17.647  0.2578 -0.7471 -0.2451
 1798TIP3    H129589   6.007   2.957  17.633 -0.1833 -0.5575 -0.4729
 1798TIP3    H229590   6.033   2.808  17.630  0.4828 -0.4437 -0.5054
 1799TIP3   OH229591   4.544   0.486  18.403  0.5927 -0.0118 -0.3536
 1799TIP3    H129592   4.508   0.521  18.321  1.7649  0.1865 -0.7982
 1799TIP3    H229593   4.467   0.454  18.451 -0.1161 -0.1264 -1.5267
 1800TIP3   OH229594   4.493   6.483  17.529  0.2330  0.3618  0.4673
 1800TIP3    H129595   4.555   6.540  17.482 -0.7591 -1.1106 -2.9044
 1800TIP3    H229596   4.548   6.420  17.575  1.2858  0.7625 -0.2127
 1801TIP3   OH229597   6.683   2.831  18.416 -0.8181  0.7169 -0.0724
 1801TIP3    H129598   6.593   2.802  18.431 -0.8386  0.7317 -0.1592
 1801TIP3    H229599   6.736   2.752  18.422 -0.7345  0.8324  0.7824
 1802TIP3   OH229600   3.877   4.091  20.633 -0.4498 -0.0570 -0.3321
 1802TIP3    H129601   3.855   4.078  20.541 -1.3013  0.0844 -0.1555
 1802TIP3    H229602   3.798   4.127  20.672  0.5878  1.9867  0.0052
 1803TIP3   OH229603   2.282   0.385  19.486  0.1476  0.0001  0.2927
 1803TIP3    H129604   2.242   0.302  19.514 -1.7239 -0.2970 -2.8718
 1803TIP3    H229605   2.211   0.449  19.492  0.0733  0.2221 -2.0818
 1804TIP3   OH229606   1.377   0.107  19.317 -0.1077  0.0863  0.2297
 1804TIP3    H129607   1.287   0.092  19.344 -0.6217  1.8717 -0.3875
 1804TIP3    H229608   1.425   0.119  19.399  0.1622 -3.3256  0.7446
 1805TIP3   OH229609   4.980   6.496  18.966 -0.3251 -0.2233 -0.2203
 1805TIP3    H129610   4.970   6.403  18.948  0.7162 -0.4960  0.4863
 1805TIP3    H229611   4.891   6.531  18.965 -0.8064 -1.3818  0.3533
 1806TIP3   OH229612   1.202   0.976  19.534  0.2419 -0.0052  0.8563
 1806TIP3    H129613   1.201   1.019  19.449  0.3724 -2.5268 -0.5103
 1806TIP3    H229614   1.127   0.916  19.532  1.3634 -1.5178  1.6964
 1807TIP3   OH229615   5.390   1.144  19.114 -0.0608  0.1509 -0.2102
 1807TIP3    H129616   5.450   1.168  19.185 -0.1616  2.4233 -0.8393
 1807TIP3    H229617   5.357   1.057  19.139 -0.1335  0.8945  2.5223
 1808TIP3   OH229618   4.696   1.794  19.654  0.1951  0.0879 -0.6726
 1808TIP3    H129619   4.656   1.707  19.654  1.2576 -0.4243  0.2814
 1808TIP3    H229620   4.790   1.777  19.645  0.2684  1.2428 -2.4867
 1809TIP3   OH229621   1.818   6.293  19.535 -0.3694  0.1010  0.0298
 1809TIP3    H129622   1.792   6.206  19.505  1.5894  0.3686 -2.9207
 1809TIP3    H229623   1.736   6.336  19.559 -1.6568 -1.7138 -0.9193
 1810TIP3   OH229624   6.192   6.168  17.246  0.1441  0.2487  0.1398
 1810TIP3    H129625   6.222   6.241  17.300  1.7952 -0.5125  0.2861
 1810TIP3    H229626   6.160   6.103  17.308  3.0609 -1.0954  0.3951
 1811TIP3   OH229627   1.242   3.115  18.936  0.5398 -0.0627  0.3737
 1811TIP3    H129628   1.180   3.180  18.969  0.8166  0.1435  0.4907
 1811TIP3    H229629   1.321   3.128  18.988  0.7153 -0.2576  0.1585
 1812TIP3   OH229630   5.952   3.610  17.973  0.2385 -0.0668 -0.6113
 1812TIP3    H129631   5.956   3.608  17.877 -1.0868 -0.3376 -0.6829
 1812TIP3    H229632   5.858   3.612  17.993  0.4738 -1.0039  0.7074
 1813TIP3   OH229633   4.954   1.231  19.526  0.9788 -0.2749  0.3881
 1813TIP3    H129634   5.049   1.229  19.515  1.1097  1.5846  0.8543
 1813TIP3    H229635   4.927   1.314  19.487 -0.5651 -1.0937 -0.3883
 1814TIP3   OH229636   5.639   3.354  20.298  0.1136  0.4154  0.4814
 1814TIP3    H129637   5.649   3.449  20.288  1.1547  0.3334  0.5803
 1814TIP3    H229638   5.572   3.344  20.365 -1.7251  1.0386 -1.1920
 1815TIP3   OH229639   5.088   5.752  20.562 -0.2162 -0.2691 -0.0376
 1815TIP3    H129640   5.021   5.750  20.495  2.0252  1.7383 -2.5600
 1815TIP3    H229641   5.157   5.694  20.529  0.6209  0.1630  0.8994
 1816TIP3   OH229642   0.210   5.528  17.753 -0.1786 -0.1947 -0.1691
 1816TIP3    H129643   0.161   5.533  17.835  0.5388 -0.8663  0.3127
 1816TIP3    H229644   0.207   5.435  17.729 -1.3621  0.1601 -1.5227
 1817TIP3   OH229645   6.371   5.679  18.474  0.1544  0.3364 -0.4881
 1817TIP3    H129646   6.312   5.702  18.546  0.7394  1.0851 -0.2323
 1817TIP3    H229647   6.441   5.743  18.480  1.2757 -0.8483 -0.4549
 1818TIP3   OH229648   6.281   2.102  18.190  0.4383  0.3281  0.4833
 1818TIP3    H129649   6.273   2.160  18.266 -0.2355 -0.1993  0.8251
 1818TIP3    H229650   6.267   2.014  18.225  2.5947 -0.1920  0.1816
 1819TIP3   OH229651   0.300   4.597  18.750  0.0064  0.4671 -0.0820
 1819TIP3    H129652   0.335   4.508  18.756 -0.5313  0.2844  0.3690
 1819TIP3    H229653   0.256   4.600  18.664  1.3323  0.7831 -0.7748
 1820TIP3   OH229654   0.736   1.676  20.167  0.3234 -0.0135  0.2497
 1820TIP3    H129655   0.719   1.628  20.087 -1.3164 -1.4055  1.3658
 1820TIP3    H229656   0.808   1.629  20.209  0.8548  0.4301 -0.1428
 1821TIP3   OH229657   6.124   3.553  19.185  0.1553 -0.0335 -0.4310
 1821TIP3    H129658   6.112   3.582  19.095 -1.0797 -1.4844 -0.7695
 1821TIP3    H229659   6.196   3.607  19.218  0.5538  0.6046 -2.2335
 1822TIP3   OH229660   2.775   5.527  18.502 -0.3032  0.1970  0.7319
 1822TIP3    H129661   2.764   5.620  18.483 -0.9067 -0.1519 -0.7717
 1822TIP3    H229662   2.687   5.491  18.500  0.0431 -0.6457 -0.0993
 1823TIP3   OH229663   3.897   0.870  17.246 -0.4224  0.0156 -0.6192
 1823TIP3    H129664   3.911   0.845  17.337 -1.2447  1.1625 -0.1628
 1823TIP3    H229665   3.890   0.787  17.199  0.0294 -0.5822  0.3476
 1824TIP3   OH229666   5.906   1.864  20.096 -0.2798  0.1731 -0.5434
 1824TIP3    H129667   5.899   1.903  20.183 -0.2381 -0.0961 -0.4189
 1824TIP3    H229668   5.986   1.811  20.099 -0.2190  0.2525 -0.7803
 1825TIP3   OH229669   5.553   5.042  18.455  0.3084  0.2420 -0.0785
 1825TIP3    H129670   5.542   5.018  18.547  0.9783 -1.0119 -0.3002
 1825TIP3    H229671   5.508   4.973  18.406  0.5599  0.5130 -0.7075
 1826TIP3   OH229672   6.414   5.523  17.709 -0.3593  0.0686 -0.2036
 1826TIP3    H129673   6.474   5.489  17.643 -0.8187  0.0373 -0.6121
 1826TIP3    H229674   6.388   5.609  17.676  1.0125  0.9627  0.9625
 1827TIP3   OH229675   1.297   3.187  19.899  0.0433  0.9115  0.1739
 1827TIP3    H129676   1.325   3.276  19.920 -1.0185  1.6762 -1.4937
 1827TIP3    H229677   1.230   3.167  19.964 -0.2484  1.6227  0.0963
 1828TIP3   OH229678   4.420   6.182  18.562  0.4924  0.2679 -0.1966
 1828TIP3    H129679   4.502   6.209  18.603  0.5802  0.1318 -0.2844
 1828TIP3    H229680   4.369   6.145  18.634  0.9818 -0.7594 -0.3617
 1829TIP3   OH229681   0.408   6.557  17.849  0.4699 -0.0444 -0.3891
 1829TIP3    H129682   0.388   6.650  17.848 -2.0097 -0.4465 -3.2688
 1829TIP3    H229683   0.498   6.551  17.816  0.4732  1.2676 -0.6565
 1830TIP3   OH229684   3.222   3.754  16.946 -0.1197  0.3716  0.6723
 1830TIP3    H129685   3.171   3.798  16.878  1.1057 -1.4223 -1.5343
 1830TIP3    H229686   3.311   3.788  16.935  0.6438 -1.8212 -0.4526
 1831TIP3   OH229687   0.660   4.987  18.852 -0.3920  0.6379  0.6085
 1831TIP3    H129688   0.661   5.029  18.938 -3.4874  1.1923  0.5018
 1831TIP3    H229689   0.577   4.939  18.850  0.3475 -0.6714 -1.4884
 1832TIP3   OH229690   3.530   4.038  17.552 -0.2138  1.0518 -0.4972
 1832TIP3    H129691   3.480   4.098  17.495  0.4019  2.2762  0.2025
 1832TIP3    H229692   3.482   3.956  17.548 -0.6461  1.3374 -2.1359
 1833TIP3   OH229693   1.674   5.418  20.598  0.2734  0.0052  0.1399
 1833TIP3    H129694   1.585   5.434  20.629  0.2397  0.1357 -0.0267
 1833TIP3    H229695   1.714   5.367  20.668 -0.5687 -1.8559 -0.6538
 1834TIP3   OH229696   2.392   1.066  19.881  0.0736  0.0831 -0.2724
 1834TIP3    H129697   2.332   1.131  19.918 -0.7479 -0.8091  0.0405
 1834TIP3    H229698   2.363   1.055  19.791  0.5886  0.5752 -0.4994
 1835TIP3   OH229699   5.180   1.516  17.924 -0.7310 -0.3774 -0.1339
 1835TIP3    H129700   5.267   1.481  17.945 -1.0934 -1.3053 -0.1719
 1835TIP3    H229701   5.198   1.605  17.893  0.0880 -0.0481  1.1705
 1836TIP3   OH229702   5.821   0.370  20.399  0.0515 -0.0018  0.4493
 1836TIP3    H129703   5.913   0.391  20.378  0.1810 -1.0705 -0.1094
 1836TIP3    H229704   5.817   0.275  20.393 -1.4819  0.1272 -1.1342
 1837TIP3   OH229705   0.510   1.010  20.501 -0.3329  0.7985  0.8616
 1837TIP3    H129706   0.534   1.091  20.455 -1.4908  0.4939 -0.3397
 1837TIP3    H229707   0.585   0.991  20.556  0.7820  1.6440 -0.2994
 1838TIP3   OH229708   4.729   2.723  17.642  0.2792 -0.2967 -0.6717
 1838TIP3    H129709   4.785   2.690  17.713  0.7374  0.1335 -0.8368
 1838TIP3    H229710   4.780   2.710  17.562  0.8495  1.5926 -0.6698
 1839TIP3   OH229711   4.763   1.489  18.211  0.5982  0.1150  0.3357
 1839TIP3    H129712   4.732   1.454  18.295 -2.4732 -2.6153 -1.7131
 1839TIP3    H229713   4.828   1.426  18.181  1.0219  0.5969  0.2254
 1840TIP3   OH229714   3.143   1.777  18.846  0.1364  0.0897 -0.1112
 1840TIP3    H129715   3.060   1.757  18.803  0.5831 -1.6118 -0.2669
 1840TIP3    H229716   3.126   1.766  18.939  0.3553 -1.0581 -0.1892
 1841TIP3   OH229717   2.072   6.429  18.730  0.1937 -0.1629  0.2578
 1841TIP3    H129718   2.004   6.492  18.705  0.5387  0.3205  0.5327
 1841TIP3    H229719   2.062   6.420  18.825 -0.3260 -1.0833  0.1305
 1842TIP3   OH229720   4.980   3.896  17.701  0.3276  0.0827  0.0874
 1842TIP3    H129721   4.937   3.875  17.618  1.5047  1.0459 -0.7972
 1842TIP3    H229722   4.990   3.811  17.744 -0.5376 -0.4069 -0.6230
 1843TIP3   OH229723   5.606   2.015  18.161  0.7932  0.2518 -0.3913
 1843TIP3    H129724   5.692   2.057  18.173  0.6286  0.1896  1.1196
 1843TIP3    H229725   5.624   1.940  18.104  1.5894  0.7094 -0.7689
 1844TIP3   OH229726   0.573   6.209  20.434 -0.2661  0.8922  0.1292
 1844TIP3    H129727   0.483   6.239  20.441  0.0477  1.6804  1.0312
 1844TIP3    H229728   0.612   6.230  20.519  1.4265  2.7787 -1.0387
 1845TIP3   OH229729   6.288   6.045  18.411  0.1926  0.1102  0.3625
 1845TIP3    H129730   6.277   5.956  18.444  1.2043 -0.0813  0.2177
 1845TIP3    H229731   6.202   6.086  18.425  0.0870 -0.4759  1.6300
 1846TIP3   OH229732   6.639   6.689  18.710  0.4277  0.5048 -0.0579
 1846TIP3    H129733   6.685   6.773  18.711 -1.2623  1.4941 -0.8605
 1846TIP3    H229734   6.547   6.713  18.713 -0.0824 -1.3707  0.1956
 1847TIP3   OH229735   3.363   3.059  17.650  0.4302 -0.0705 -0.1743
 1847TIP3    H129736   3.347   3.010  17.569 -3.3523 -1.8185  1.3774
 1847TIP3    H229737   3.295   3.126  17.652  0.0295 -0.4722  1.7985
 1848TIP3   OH229738   4.382   5.524  17.785  0.2479 -0.1759  0.0620
 1848TIP3    H129739   4.299   5.483  17.809 -0.6500  1.1829 -0.6102
 1848TIP3    H229740   4.362   5.617  17.778  1.8591  0.1952 -0.0376
 1849TIP3   OH229741   4.115   0.626  19.213 -0.2679 -0.0488 -0.1978
 1849TIP3    H129742   4.089   0.558  19.274  0.0195 -0.4966 -0.5693
 1849TIP3    H229743   4.032   0.671  19.191 -0.8411 -1.6670 -1.6096
 1850TIP3   OH229744   1.147   1.539  19.499 -0.3632  0.5661  0.1849
 1850TIP3    H129745   1.155   1.577  19.587  4.1435 -0.1707  0.3485
 1850TIP3    H229746   1.100   1.457  19.513 -1.5917  1.4320  1.4801
 1851TIP3   OH229747   4.635   1.240  19.118 -0.3331 -0.3365 -0.9419
 1851TIP3    H129748   4.696   1.174  19.085  0.9311  0.8451 -1.0502
 1851TIP3    H229749   4.597   1.201  19.196  1.8517 -0.4796  0.1120
 1852TIP3   OH229750   2.322   3.628  17.961 -0.1854 -0.0340 -0.1901
 1852TIP3    H129751   2.400   3.587  17.924 -0.2518  1.3597 -2.0354
 1852TIP3    H229752   2.253   3.609  17.898 -1.0098 -0.0658  0.7108
 1853TIP3   OH229753   3.976   3.771  19.471 -0.0357 -0.3964 -0.0912
 1853TIP3    H129754   3.964   3.692  19.523  1.3901 -0.9936 -0.6191
 1853TIP3    H229755   3.898   3.776  19.416 -1.5966  0.2520  2.0237
 1854TIP3   OH229756   2.735   5.669  19.100 -0.1580 -0.5649  0.3190
 1854TIP3    H129757   2.786   5.701  19.175 -1.1396  0.5040  0.5563
 1854TIP3    H229758   2.801   5.647  19.034  0.7565 -1.9721  1.6306
 1855TIP3   OH229759   2.620   0.792  17.320  0.1309 -0.2615 -0.1213
 1855TIP3    H129760   2.693   0.794  17.257  0.0441 -1.1528 -0.2645
 1855TIP3    H229761   2.544   0.767  17.267 -0.1431 -0.0003  0.1501
 1856TIP3   OH229762   3.904   6.299  17.787 -0.1450  0.6614  0.3727
 1856TIP3    H129763   3.987   6.327  17.749 -0.6748  1.4060 -0.2724
 1856TIP3    H229764   3.841   6.365  17.759 -1.2476 -0.6210 -0.3038
 1857TIP3   OH229765   1.647   6.602  17.504  0.4204  0.1366 -0.6418
 1857TIP3    H129766   1.558   6.636  17.498  0.3280  0.0008 -0.1167
 1857TIP3    H229767   1.703   6.679  17.490  0.2123  0.5736  0.7663
 1858TIP3   OH229768   4.010   2.869  20.626 -0.3082  0.4691  0.2028
 1858TIP3    H129769   4.009   2.778  20.596 -1.6465  0.5702 -0.0886
 1858TIP3    H229770   3.937   2.875  20.687  0.4138  1.1048  1.0358
 1859TIP3   OH229771   5.472   5.951  19.630 -0.1818  0.3859 -0.5041
 1859TIP3    H129772   5.428   5.959  19.545  0.2468 -2.1614 -1.0607
 1859TIP3    H229773   5.558   5.915  19.609 -0.4448 -1.2969  1.0219
 1860TIP3   OH229774   0.858   4.648  17.993 -0.1319  0.0389 -0.1207
 1860TIP3    H129775   0.931   4.586  18.000  0.8351  1.1134 -0.4230
 1860TIP3    H229776   0.814   4.624  17.911 -0.5904 -1.0879  0.4348
 1861TIP3   OH229777   3.929   1.259  19.690  0.1927 -0.2187  0.2955
 1861TIP3    H129778   3.924   1.239  19.596 -1.6041 -0.4915  0.4167
 1861TIP3    H229779   4.023   1.268  19.707  0.6246 -1.1358 -1.3250
 1862TIP3   OH229780   1.417   1.593  19.807 -0.7596  0.3883 -0.4039
 1862TIP3    H129781   1.431   1.569  19.899  0.1370  2.8466  0.1716
 1862TIP3    H229782   1.496   1.563  19.762 -1.6875 -1.8400 -0.6456
 1863TIP3   OH229783   4.423   3.627  19.265 -0.0550  0.7455  0.1826
 1863TIP3    H129784   4.332   3.653  19.249  0.2350  2.0382  0.5388
 1863TIP3    H229785   4.464   3.628  19.179 -0.3260  0.3844  0.0509
 1864TIP3   OH229786   3.029   2.214  19.179  0.4185 -0.3549  0.2862
 1864TIP3    H129787   3.095   2.157  19.219  0.6601 -0.7322 -0.6150
 1864TIP3    H229788   3.022   2.183  19.089 -0.6154  0.0272  0.2203
 1865TIP3   OH229789   2.199   3.803  20.680  0.2880 -0.1354 -0.1988
 1865TIP3    H129790   2.167   3.817  20.591 -0.1691 -1.9619 -0.3760
 1865TIP3    H229791   2.129   3.835  20.736 -1.0791 -2.2778 -0.5732
 1866TIP3   OH229792   3.970   4.818  18.847 -0.3777  0.0153  0.1525
 1866TIP3    H129793   3.950   4.902  18.888  0.9996  0.4254  0.0380
 1866TIP3    H229794   4.021   4.841  18.769 -1.5221 -0.8404 -0.8817
 1867TIP3   OH229795   0.689   6.491  17.835 -0.1066  0.3232 -0.2472
 1867TIP3    H129796   0.769   6.465  17.881  0.5616  0.8306 -1.0700
 1867TIP3    H229797   0.711   6.481  17.742 -0.9016  0.7546 -0.4912
 1868TIP3   OH229798   5.940   6.623  18.836  0.4638  0.2293  0.2556
 1868TIP3    H129799   5.891   6.542  18.853  0.9160  0.3985  2.7748
 1868TIP3    H229800   6.029   6.593  18.816  0.1410  0.0431 -0.9317
 1869TIP3   OH229801   4.283   1.508  21.019  0.1835  0.0479 -0.4645
 1869TIP3    H129802   4.282   1.528  21.112  2.4520 -1.2278 -0.0979
 1869TIP3    H229803   4.193   1.483  20.999 -0.3346  0.2839  1.3970
 1870TIP3   OH229804   3.218   3.819  18.576  0.2371 -0.4503  0.1415
 1870TIP3    H129805   3.238   3.905  18.615 -1.2017 -0.4967  1.0563
 1870TIP3    H229806   3.297   3.796  18.527  0.4188  1.7105 -0.6895
 1871TIP3   OH229807   5.483   4.497  19.609 -0.7318  0.4365  0.1613
 1871TIP3    H129808   5.453   4.426  19.666 -0.3309  2.0331  2.5198
 1871TIP3    H229809   5.409   4.558  19.608 -0.8177  0.3242 -1.2806
 1872TIP3   OH229810   6.470   4.707  20.447  0.2463 -0.1146 -0.5163
 1872TIP3    H129811   6.446   4.796  20.423  0.2012 -0.3848 -1.5409
 1872TIP3    H229812   6.521   4.716  20.527  0.5321  0.8617 -0.7948
 1873TIP3   OH229813   5.192   0.572  19.694 -0.0182  0.4209 -0.6273
 1873TIP3    H129814   5.271   0.557  19.641  0.1115  0.1990 -0.3719
 1873TIP3    H229815   5.224   0.622  19.770  0.6195 -2.9286  1.4996
 1874TIP3   OH229816   6.103   2.124  17.914  0.1491 -0.1832 -0.0009
 1874TIP3    H129817   6.112   2.035  17.880  3.2154  0.7262 -2.0198
 1874TIP3    H229818   6.143   2.121  18.000 -1.4978 -1.0992  0.7679
 1875TIP3   OH229819   2.391   2.234  18.472 -0.5657  0.2518  0.3948
 1875TIP3    H129820   2.351   2.179  18.405 -0.1500 -1.1865  1.2714
 1875TIP3    H229821   2.483   2.208  18.473 -0.9931 -1.6114  3.1613
 1876TIP3   OH229822   5.278   2.518  17.908 -0.1862  0.3852 -0.0253
 1876TIP3    H129823   5.260   2.574  17.832  2.2223  1.0481 -0.1766
 1876TIP3    H229824   5.249   2.569  17.983  2.3879  2.1573 -0.1234
 1877TIP3   OH229825   4.888   5.726  18.539 -0.7978  0.6428  0.1284
 1877TIP3    H129826   4.852   5.715  18.452  1.6099 -0.2978 -0.8392
 1877TIP3    H229827   4.861   5.814  18.566 -0.2528  1.6108 -2.2663
 1878TIP3   OH229828   1.340   3.323  18.737  0.1981  0.7815  0.3757
 1878TIP3    H129829   1.309   3.336  18.647  0.0952 -0.6118  0.1949
 1878TIP3    H229830   1.283   3.256  18.773  1.6698 -0.3571  0.7061
 1879TIP3   OH229831   4.322   2.334  19.680 -0.0416  0.3084 -0.0143
 1879TIP3    H129832   4.400   2.385  19.702  0.3957 -0.4344  0.1958
 1879TIP3    H229833   4.318   2.335  19.584  1.6991 -1.7529 -0.1827
 1880TIP3   OH229834   3.938   5.773  18.353  0.5182 -0.2395 -1.1459
 1880TIP3    H129835   3.873   5.737  18.293  0.1584 -0.1857 -0.7966
 1880TIP3    H229836   3.974   5.850  18.308  0.8772 -0.7004 -1.6513
 1881TIP3   OH229837   1.286   0.235  18.499  0.9213 -0.0840  0.4549
 1881TIP3    H129838   1.356   0.285  18.457  0.7036 -0.6569 -0.6187
 1881TIP3    H229839   1.212   0.241  18.438  0.3533 -0.3236  1.1031
 1882TIP3   OH229840   3.432   2.558  18.033  0.1067  0.1828 -0.5311
 1882TIP3    H129841   3.489   2.522  18.101  0.4169 -0.4612 -1.1177
 1882TIP3    H229842   3.462   2.516  17.952 -1.0090  0.0474 -0.8910
 1883TIP3   OH229843   1.729   3.883  18.710 -0.6512 -0.0109  0.6184
 1883TIP3    H129844   1.665   3.848  18.649 -2.6020  1.5698  1.6428
 1883TIP3    H229845   1.694   3.862  18.797  1.5783 -1.3879  1.2741
 1884TIP3   OH229846   5.815   0.393  18.543  0.9711 -0.5521  0.0033
 1884TIP3    H129847   5.833   0.366  18.633 -0.6848  1.5059  1.0359
 1884TIP3    H229848   5.754   0.327  18.510  0.3386 -0.4538  0.9518
 1885TIP3   OH229849   4.870   5.306  17.444 -0.1290  0.8222  0.2960
 1885TIP3    H129850   4.815   5.229  17.432  0.9436 -0.1480  1.2969
 1885TIP3    H229851   4.825   5.359  17.510 -1.6831  1.9166 -1.5217
 1886TIP3   OH229852   4.808   5.279  20.118  0.1558 -0.1597 -0.4359
 1886TIP3    H129853   4.883   5.224  20.139  1.8574  2.6050  1.5195
 1886TIP3    H229854   4.824   5.309  20.028  1.4399  0.3882 -0.0413
 1887TIP3   OH229855   4.093   4.950  19.563  0.1457  0.2809 -0.0515
 1887TIP3    H129856   4.035   4.874  19.571 -0.5289  0.5384 -1.9352
 1887TIP3    H229857   4.034   5.024  19.550  0.7786  1.2368  2.0389
 1888TIP3   OH229858   4.292   5.620  19.178 -0.2753 -0.2612 -0.0470
 1888TIP3    H129859   4.280   5.536  19.134 -2.5818  0.6280 -1.3188
 1888TIP3    H229860   4.286   5.685  19.107  1.6643  0.9922  0.8657
 1889TIP3   OH229861   4.811   1.689  20.098 -0.5282  0.6696 -0.0092
 1889TIP3    H129862   4.764   1.726  20.024 -2.1892 -1.5139 -0.1352
 1889TIP3    H229863   4.743   1.659  20.158  0.6604 -1.3134  0.4637
 1890TIP3   OH229864   1.156   2.217  19.919 -0.2811  0.8414 -0.1553
 1890TIP3    H129865   1.096   2.211  19.845  1.8022 -0.4456 -1.8913
 1890TIP3    H229866   1.232   2.264  19.884  1.0408 -0.4003  0.9204
 1891TIP3   OH229867   2.608   5.066  19.322  0.1487  0.4038  0.1461
 1891TIP3    H129868   2.592   4.972  19.323 -1.0679  0.5934  1.2239
 1891TIP3    H229869   2.568   5.097  19.241 -0.8116  0.1981  0.5341
 1892TIP3   OH229870   0.689   3.200  19.728 -0.0972 -0.2523 -0.4520
 1892TIP3    H129871   0.682   3.105  19.725 -0.5961 -0.1972 -1.4302
 1892TIP3    H229872   0.770   3.217  19.777  0.4102 -1.1829 -0.9484
 1893TIP3   OH229873   6.155   1.538  19.878  0.3524 -0.0687 -0.1836
 1893TIP3    H129874   6.130   1.531  19.970  0.6489 -1.7082 -0.1853
 1893TIP3    H229875   6.235   1.589  19.878  0.7109 -0.6127  0.5502
 1894TIP3   OH229876   5.975   1.407  18.991 -0.5456  0.0190  0.1483
 1894TIP3    H129877   6.064   1.371  18.988 -1.0844 -1.4536  1.1067
 1894TIP3    H229878   5.984   1.495  18.954  1.0843 -0.5403 -0.9061
 1895TIP3   OH229879   2.304   5.087  20.688 -0.1430 -0.0585  0.1286
 1895TIP3    H129880   2.254   5.159  20.650  0.1591 -1.2696 -2.8707
 1895TIP3    H229881   2.304   5.020  20.620  0.7815 -2.3606  2.2413
 1896TIP3   OH229882   5.915   5.426  19.112 -0.1652 -0.4953 -0.0399
 1896TIP3    H129883   5.919   5.432  19.208  1.5319 -2.2348  0.0874
 1896TIP3    H229884   5.875   5.340  19.095 -1.9655  0.4784 -0.9668
 1897TIP3   OH229885   4.773   0.581  18.602  0.0275  0.1146  0.4888
 1897TIP3    H129886   4.717   0.632  18.544  1.7293 -0.1252 -1.4552
 1897TIP3    H229887   4.764   0.491  18.571 -1.4756 -0.6091  2.6949
 1898TIP3   OH229888   0.509   2.626  20.543  0.4454  0.4858  0.3302
 1898TIP3    H129889   0.537   2.716  20.527  0.3833  0.2875 -0.9958
 1898TIP3    H229890   0.415   2.627  20.525  0.4069  0.2023  0.5175
 1899TIP3   OH229891   3.005   1.286  17.551  0.1153 -0.1250  0.0393
 1899TIP3    H129892   3.019   1.332  17.634 -1.4490  0.7783 -0.1582
 1899TIP3    H229893   3.061   1.333  17.488 -0.3063  0.5363  0.1547
 1900TIP3   OH229894   1.658   1.573  18.601  0.1330  0.4733  0.2864
 1900TIP3    H129895   1.627   1.578  18.691  0.8459 -0.6346  0.6186
 1900TIP3    H229896   1.587   1.532  18.552 -0.1726  0.8835  0.3878
 1901TIP3   OH229897   3.370   2.356  19.220 -0.1113  0.1027  0.4603
 1901TIP3    H129898   3.445   2.299  19.203 -0.4445 -0.3554  0.5070
 1901TIP3    H229899   3.356   2.349  19.314  0.0496  0.5170  0.5131
 1902TIP3   OH229900   2.181   1.449  20.533 -0.0778 -0.2738  0.1359
 1902TIP3    H129901   2.241   1.406  20.594  0.6783  1.3391  0.5742
 1902TIP3    H229902   2.208   1.417  20.447  0.8943 -0.1934  0.3939
 1903TIP3   OH229903   3.937   1.808  17.918  0.1660  0.0444  0.2384
 1903TIP3    H129904   3.934   1.877  17.851  0.6761  0.0394  0.2093
 1903TIP3    H229905   3.961   1.729  17.869 -0.9281 -0.2688  0.1841
 1904TIP3   OH229906   3.608   1.408  20.089  0.0152 -0.0937  0.0053
 1904TIP3    H129907   3.685   1.358  20.115  1.3838  1.1557 -1.4141
 1904TIP3    H229908   3.642   1.477  20.031 -2.2766 -0.1301 -1.5475
 1905TIP3   OH229909   3.096   2.394  20.300  0.3119 -0.4238  0.3821
 1905TIP3    H129910   3.030   2.360  20.240 -1.4411  2.1303  0.7176
 1905TIP3    H229911   3.126   2.317  20.349 -0.7349 -2.0041 -1.3291
 1906TIP3   OH229912   6.381   6.038  19.830 -0.3995 -0.4490 -0.2119
 1906TIP3    H129913   6.404   5.998  19.746  0.1507  0.1352 -0.3458
 1906TIP3    H229914   6.334   6.118  19.807 -2.4895 -1.5085  0.0543
 1907TIP3   OH229915   1.672   4.537  18.854  0.0736 -0.1545 -0.4322
 1907TIP3    H129916   1.663   4.632  18.853  2.6812  0.1893  0.4667
 1907TIP3    H229917   1.729   4.519  18.929 -1.7480 -2.6297  0.5190
 1908TIP3   OH229918   1.928   4.709  20.782  0.4080  0.2269 -0.3523
 1908TIP3    H129919   1.957   4.648  20.849  0.8343  1.0051  0.1849
 1908TIP3    H229920   2.008   4.735  20.737  0.3352  0.9871 -0.0597
 1909TIP3   OH229921   0.672   4.528  18.864 -0.6551 -0.3788  0.2693
 1909TIP3    H129922   0.610   4.486  18.923 -0.2714  1.5005  2.1422
 1909TIP3    H229923   0.700   4.606  18.911  1.3350  0.0818 -1.5341
 1910TIP3   OH229924   3.097   5.264  20.876  0.1474  0.1669  0.6391
 1910TIP3    H129925   3.100   5.350  20.833  0.0217 -0.2048 -0.1285
 1910TIP3    H229926   3.004   5.249  20.893  0.3419  1.3713  3.2710
 1911TIP3   OH229927   4.033   4.074  19.914  0.3556 -0.3979 -0.0484
 1911TIP3    H129928   3.979   4.097  19.990  0.0958 -0.4488 -0.2173
 1911TIP3    H229929   4.115   4.121  19.928 -0.3686  1.1255 -0.6850
 1912TIP3   OH229930   1.389   2.130  17.951 -0.1159 -0.1940 -0.2046
 1912TIP3    H129931   1.324   2.127  17.881 -0.8222  0.8168  0.3744
 1912TIP3    H229932   1.407   2.223  17.963  0.5391 -0.3991  0.4573
 1913TIP3   OH229933   1.723   3.188  19.607 -0.1292 -0.0327  0.3099
 1913TIP3    H129934   1.658   3.148  19.664  0.1938 -2.2734 -0.7837
 1913TIP3    H229935   1.760   3.115  19.557  1.5602  1.4691 -0.7850
 1914TIP3   OH229936   3.677   2.723  18.895  0.9278 -0.4447 -0.4286
 1914TIP3    H129937   3.636   2.792  18.946  1.6049  0.1602 -0.6787
 1914TIP3    H229938   3.678   2.647  18.953  2.5475  0.4856  0.8468
 1915TIP3   OH229939   3.678   4.725  19.837 -0.1231  0.0742  0.3585
 1915TIP3    H129940   3.657   4.716  19.930 -0.7740 -1.9230  0.0843
 1915TIP3    H229941   3.670   4.635  19.803 -0.5395  0.8605 -1.7510
 1916TIP3   OH229942   3.229   5.197  18.336  0.2746  0.3134 -0.0102
 1916TIP3    H129943   3.179   5.182  18.416  1.4324 -0.3456  0.6005
 1916TIP3    H229944   3.279   5.117  18.323  0.2009  0.4532 -1.3359
 1917TIP3   OH229945   2.463   6.159  19.349  0.0592 -0.3675 -0.3774
 1917TIP3    H129946   2.502   6.157  19.262  1.5250  0.5323  0.2317
 1917TIP3    H229947   2.527   6.118  19.407 -0.6231 -0.4034  0.3865
 1918TIP3   OH229948   6.328   4.260  20.535 -0.2126  0.0318  0.2398
 1918TIP3    H129949   6.337   4.165  20.541  1.4519  0.1435  0.0800
 1918TIP3    H229950   6.248   4.280  20.584  0.6415 -1.2408  2.3211
 1919TIP3   OH229951   3.012   2.554  18.601  0.1564 -0.2752  0.1176
 1919TIP3    H129952   3.084   2.596  18.555  1.1584 -1.0418  0.9519
 1919TIP3    H229953   2.986   2.617  18.668 -0.1211  0.1034 -0.3413
 1920TIP3   OH229954   5.605   5.592  19.831  0.0465  0.1813  0.0518
 1920TIP3    H129955   5.594   5.499  19.808  2.2317 -0.1565  0.1269
 1920TIP3    H229956   5.519   5.631  19.816 -0.4445 -1.4654 -1.9029
 1921TIP3   OH229957   5.801   4.833  20.261  0.2939  0.2407  0.3646
 1921TIP3    H129958   5.875   4.870  20.214  0.5505 -1.4574 -0.6349
 1921TIP3    H229959   5.749   4.788  20.194 -1.0120  0.4015  1.2263
 1922TIP3   OH229960   5.266   2.587  21.066  0.1563 -0.1759  0.7639
 1922TIP3    H129961   5.200   2.548  21.008 -0.2309 -0.7248  1.5665
 1922TIP3    H229962   5.215   2.632  21.133  0.5372 -2.0925  2.4239
 1923TIP3   OH229963   5.308   5.142  20.144  0.9351  0.2807 -0.3752
 1923TIP3    H129964   5.328   5.107  20.057  0.6537 -1.5464  0.2494
 1923TIP3    H229965   5.393   5.153  20.186  0.9777 -2.3958  0.3912
 1924TIP3   OH229966   0.679   2.015  19.421  0.3389  0.1110  0.7192
 1924TIP3    H129967   0.757   2.070  19.426  0.2412  0.3126  0.1212
 1924TIP3    H229968   0.607   2.077  19.408  0.1531 -0.1166  0.6556
 1925TIP3   OH229969   0.701   0.078  17.838 -0.2828  0.1336 -0.2660
 1925TIP3    H129970   0.700   0.076  17.742 -0.9113 -0.7704 -0.2595
 1925TIP3    H229971   0.767   0.012  17.862 -0.2205  0.2634 -0.0804
 1926TIP3   OH229972   1.017   6.688  18.001 -0.4855 -0.1807 -0.1084
 1926TIP3    H129973   0.936   6.674  18.050  0.5843 -1.0793  1.4790
 1926TIP3    H229974   1.060   6.760  18.048  1.0266 -1.7242  0.9575
 1927TIP3   OH229975   6.376   3.094  18.011 -0.1443 -0.2137 -0.7601
 1927TIP3    H129976   6.377   3.069  17.918 -1.0520 -0.8429 -0.6173
 1927TIP3    H229977   6.283   3.105  18.031 -0.1403 -2.1911  0.6122
 1928TIP3   OH229978   1.131   0.462  17.717  0.1477 -0.2057 -0.3079
 1928TIP3    H129979   1.213   0.470  17.668  1.2732 -1.7833  1.2109
 1928TIP3    H229980   1.115   0.368  17.721 -1.6928  0.0725 -0.4486
 1929TIP3   OH229981   0.724   0.582  18.985 -0.1857  0.7203  0.3541
 1929TIP3    H129982   0.654   0.646  18.975 -0.4650  0.3175 -0.3691
 1929TIP3    H229983   0.680   0.503  19.017 -0.1080  0.3829 -0.3609
 1930TIP3   OH229984   2.661   0.552  20.867 -0.0940 -0.7820  0.8058
 1930TIP3    H129985   2.753   0.529  20.854  0.4993  0.9034  1.7994
 1930TIP3    H229986   2.637   0.507  20.948 -0.4312 -1.9490  0.0767
 1931TIP3   OH229987   2.634   0.508  19.550 -0.5703 -0.1421  0.3970
 1931TIP3    H129988   2.692   0.475  19.618 -1.4690 -1.7319  0.4399
 1931TIP3    H229989   2.559   0.543  19.597 -0.2361  0.7562  0.2876
 1932TIP3   OH229990   3.144   0.250  19.784  0.5307  0.6590  0.2545
 1932TIP3    H129991   3.108   0.242  19.695  0.3006  0.8734  0.3278
 1932TIP3    H229992   3.122   0.167  19.826  2.4472 -0.3308 -0.5335
 1933TIP3   OH229993   3.826   5.191  20.649  0.0534  0.0404  0.2724
 1933TIP3    H129994   3.786   5.116  20.694 -0.4672 -1.1443 -2.0326
 1933TIP3    H229995   3.919   5.184  20.670 -0.4145  0.8951  2.9822
 1934TIP3   OH229996   6.498   5.995  18.716  0.3202 -0.7880  0.0273
 1934TIP3    H129997   6.576   6.045  18.742  0.7364 -1.9827  1.1681
 1934TIP3    H229998   6.523   5.951  18.635  1.5136 -2.5711  1.2869
 1935TIP3   OH229999   5.135   2.923  20.348 -0.5078 -0.1520  0.2395
 1935TIP3    H130000   5.186   3.000  20.323 -1.8501  1.3947  1.9495
 1935TIP3    H230001   5.114   2.880  20.265  2.4569 -0.1873 -0.5894
 1936TIP3   OH230002   4.313   1.918  19.754 -0.0370  0.1555 -0.4685
 1936TIP3    H130003   4.360   1.975  19.815 -1.8215  0.2681  0.9000
 1936TIP3    H230004   4.318   1.964  19.670  1.9885  0.2868 -0.3107
 1937TIP3   OH230005   2.341   3.573  19.292 -0.0072 -0.1472 -0.7951
 1937TIP3    H130006   2.261   3.521  19.301  1.2118 -2.1418 -1.0256
 1937TIP3    H230007   2.329   3.622  19.211 -0.6802 -1.0225 -1.2413
 1938TIP3   OH230008   2.050   1.605  18.842  0.0320  0.0022  0.0291
 1938TIP3    H130009   2.120   1.597  18.777  0.4460  1.9419  0.1911
 1938TIP3    H230010   2.030   1.698  18.845 -1.0446 -0.2443  1.5938
 1939TIP3   OH230011   0.612   2.379  18.150  0.4399  0.4454  0.2246
 1939TIP3    H130012   0.680   2.324  18.110  2.2929  2.6834  0.0605
 1939TIP3    H230013   0.598   2.340  18.237 -0.1667 -1.6848 -0.7684
 1940TIP3   OH230014   4.146   2.886  20.278 -0.3219 -0.0174 -0.0763
 1940TIP3    H130015   4.084   2.813  20.277 -0.8918  0.4577 -0.5806
 1940TIP3    H230016   4.105   2.953  20.222 -0.1101  0.9287  0.8716
 1941TIP3   OH230017   0.199   5.390  19.114 -0.6158  0.9332 -0.2401
 1941TIP3    H130018   0.131   5.404  19.180  1.1588  1.0073  1.6929
 1941TIP3    H230019   0.152   5.354  19.038 -2.3950 -2.9355  2.3459
 1942TIP3   OH230020   1.031   1.387  18.776 -0.5245  0.3637  0.3835
 1942TIP3    H130021   1.054   1.466  18.726 -0.7922  0.3055  0.1615
 1942TIP3    H230022   1.100   1.379  18.841  0.6086 -0.3255 -0.8497
 1943TIP3   OH230023   6.713   2.684  19.970 -0.1354  0.0030  0.5848
 1943TIP3    H130024   6.678   2.665  20.057 -1.4259 -0.3820  0.0236
 1943TIP3    H230025   6.745   2.599  19.939 -0.2452  0.0072  0.4582
 1944TIP3   OH230026   4.218   6.448  17.440  0.0422 -0.2404 -0.4368
 1944TIP3    H130027   4.298   6.458  17.491 -0.1937  0.3104 -0.1652
 1944TIP3    H230028   4.220   6.521  17.378 -0.5204  0.1118 -0.0538
 1945TIP3   OH230029   4.483   3.161  18.984  0.4771  0.3752  0.1145
 1945TIP3    H130030   4.458   3.071  19.006 -1.7642  0.4387 -1.7096
 1945TIP3    H230031   4.420   3.215  19.031 -0.5324  0.7602 -1.5923
 1946TIP3   OH230032   1.816   0.374  19.230  0.3248 -0.3635 -0.5496
 1946TIP3    H130033   1.754   0.447  19.227 -1.4424 -1.8430 -1.8025
 1946TIP3    H230034   1.897   0.410  19.192  0.4457  1.7117  1.4664
 1947TIP3   OH230035   0.273   5.946  19.445 -0.4864  0.1284 -0.2221
 1947TIP3    H130036   0.298   5.855  19.461  0.9540  0.5689  0.1480
 1947TIP3    H230037   0.214   5.967  19.518 -0.0199 -0.2006  0.2579
 1948TIP3   OH230038   1.254   4.968  20.421  0.2064  0.3242  0.4304
 1948TIP3    H130039   1.174   4.924  20.451  1.2932 -0.7353  1.9620
 1948TIP3    H230040   1.247   5.057  20.455 -0.3193  0.2387  0.5534
 1949TIP3   OH230041   5.337   5.533  18.274  0.1029  0.0745  0.9633
 1949TIP3    H130042   5.408   5.482  18.312  0.4755  0.8926  1.3947
 1949TIP3    H230043   5.382   5.600  18.221 -0.3713  0.0398  0.5088
 1950TIP3   OH230044   1.592   0.032  18.411  0.3768  0.1393 -0.4404
 1950TIP3    H130045   1.600  -0.063  18.404  0.2227  0.0950 -0.0503
 1950TIP3    H230046   1.514   0.045  18.465  1.4334  0.4384  1.0880
 1951TIP3   OH230047   5.622   1.085  18.423 -0.1476  0.1625 -0.4870
 1951TIP3    H130048   5.717   1.097  18.417 -0.2156  0.0631 -3.2877
 1951TIP3    H230049   5.586   1.172  18.405 -0.5712  0.0220 -0.3186
 1952TIP3   OH230050   6.047   5.145  18.191 -0.5360 -1.0818 -0.4306
 1952TIP3    H130051   6.093   5.176  18.113 -0.7303 -1.4735 -0.7021
 1952TIP3    H230052   6.116   5.127  18.254 -0.4451  0.8376  0.1048
 1953TIP3   OH230053   3.554   0.525  18.121  1.0302  0.2223  0.1131
 1953TIP3    H130054   3.561   0.614  18.086  0.3201 -0.0629 -0.8171
 1953TIP3    H230055   3.628   0.516  18.181  1.7837  1.0509 -0.6622
 1954TIP3   OH230056   4.421   1.690  18.360  0.0947 -0.7745 -0.3879
 1954TIP3    H130057   4.495   1.633  18.380  0.1137 -0.7520 -0.3933
 1954TIP3    H230058   4.363   1.681  18.435  0.1541 -0.7094 -0.3340
 1955TIP3   OH230059   4.406   1.318  20.120 -0.0381  0.0002 -0.4397
 1955TIP3    H130060   4.485   1.298  20.170 -0.5912  0.1433  0.5246
 1955TIP3    H230061   4.406   1.256  20.048  0.9328 -0.0213 -0.4297
 1956TIP3   OH230062   5.112   3.729  19.878  0.4129 -0.2735  0.0674
 1956TIP3    H130063   5.138   3.671  19.806 -1.6602 -0.8804 -0.2520
 1956TIP3    H230064   5.193   3.774  19.902  1.1185  0.3446 -2.9702
 1957TIP3   OH230065   1.506   3.497  19.062  0.5688  0.1305 -0.8940
 1957TIP3    H130066   1.581   3.448  19.098  1.6511  0.4017 -2.6802
 1957TIP3    H230067   1.515   3.585  19.100  0.2935 -0.2252  0.0357
 1958TIP3   OH230068   5.324   0.030  17.445  0.6198  0.4727 -0.0281
 1958TIP3    H130069   5.371   0.017  17.527  1.0447  0.3063 -0.2943
 1958TIP3    H230070   5.364   0.109  17.407 -0.2608  1.1436  0.4035
 1959TIP3   OH230071   6.479   6.198  19.089  0.5249  0.0654  0.3604
 1959TIP3    H130072   6.491   6.241  19.004 -1.1556  1.0420  0.5596
 1959TIP3    H230073   6.400   6.145  19.079  1.1433 -0.9933  0.8931
 1960TIP3   OH230074   3.304   1.788  20.622  0.2049  0.1899 -0.0925
 1960TIP3    H130075   3.250   1.714  20.595 -0.3038  0.9960 -1.3715
 1960TIP3    H230076   3.389   1.773  20.581 -0.1831  0.7586 -1.1638
 1961TIP3   OH230077   3.518   2.369  17.846  0.2028  0.7737  0.4025
 1961TIP3    H130078   3.505   2.350  17.753 -0.1865  1.1301  0.3841
 1961TIP3    H230079   3.482   2.293  17.892  0.6532  0.4656  0.2568
 1962TIP3   OH230080   5.911   6.359  17.168  0.2259  0.3831  0.1222
 1962TIP3    H130081   5.964   6.398  17.237 -0.3576  1.6737 -0.1243
 1962TIP3    H230082   5.972   6.305  17.118  1.2580  1.6418 -0.0161
 1963TIP3   OH230083   6.324   4.406  20.109 -0.1804 -0.5966 -0.5131
 1963TIP3    H130084   6.282   4.488  20.135  0.0097 -1.3895  2.6800
 1963TIP3    H230085   6.257   4.339  20.125  0.4976 -1.3117 -0.6169
 1964TIP3   OH230086   4.015   1.573  19.237 -0.3325 -0.4338  0.7219
 1964TIP3    H130087   3.943   1.599  19.180 -0.9916 -0.3140  1.5926
 1964TIP3    H230088   4.002   1.623  19.318  1.7671  1.0140  0.2761
 1965TIP3   OH230089   4.121   2.570  17.272 -0.1218  0.1967 -0.7590
 1965TIP3    H130090   4.063   2.513  17.223 -0.9051 -0.0952  0.4489
 1965TIP3    H230091   4.118   2.536  17.362  3.3774 -1.0209 -0.9349
 1966TIP3   OH230092   5.979   0.947  19.714  0.2826 -0.4665 -0.2689
 1966TIP3    H130093   5.905   0.977  19.767 -1.0765 -2.7593 -0.7640
 1966TIP3    H230094   5.950   0.959  19.624  0.7973 -0.7650 -0.4771
 1967TIP3   OH230095   5.504   2.555  20.908  0.5160  0.0761  0.0655
 1967TIP3    H130096   5.511   2.641  20.866  2.6395  1.1402  2.3377
 1967TIP3    H230097   5.442   2.569  20.979 -0.0660 -0.6374 -0.2937
 1968TIP3   OH230098   2.964   0.705  18.015 -0.5941  0.1262 -0.4686
 1968TIP3    H130099   2.908   0.638  17.975 -0.7157 -0.3835  0.4981
 1968TIP3    H230100   2.904   0.756  18.070 -0.5502  1.2294 -1.4171
 1969TIP3   OH230101   4.268   2.000  18.327  0.5896 -0.0614 -0.3518
 1969TIP3    H130102   4.332   2.050  18.275  2.4847 -1.0168  0.9220
 1969TIP3    H230103   4.225   1.943  18.263  2.1188 -0.4565 -1.0821
 1970TIP3   OH230104   1.311   5.741  18.493  0.8978  0.1244  0.4348
 1970TIP3    H130105   1.324   5.646  18.495 -0.2200 -0.0376  0.6434
 1970TIP3    H230106   1.380   5.774  18.435  1.3327 -0.8061  0.4153
 1971TIP3   OH230107   0.190   2.546  17.504  0.0027 -0.0488  0.1369
 1971TIP3    H130108   0.254   2.617  17.514 -0.1197 -0.0250  0.7912
 1971TIP3    H230109   0.209   2.487  17.576  0.5212 -1.0226 -0.7648
 1972TIP3   OH230110   2.026   3.806  18.371  0.0745  0.6688  0.1946
 1972TIP3    H130111   2.026   3.898  18.396  3.4630  1.4753 -2.0993
 1972TIP3    H230112   2.079   3.802  18.292 -1.4788 -3.0534 -0.9127
 1973TIP3   OH230113   5.743   2.596  18.046  0.2723 -0.3916 -0.0086
 1973TIP3    H130114   5.755   2.630  17.957 -0.1807 -0.0014  0.0787
 1973TIP3    H230115   5.817   2.633  18.095 -0.4214  0.8072  0.1768
 1974TIP3   OH230116   3.161   2.392  17.995  0.1794  0.6133 -0.3399
 1974TIP3    H130117   3.235   2.450  18.009 -0.2012  0.7074  1.4861
 1974TIP3    H230118   3.087   2.451  17.980 -0.0207  0.5935  0.5333
 1975TIP3   OH230119   1.861   0.144  20.596  0.1594  0.6319 -0.2475
 1975TIP3    H130120   1.896   0.064  20.558 -0.4290  0.4855 -0.4972
 1975TIP3    H230121   1.923   0.167  20.665 -0.5635 -0.9903  1.0041
 1976TIP3   OH230122   4.492   5.732  20.811  0.3208  0.0415 -0.2363
 1976TIP3    H130123   4.420   5.669  20.809 -1.2143  1.7401 -1.1224
 1976TIP3    H230124   4.562   5.689  20.763  0.4246 -2.1676  1.6881
 1977TIP3   OH230125   2.786   0.295  20.652  0.1598  0.1457 -0.0985
 1977TIP3    H130126   2.722   0.282  20.582  0.1872  0.7573 -0.2421
 1977TIP3    H230127   2.746   0.257  20.729  0.7873 -1.9974 -0.7527
 1978TIP3   OH230128   6.211   5.048  17.863 -0.1868  0.4277  0.4919
 1978TIP3    H130129   6.180   5.119  17.807  1.7032  0.3965 -0.6805
 1978TIP3    H230130   6.152   4.975  17.845 -0.6287  0.9444 -0.1820
 1979TIP3   OH230131   0.734   5.254  20.005  0.4330 -0.2700 -0.0530
 1979TIP3    H130132   0.735   5.183  20.069  0.1641 -1.6655 -1.5385
 1979TIP3    H230133   0.682   5.323  20.047 -0.9270 -1.6874  0.6889
 1980TIP3   OH230134   4.950   3.653  20.090  0.3540 -0.4584 -0.0067
 1980TIP3    H130135   4.893   3.681  20.019  0.5271  2.6069  0.8965
 1980TIP3    H230136   5.038   3.658  20.053  0.3909  0.4008  0.1770
 1981TIP3   OH230137   4.874   5.370  19.874  0.2038 -0.2533  0.4820
 1981TIP3    H130138   4.793   5.344  19.831  0.5852 -0.0383 -0.3887
 1981TIP3    H230139   4.934   5.390  19.802  1.9652 -3.1359  0.9654
 1982TIP3   OH230140   5.641   0.596  19.116 -0.5454 -0.0912 -0.6037
 1982TIP3    H130141   5.632   0.625  19.025  2.1539  1.1112 -0.5766
 1982TIP3    H230142   5.698   0.520  19.111 -0.2408  0.0840  0.0817
 1983TIP3   OH230143   3.680   6.344  18.095  0.2424  0.0392 -0.4666
 1983TIP3    H130144   3.626   6.405  18.044 -1.6484  0.5878  2.0156
 1983TIP3    H230145   3.745   6.400  18.138 -0.0928  0.0129  0.0794
 1984TIP3   OH230146   0.292   2.720  19.359  0.2356 -0.2152 -0.3291
 1984TIP3    H130147   0.314   2.780  19.288  0.9108 -1.2918 -1.0630
 1984TIP3    H230148   0.294   2.774  19.438  1.3417  0.6141 -0.9004
 1985TIP3   OH230149   2.433   1.653  18.397  0.0352  0.1535 -0.3824
 1985TIP3    H130150   2.464   1.716  18.463  1.8888 -0.9193 -0.1516
 1985TIP3    H230151   2.375   1.704  18.341 -0.5224  1.4228  1.2875
 1986TIP3   OH230152   0.655   3.233  18.621  0.2744  0.3761 -0.1889
 1986TIP3    H130153   0.662   3.260  18.529  0.6239  1.7922  0.2292
 1986TIP3    H230154   0.745   3.240  18.654  0.1907 -0.3638  0.1972
 1987TIP3   OH230155   5.884   2.788  19.855  0.2947 -0.1247 -0.5377
 1987TIP3    H130156   5.836   2.818  19.932  0.2197  2.5582 -1.5110
 1987TIP3    H230157   5.974   2.819  19.870  0.9004 -1.8416 -0.4157
 1988TIP3   OH230158   0.438   0.425  18.085 -0.0707 -0.3182  0.1334
 1988TIP3    H130159   0.479   0.453  18.003 -0.3405  0.5501  0.2809
 1988TIP3    H230160   0.463   0.334  18.095  1.3814  0.0360 -0.0479
 1989TIP3   OH230161   1.083   2.255  18.540 -0.3743 -0.3334 -0.2945
 1989TIP3    H130162   1.108   2.212  18.458  1.7506 -1.4121  0.8110
 1989TIP3    H230163   1.084   2.184  18.604 -2.9910  0.2937  0.5398
 1990TIP3   OH230164   2.886   4.163  19.424  0.3062  0.2732  0.3207
 1990TIP3    H130165   2.916   4.232  19.365  0.2663  0.6522  0.7400
 1990TIP3    H230166   2.839   4.209  19.493 -0.1275 -0.2126  0.3559
 1991TIP3   OH230167   4.482   1.043  18.812  0.0960  0.9489  0.5105
 1991TIP3    H130168   4.520   1.075  18.730 -0.6688 -0.1337 -0.3043
 1991TIP3    H230169   4.550   0.989  18.851  0.0955  0.6193  0.0579
 1992TIP3   OH230170   3.789   4.214  18.378  0.2470  0.0719  0.4291
 1992TIP3    H130171   3.823   4.199  18.466 -0.2233  0.6138  0.7110
 1992TIP3    H230172   3.694   4.203  18.386  0.0843  1.2179  0.2462
 1993TIP3   OH230173   5.102   3.731  20.630  0.0249 -0.2679 -0.2793
 1993TIP3    H130174   5.102   3.787  20.553 -3.4223  0.4515  0.0882
 1993TIP3    H230175   5.073   3.645  20.598 -0.3649 -0.2565  0.0360
 1994TIP3   OH230176   1.581   6.395  19.211 -0.2983  0.4478 -0.2815
 1994TIP3    H130177   1.672   6.410  19.238 -0.1775 -0.6407 -0.0716
 1994TIP3    H230178   1.543   6.483  19.209  0.4234  0.8173  0.8310
 1995TIP3   OH230179   6.122   2.284  20.565  0.1126  0.1153 -0.2292
 1995TIP3    H130180   6.078   2.226  20.628  1.0257  0.3053  0.6073
 1995TIP3    H230181   6.059   2.355  20.551 -0.6880 -0.6494 -0.6542
 1996TIP3   OH230182   5.152   6.626  19.578  0.7421  0.4104 -0.1714
 1996TIP3    H130183   5.203   6.680  19.517  1.0573 -0.0259 -0.2946
 1996TIP3    H230184   5.161   6.537  19.545  0.9870  0.1601  0.5701
 1997TIP3   OH230185   4.111   5.568  21.041  0.0783 -0.4209 -0.0579
 1997TIP3    H130186   4.047   5.499  21.059 -0.9615  0.3737 -0.5498
 1997TIP3    H230187   4.058   5.646  21.026  1.2341  0.5577  0.7492
 1998TIP3   OH230188   6.124   6.292  18.875  0.1286  0.0310  0.4296
 1998TIP3    H130189   6.135   6.353  18.948 -3.0148  0.6639  0.5320
 1998TIP3    H230190   6.186   6.321  18.809 -0.6685  2.8659  0.8119
 1999TIP3   OH230191   1.571   2.335  20.412 -0.6368 -0.1411 -0.0096
 1999TIP3    H130192   1.496   2.373  20.458 -1.4903 -2.0021  0.2443
 1999TIP3    H230193   1.579   2.247  20.449  2.7940  0.5258  1.2173
 2000TIP3   OH230194   5.934   0.964  17.936 -0.5513  0.0466  0.3171
 2000TIP3    H130195   5.962   1.051  17.906 -1.2228  0.5354  1.0768
 2000TIP3    H230196   5.973   0.955  18.023 -0.4596 -0.4359  0.2312
 2001TIP3   OH230197   6.251   3.155  20.050 -0.0942  0.6875 -0.1609
 2001TIP3    H130198   6.175   3.173  20.106 -0.4167  1.5690 -0.8740
 2001TIP3    H230199   6.230   3.195  19.966  0.9439  0.4968 -0.5302
 2002TIP3   OH230200   2.327   1.181  20.412 -1.1408  0.3565 -0.1614
 2002TIP3    H130201   2.415   1.175  20.377 -1.2528  0.3580 -0.4497
 2002TIP3    H230202   2.280   1.108  20.373 -2.1043  2.1101 -2.5194
 2003TIP3   OH230203   3.238   2.460  18.778 -0.1494 -0.4468 -0.0752
 2003TIP3    H130204   3.194   2.545  18.776 -1.2811 -0.9969 -2.8794
 2003TIP3    H230205   3.327   2.478  18.748 -0.5684 -0.3036 -1.2824
 2004TIP3   OH230206   0.416   2.644  19.914 -0.3562  0.0167  0.1363
 2004TIP3    H130207   0.413   2.610  19.825  0.8394  0.4727 -0.0888
 2004TIP3    H230208   0.353   2.590  19.962  0.4638 -1.5879 -0.5220
 2005TIP3   OH230209   6.004   4.111  19.578 -0.1915  0.1006 -0.4452
 2005TIP3    H130210   5.920   4.155  19.591  1.4363  3.5629 -0.5606
 2005TIP3    H230211   6.011   4.100  19.483 -0.0655  0.8687 -0.5326
 2006TIP3   OH230212   0.120   3.633  18.849 -0.6263  0.1713  0.0692
 2006TIP3    H130213   0.194   3.593  18.894 -0.2947  1.2930  0.5500
 2006TIP3    H230214   0.053   3.564  18.847  0.3225 -0.7649 -0.1459
 2007TIP3   OH230215   3.084   5.227  20.321  0.1935  0.3613 -0.1073
 2007TIP3    H130216   3.080   5.224  20.417 -0.0495 -0.0593 -0.1292
 2007TIP3    H230217   3.034   5.151  20.292  1.2803 -0.2098 -0.5417
 2008TIP3   OH230218   3.526   0.033  18.881  0.4009 -0.3578 -0.1696
 2008TIP3    H130219   3.505  -0.060  18.871  0.4495 -0.1516 -2.7845
 2008TIP3    H230220   3.443   0.079  18.867  0.7085  0.0568 -0.6609
 2009TIP3   OH230221   1.118   4.651  18.672 -0.0268 -0.0119 -0.0331
 2009TIP3    H130222   1.091   4.656  18.764 -0.3920 -0.0188 -0.1404
 2009TIP3    H230223   1.159   4.565  18.664 -0.0512 -0.0373  0.1064
 2010TIP3   OH230224   5.462   4.699  17.790 -0.1162 -0.1094  0.4330
 2010TIP3    H130225   5.403   4.696  17.866 -2.9756 -1.8005 -1.6798
 2010TIP3    H230226   5.522   4.625  17.803 -1.5776 -1.3425  0.3312
 2011TIP3   OH230227   6.625   3.569  19.117  0.2490  0.2926  0.4524
 2011TIP3    H130228   6.570   3.505  19.160 -0.1786 -0.4496 -1.1092
 2011TIP3    H230229   6.565   3.618  19.060  0.6883  1.6039  1.0822
 2012TIP3   OH230230   5.092   5.921  18.873  0.1596  0.0776  0.3061
 2012TIP3    H130231   5.028   5.976  18.828 -0.6077 -2.5832 -2.1853
 2012TIP3    H230232   5.041   5.847  18.907  1.5324 -0.7713  0.6014
 2013TIP3   OH230233   0.802   4.053  18.350 -0.7227 -0.0864 -0.6663
 2013TIP3    H130234   0.808   3.991  18.422  1.9692  0.2610 -0.5051
 2013TIP3    H230235   0.792   4.139  18.392 -1.9579 -0.1322 -0.8262
 2014TIP3   OH230236   1.480   5.420  19.224  0.4400  0.0830  0.4097
 2014TIP3    H130237   1.534   5.381  19.293  1.3214 -1.0724 -0.8799
 2014TIP3    H230238   1.461   5.508  19.255  1.7388 -0.0347  1.6278
 2015TIP3   OH230239   0.722   2.630  19.467 -0.4763  0.4507  0.3465
 2015TIP3    H130240   0.651   2.692  19.486 -1.2341 -0.3932  0.3264
 2015TIP3    H230241   0.702   2.598  19.379 -0.9989 -1.0221  0.9754
 2016TIP3   OH230242   4.259   6.127  18.799 -0.2562  0.2618  0.1312
 2016TIP3    H130243   4.312   6.165  18.869  0.7039 -0.6063 -0.1003
 2016TIP3    H230244   4.218   6.203  18.757 -1.6911  0.7618  2.2329
 2017TIP3   OH230245   5.666   5.423  18.917 -0.5916  0.2482  0.0524
 2017TIP3    H130246   5.614   5.371  18.857 -0.1761 -1.5313  1.1538
 2017TIP3    H230247   5.739   5.456  18.864 -0.9124 -0.2188 -0.6897
 2018TIP3   OH230248   1.826   6.313  18.917  0.2672 -0.0327 -0.1302
 2018TIP3    H130249   1.847   6.247  18.852  0.0829  1.0490 -1.3196
 2018TIP3    H230250   1.892   6.302  18.985  1.1100 -0.4834 -1.0048
 2019TIP3   OH230251   0.009   0.440  18.070  0.1082 -0.3310  0.2852
 2019TIP3    H130252  -0.007   0.509  18.007 -0.0613 -1.3273 -0.8000
 2019TIP3    H230253   0.093   0.462  18.110  0.6549 -0.1400 -0.9335
 2020TIP3   OH230254   3.345   0.731  19.601 -0.0819  0.1650 -0.4013
 2020TIP3    H130255   3.348   0.811  19.653  0.7216  0.5405 -1.0043
 2020TIP3    H230256   3.437   0.706  19.590 -0.2161  0.1572 -1.7044
 2021TIP3   OH230257   4.169   0.873  17.880  0.6345  0.3968  0.3828
 2021TIP3    H130258   4.146   0.965  17.868 -1.9185  0.0425  1.7881
 2021TIP3    H230259   4.192   0.865  17.973  0.6039 -0.4204  0.3320
 2022TIP3   OH230260   2.828   5.369  20.203 -0.2584  0.4983  0.0254
 2022TIP3    H130261   2.804   5.286  20.244  1.5121  0.7241  1.6545
 2022TIP3    H230262   2.904   5.348  20.149  1.0584  1.2318  1.5087
 2023TIP3   OH230263   4.338   3.701  18.120 -0.2888 -0.1168 -0.5726
 2023TIP3    H130264   4.347   3.758  18.044  0.4369  0.5339 -0.0141
 2023TIP3    H230265   4.424   3.660  18.128 -1.0536 -2.0733 -1.5455
 2024TIP3   OH230266   3.573   5.367  20.025  0.0169  0.0853  0.4095
 2024TIP3    H130267   3.655   5.373  19.976 -0.6374  0.5561 -0.6568
 2024TIP3    H230268   3.590   5.416  20.105 -0.5991  4.3582 -1.7897
 2025TIP3   OH230269   4.388   0.874  20.124  0.3873 -0.5512 -0.0475
 2025TIP3    H130270   4.387   0.779  20.137 -1.3608 -0.4446  0.9154
 2025TIP3    H230271   4.328   0.908  20.191 -0.1198  1.1056 -1.2797
 2026TIP3   OH230272   3.237   1.183  19.555  0.7565  0.2698 -0.5696
 2026TIP3    H130273   3.191   1.157  19.634  2.9692  1.2748  1.1719
 2026TIP3    H230274   3.239   1.104  19.501 -1.5633 -0.1937 -0.0633
 2027TIP3   OH230275   6.393   3.380  18.921  0.1561 -0.0585 -0.6254
 2027TIP3    H130276   6.336   3.344  18.853 -0.2219  1.5373 -1.2032
 2027TIP3    H230277   6.337   3.440  18.970  0.7541 -0.2414  0.3041
 2028TIP3   OH230278   0.304   0.864  18.241  0.4639  0.7482  0.5375
 2028TIP3    H130279   0.387   0.883  18.197  0.8964 -1.9090  0.0357
 2028TIP3    H230280   0.270   0.787  18.195 -1.3235  0.6080  1.9926
 2029TIP3   OH230281   4.715   4.768  18.953 -0.2527 -0.4251 -0.1502
 2029TIP3    H130282   4.723   4.684  18.908  0.1640  0.1118 -1.1055
 2029TIP3    H230283   4.804   4.791  18.977 -0.4812 -0.7477  1.0587
 2030TIP3   OH230284   4.481   0.345  17.961 -0.5708  0.2180 -0.2085
 2030TIP3    H130285   4.402   0.398  17.965 -1.2064 -0.6011 -1.2060
 2030TIP3    H230286   4.548   0.397  18.005 -1.0379  2.0424 -1.5293
 2031TIP3   OH230287   3.233   1.296  20.116 -0.0273  0.0879 -0.0688
 2031TIP3    H130288   3.194   1.383  20.114 -0.8444 -0.2309 -2.7571
 2031TIP3    H230289   3.164   1.240  20.152  0.5707  0.5151  1.8564
 2032TIP3   OH230290   5.367   0.469  18.971  0.4419 -0.7023 -0.2565
 2032TIP3    H130291   5.451   0.436  18.942 -0.4916 -1.5571 -2.1811
 2032TIP3    H230292   5.323   0.393  19.009 -0.0128 -0.6296 -0.6226
 2033TIP3   OH230293   6.184   3.843  20.556 -0.0473 -0.6189  0.3222
 2033TIP3    H130294   6.198   3.765  20.609  0.2744  0.1432  1.3999
 2033TIP3    H230295   6.269   3.860  20.515  0.0522 -0.4904  0.5784
 2034TIP3   OH230296   1.047   3.916  18.736  0.2743 -0.4057 -0.2143
 2034TIP3    H130297   0.973   3.919  18.796  1.9103  1.0545  1.8963
 2034TIP3    H230298   1.055   4.005  18.703  0.6356 -0.7266 -1.0194
 2035TIP3   OH230299   6.099   0.459  20.497 -0.2861 -0.0940  0.2790
 2035TIP3    H130300   6.067   0.487  20.411  0.6178  0.0194 -0.0372
 2035TIP3    H230301   6.037   0.496  20.560  0.0541  1.3671 -0.2201
 2036TIP3   OH230302   4.539   6.023  20.664 -0.5565  0.3198  0.8696
 2036TIP3    H130303   4.592   5.970  20.603 -1.1305 -0.1722  0.7932
 2036TIP3    H230304   4.521   6.103  20.615 -0.3679  0.2493  0.6801
 2037TIP3   OH230305   1.280   5.077  18.474 -0.3326 -0.1215  0.2917
 2037TIP3    H130306   1.248   5.038  18.392  0.4455  0.4302 -0.2854
 2037TIP3    H230307   1.277   5.006  18.538 -1.7500 -0.3482  0.0056
 2038TIP3   OH230308   6.182   6.655  20.249  0.2354  0.8558  0.0767
 2038TIP3    H130309   6.241   6.712  20.298 -0.2573 -0.3097  2.1580
 2038TIP3    H230310   6.104   6.649  20.304 -0.3314 -0.5745 -0.8369
 2039TIP3   OH230311   5.184   3.346  20.425 -0.6279  0.0524  0.3736
 2039TIP3    H130312   5.194   3.440  20.409  0.0859  0.2749  1.9036
 2039TIP3    H230313   5.091   3.336  20.448 -0.5091  0.5645  1.1389
 2040TIP3   OH230314   3.100   6.364  18.502  0.3508 -0.2774  0.5956
 2040TIP3    H130315   3.178   6.418  18.486  2.0352 -2.5226  0.7232
 2040TIP3    H230316   3.127   6.301  18.568 -1.7589 -0.8335  1.0080
 2041TIP3   OH230317   2.488   6.227  18.404  0.2633  0.3034 -0.5996
 2041TIP3    H130318   2.425   6.215  18.333 -0.5498 -0.5180  0.2479
 2041TIP3    H230319   2.472   6.316  18.435 -2.2042 -0.6736  1.2096
 2042TIP3   OH230320   1.423   2.458  18.137  0.2892 -0.2416  0.0580
 2042TIP3    H130321   1.453   2.410  18.214  0.3716  0.4843  0.4896
 2042TIP3    H230322   1.486   2.436  18.068  0.0252 -1.1567  0.1004
 2043TIP3   OH230323   3.750   4.673  18.773 -0.2594  0.2145 -0.4798
 2043TIP3    H130324   3.664   4.665  18.815  0.2361 -2.7738  0.2124
 2043TIP3    H230325   3.799   4.732  18.831 -0.7417 -0.9510  1.1979
 2044TIP3   OH230326   5.719   3.148  18.201  0.0339 -0.0441  0.0334
 2044TIP3    H130327   5.777   3.077  18.172  0.0379 -0.9776  2.1447
 2044TIP3    H230328   5.631   3.119  18.177  0.2035  0.2583 -1.0128
 2045TIP3   OH230329   2.504   3.155  20.213 -0.4215 -0.5390  0.1907
 2045TIP3    H130330   2.545   3.199  20.287  1.0663 -0.7677 -0.4398
 2045TIP3    H230331   2.503   3.062  20.238 -2.3294 -0.3576  0.9647
 2046TIP3   OH230332   4.938   3.931  18.669 -0.3363 -0.2156  0.2556
 2046TIP3    H130333   4.918   4.024  18.683 -0.8044 -0.1536 -0.7584
 2046TIP3    H230334   4.945   3.895  18.758  1.0152  1.0231  0.6970
 2047TIP3   OH230335   4.357   4.091  18.112  0.1540  0.3452 -0.2772
 2047TIP3    H130336   4.449   4.100  18.088  0.1143  4.6508  0.3080
 2047TIP3    H230337   4.315   4.059  18.033  1.9707 -0.6116 -0.9154
 2048TIP3   OH230338   1.979   6.048  20.323 -0.5833  0.1867 -0.1495
 2048TIP3    H130339   1.903   6.041  20.381  1.2722 -1.2114  2.2961
 2048TIP3    H230340   2.048   6.084  20.378  1.2605 -1.0674 -1.5220
 2049TIP3   OH230341   6.471   2.707  20.138  0.0989 -0.2745  0.6929
 2049TIP3    H130342   6.418   2.783  20.165  0.7254  0.2768  0.4054
 2049TIP3    H230343   6.556   2.723  20.179 -0.0027 -1.2595  1.3185
 2050TIP3   OH230344   2.108   4.950  17.445 -0.3935 -0.7735  0.6799
 2050TIP3    H130345   2.083   5.018  17.382  0.5160 -1.4251 -0.4143
 2050TIP3    H230346   2.155   4.998  17.513  3.2894 -0.5509 -1.7110
 2051TIP3   OH230347   6.349   0.650  18.704  0.5832 -0.2133  0.4503
 2051TIP3    H130348   6.390   0.717  18.758 -1.1049  2.3719 -1.2224
 2051TIP3    H230349   6.262   0.638  18.743 -0.3679  1.1302 -1.1109
 2052TIP3   OH230350   1.878   5.903  16.954 -0.4706 -0.9403 -0.2970
 2052TIP3    H130351   1.914   5.817  16.934 -2.9129 -1.8151 -1.2273
 2052TIP3    H230352   1.863   5.943  16.868  0.3189  0.3338  0.1194
 2053TIP3   OH230353   1.011   3.790  18.309 -0.1458 -0.2240  0.3877
 2053TIP3    H130354   0.933   3.821  18.264  1.3052  2.2482 -0.6256
 2053TIP3    H230355   1.056   3.735  18.245  1.3580  2.4041 -1.0090
 2054TIP3   OH230356   5.250   1.221  19.474  0.4462 -0.0178 -0.0781
 2054TIP3    H130357   5.265   1.178  19.558  0.0435  0.0997  0.0555
 2054TIP3    H230358   5.322   1.283  19.465 -0.1781  0.8332  0.7453
 2055TIP3   OH230359   0.635   0.800  17.793 -0.1359 -0.2686 -0.1668
 2055TIP3    H130360   0.719   0.798  17.748  0.4486  0.0335  0.8709
 2055TIP3    H230361   0.591   0.878  17.758  0.1234 -0.2795 -0.5252
 2056TIP3   OH230362   1.537   3.166  18.321 -0.3581 -0.3139  0.0393
 2056TIP3    H130363   1.539   3.145  18.228  0.8147 -2.0900  0.4226
 2056TIP3    H230364   1.589   3.246  18.329  0.4162 -0.7366 -0.6998
 2057TIP3   OH230365   4.373   4.900  18.467 -0.2131  0.4385  0.3178
 2057TIP3    H130366   4.449   4.944  18.428 -0.9456  1.2553 -0.2338
 2057TIP3    H230367   4.377   4.811  18.433  1.6722 -0.1693  1.9750
 2058TIP3   OH230368   4.403   6.190  18.282 -0.3040  0.3821 -0.1218
 2058TIP3    H130369   4.420   6.189  18.377 -1.7618 -0.2129  0.1648
 2058TIP3    H230370   4.358   6.107  18.265  2.7771 -1.0926 -1.9528
 2059TIP3   OH230371   4.059   5.868  17.482 -0.1340  0.4540  0.0617
 2059TIP3    H130372   4.123   5.938  17.493 -1.3766  2.1383 -2.5184
 2059TIP3    H230373   4.110   5.794  17.450  0.7213  1.2936 -0.5519
 2060TIP3   OH230374   1.789   4.275  20.038 -0.2450  0.3936 -0.5285
 2060TIP3    H130375   1.694   4.283  20.026 -0.1642  0.1569 -1.4153
 2060TIP3    H230376   1.812   4.347  20.097 -0.7599  1.4131 -1.5262
 2061TIP3   OH230377   1.817   6.408  17.565 -0.3391  0.2951  0.3526
 2061TIP3    H130378   1.877   6.434  17.495  1.0416  2.5817  2.1953
 2061TIP3    H230379   1.739   6.462  17.551 -0.9109 -0.7441 -0.5450
 2062TIP3   OH230380   2.942   5.381  19.152 -0.0104 -0.0916  0.3701
 2062TIP3    H130381   2.857   5.423  19.162  0.3898  0.8202  0.0911
 2062TIP3    H230382   2.943   5.349  19.062 -0.5635 -1.2880  0.7777
 2063TIP3   OH230383   5.657   1.124  20.436  0.3681  0.0496  0.1447
 2063TIP3    H130384   5.574   1.162  20.467  0.1266  0.3730 -0.8557
 2063TIP3    H230385   5.682   1.179  20.362  1.0639 -0.5387 -0.0673
 2064TIP3   OH230386   5.267   5.499  19.844  0.1577 -0.4756  0.0126
 2064TIP3    H130387   5.242   5.466  19.930  1.0557 -1.3688 -0.0596
 2064TIP3    H230388   5.293   5.590  19.860 -2.0870  0.1824  0.2503
 2065TIP3   OH230389   4.821   1.912  17.936  0.4425 -0.1142 -0.6704
 2065TIP3    H130390   4.788   1.850  17.871  3.2846 -0.9275 -1.4497
 2065TIP3    H230391   4.803   1.869  18.020 -2.3921  0.5186 -0.8417
 2066TIP3   OH230392   4.706   0.181  20.113 -0.1908  0.4669  0.3461
 2066TIP3    H130393   4.775   0.167  20.047 -1.7820  0.2136 -1.3612
 2066TIP3    H230394   4.754   0.204  20.193  1.8525  0.6159 -0.8327
 2067TIP3   OH230395   0.167   3.893  18.730  0.4658  0.4217 -0.2120
 2067TIP3    H130396   0.108   3.877  18.657  2.6762 -1.1075 -1.8034
 2067TIP3    H230397   0.143   3.828  18.796 -0.3578  0.6025 -0.3232
 2068TIP3   OH230398   2.902   4.833  19.356 -0.4678  0.5829  0.0457
 2068TIP3    H130399   2.847   4.842  19.278 -1.4258 -0.1645  0.6082
 2068TIP3    H230400   2.879   4.909  19.410 -0.0975  0.8856 -0.2186
 2069TIP3   OH230401   2.996   2.601  18.259  0.4659  0.2579 -0.5369
 2069TIP3    H130402   3.078   2.636  18.292  0.5306  0.2847 -0.7288
 2069TIP3    H230403   3.013   2.581  18.167  0.2016  0.4441 -0.6280
 2070TIP3   OH230404   3.242   6.492  19.816  0.3523  0.2539  0.7537
 2070TIP3    H130405   3.236   6.430  19.888  2.1982 -0.0139  0.7252
 2070TIP3    H230406   3.242   6.438  19.737 -1.0555  0.5113  0.5358
 2071TIP3   OH230407   0.971   1.445  19.853  0.4628 -0.2940  0.0595
 2071TIP3    H130408   1.021   1.394  19.789 -0.8533 -0.7678 -0.6343
 2071TIP3    H230409   1.038   1.486  19.908  1.6033 -0.9939 -0.7455
 2072TIP3   OH230410   2.769   1.528  19.100  0.3256  0.0468  0.3452
 2072TIP3    H130411   2.742   1.579  19.177 -1.5220  0.1619 -0.3301
 2072TIP3    H230412   2.738   1.580  19.026 -0.4580 -1.4457 -0.3969
 2073TIP3   OH230413   4.901   6.069  20.381  0.1070 -0.4218 -0.2609
 2073TIP3    H130414   4.995   6.060  20.395  0.1162  0.8961  0.6614
 2073TIP3    H230415   4.882   6.011  20.307  1.9048  0.4409 -1.4577
 2074TIP3   OH230416   5.291   5.006  18.963 -0.4206  0.2978  0.2294
 2074TIP3    H130417   5.380   4.978  18.985 -0.4548  0.9528  1.2999
 2074TIP3    H230418   5.279   4.979  18.872  0.5356 -0.6160  0.3522
 2075TIP3   OH230419   3.203   2.558  19.276 -0.4103  0.0076  0.1722
 2075TIP3    H130420   3.273   2.506  19.237  0.0306  0.6776  0.0488
 2075TIP3    H230421   3.122   2.511  19.255  0.1239 -2.0154  2.2248
 2076TIP3   OH230422   2.438   5.697  20.468  0.6898  0.0129 -0.1956
 2076TIP3    H130423   2.494   5.631  20.428 -0.2869 -0.5440 -0.6614
 2076TIP3    H230424   2.422   5.664  20.556  0.5180 -0.1777 -0.2991
 2077TIP3   OH230425   2.487   2.521  20.276  0.2704  0.0443  0.5922
 2077TIP3    H130426   2.528   2.554  20.196  0.7291  0.4833  1.0020
 2077TIP3    H230427   2.544   2.551  20.347 -0.9283  0.9735  1.2100
 2078TIP3   OH230428   2.303   5.872  19.626  0.6113  0.0758  0.6074
 2078TIP3    H130429   2.330   5.868  19.534  0.1784  2.6558  0.3115
 2078TIP3    H230430   2.384   5.890  19.673  0.5132  0.8089  0.4982
 2079TIP3   OH230431   2.580   4.396  17.210  0.7177 -0.4893 -0.0927
 2079TIP3    H130432   2.621   4.331  17.153  0.4731 -0.3588 -0.4149
 2079TIP3    H230433   2.643   4.407  17.282  0.6386 -1.2899  0.1098
 2080TIP3   OH230434   2.813   0.045  19.358  0.3340  0.3806  0.3428
 2080TIP3    H130435   2.773   0.075  19.276  0.1610 -1.1604 -0.1681
 2080TIP3    H230436   2.756   0.079  19.426 -0.5326  0.2183 -0.2737
 2081TIP3   OH230437   0.622   5.570  20.550 -0.0793 -0.1321  0.2266
 2081TIP3    H130438   0.552   5.634  20.560  0.8750  0.6477  2.3986
 2081TIP3    H230439   0.665   5.595  20.468 -0.0245  1.7382  0.7869
 2082TIP3   OH230440   1.676   3.568  18.852 -0.2480  0.1839 -0.3429
 2082TIP3    H130441   1.678   3.484  18.806  1.3130 -0.3603  0.6034
 2082TIP3    H230442   1.608   3.558  18.918 -0.2657 -0.2428 -0.4231
 2083TIP3   OH230443   0.724   4.663  20.038 -0.5330  0.2839 -0.2053
 2083TIP3    H130444   0.728   4.646  19.944 -0.1564 -0.9282  0.0187
 2083TIP3    H230445   0.665   4.596  20.072  1.1630 -0.8116  0.7371
 2084TIP3   OH230446   2.168   4.457  17.497  0.0735 -0.5307 -0.1514
 2084TIP3    H130447   2.160   4.531  17.437 -1.0920  0.2671  0.9322
 2084TIP3    H230448   2.242   4.479  17.553 -1.9841  1.3429  2.0723
 2085TIP3   OH230449   5.081   3.088  20.674  0.4356  0.1412  0.6458
 2085TIP3    H130450   5.143   3.016  20.662  0.3931  0.0891  0.7386
 2085TIP3    H230451   5.076   3.131  20.589  2.8861  1.9883  1.3169
 2086TIP3   OH230452   5.224   1.482  19.810 -0.1962 -0.0879 -0.0342
 2086TIP3    H130453   5.282   1.411  19.837 -1.1530 -1.1475 -0.6561
 2086TIP3    H230454   5.263   1.561  19.847  1.5667 -0.7780 -0.3411
 2087TIP3   OH230455   2.443   6.486  18.455  0.1874  0.2514 -0.0813
 2087TIP3    H130456   2.349   6.474  18.459 -0.3117  3.5323  2.9967
 2087TIP3    H230457   2.457   6.551  18.386  0.2374 -0.1069 -0.4174
 2088TIP3   OH230458   4.995   5.568  18.116 -0.1337 -0.5901  0.0112
 2088TIP3    H130459   5.075   5.515  18.108 -0.2277 -0.5944 -1.0400
 2088TIP3    H230460   4.928   5.506  18.144 -0.3874 -1.1924 -1.8159
 2089TIP3   OH230461   1.957   0.646  18.277 -0.2358  0.2336 -0.0949
 2089TIP3    H130462   1.918   0.698  18.207 -0.7268  1.2856  0.9310
 2089TIP3    H230463   1.984   0.711  18.343 -0.1695 -0.7583  0.8775
 2090TIP3   OH230464   5.163   1.185  18.816 -0.3411 -0.3889  0.8662
 2090TIP3    H130465   5.184   1.098  18.849  0.5584  0.2471  2.0199
 2090TIP3    H230466   5.091   1.170  18.754  0.2968 -2.0264  0.4800
 2091TIP3   OH230467   0.075   6.710  20.368  0.1426  0.3103 -0.1878
 2091TIP3    H130468   0.086   6.701  20.463 -1.2519 -0.9434 -0.1080
 2091TIP3    H230469   0.134   6.645  20.330 -0.0852  0.0601 -0.1215
 2092TIP3   OH230470   0.792   1.992  20.678  0.4618  0.2581 -0.0679
 2092TIP3    H130471   0.850   1.954  20.613  0.2593  0.6166 -0.4645
 2092TIP3    H230472   0.729   1.923  20.698  0.3217  0.2563 -0.5050
 2093TIP3   OH230473   0.188   0.904  19.712  0.3060  0.6229 -0.2607
 2093TIP3    H130474   0.150   0.824  19.678  0.3458  0.0869  0.8872
 2093TIP3    H230475   0.246   0.875  19.783  1.2231  1.5804 -0.5808
 2094TIP3   OH230476   2.398   0.548  19.707 -0.3062 -0.3083 -0.3392
 2094TIP3    H130477   2.415   0.505  19.791  0.1960  1.2764  0.4059
 2094TIP3    H230478   2.356   0.481  19.653 -1.0238 -1.2335  1.3227
 2095TIP3   OH230479   1.836   5.642  20.204  0.3404  0.6476 -0.2589
 2095TIP3    H130480   1.787   5.581  20.148  0.2619  0.1520  0.3468
 2095TIP3    H230481   1.858   5.591  20.282  1.2222  1.0715 -0.2164
 2096TIP3   OH230482   5.880   6.252  19.779 -0.6090  0.4679  0.2956
 2096TIP3    H130483   5.890   6.312  19.853 -2.1099  0.6338  0.3929
 2096TIP3    H230484   5.889   6.165  19.817 -3.8859  0.4094  1.2437
 2097TIP3   OH230485   1.148   0.781  17.567 -0.2240 -0.3365 -0.3227
 2097TIP3    H130486   1.176   0.869  17.541  1.7667 -0.6892  0.4753
 2097TIP3    H230487   1.218   0.749  17.624 -1.9598 -1.6093  1.2008
 2098TIP3   OH230488   2.613   5.898  20.855  0.1749  0.0178 -0.3887
 2098TIP3    H130489   2.617   5.803  20.843 -0.3576  0.1914 -2.1386
 2098TIP3    H230490   2.520   5.919  20.846 -0.1516  0.4194  2.7665
 2099TIP3   OH230491   2.480   5.965  18.529  0.1241  0.1797 -0.3907
 2099TIP3    H130492   2.504   6.052  18.500 -1.7066  0.6512 -0.6559
 2099TIP3    H230493   2.560   5.929  18.567  1.3363  1.3483 -1.7063
 2100TIP3   OH230494   2.299   6.308  19.038 -0.2625 -0.5510  0.3834
 2100TIP3    H130495   2.382   6.342  19.071 -0.0064  1.3096 -1.8925
 2100TIP3    H230496   2.232   6.359  19.082 -0.0718 -0.3094  0.3925
 2101TIP3   OH230497   3.609   3.014  18.542 -0.1704 -0.1227 -0.0124
 2101TIP3    H130498   3.603   2.967  18.459 -1.6838 -0.2828  0.1540
 2101TIP3    H230499   3.599   3.106  18.518 -1.1518 -0.2064  0.0119
 2102TIP3   OH230500   0.450   0.151  18.064  0.2351 -0.4458 -0.3702
 2102TIP3    H130501   0.544   0.132  18.070  0.2703 -1.1174 -2.3516
 2102TIP3    H230502   0.429   0.140  17.971 -1.4143  1.6153 -0.3259
 2103TIP3   OH230503   0.021   6.393  18.184  0.0872 -0.5095  0.3147
 2103TIP3    H130504   0.002   6.441  18.264 -1.3723 -0.0575 -0.2584
 2103TIP3    H230505   0.087   6.446  18.139 -0.5529  0.2988  0.2987
 2104TIP3   OH230506   2.608   2.201  18.955  0.5664 -0.2405  0.5151
 2104TIP3    H130507   2.681   2.189  18.894  0.0584 -0.6292 -0.0425
 2104TIP3    H230508   2.548   2.261  18.909 -0.5294 -1.7042 -0.0437
 2105TIP3   OH230509   1.932   0.908  17.595 -0.5079 -0.2956  0.5003
 2105TIP3    H130510   2.018   0.930  17.559 -0.4682 -1.0601  0.0929
 2105TIP3    H230511   1.881   0.988  17.586 -0.0554 -0.0422  0.0849
 2106TIP3   OH230512   6.400   0.052  18.661  0.7498  0.1688  0.1784
 2106TIP3    H130513   6.314   0.040  18.621  0.6800 -1.0456  0.6272
 2106TIP3    H230514   6.444   0.117  18.606  0.2346 -0.6050 -1.2046
 2107TIP3   OH230515   6.595   0.605  18.980 -0.7951  0.3653 -0.0604
 2107TIP3    H130516   6.624   0.520  18.947  1.6494  1.0257  0.2495
 2107TIP3    H230517   6.664   0.632  19.041 -1.9267  2.2176  0.4717
 2108TIP3   OH230518   3.764   5.465  20.595  0.7739 -0.0758 -0.8198
 2108TIP3    H130519   3.674   5.458  20.563  0.5914  0.1000 -0.3573
 2108TIP3    H230520   3.782   5.380  20.635  0.2790  0.3772  0.4221
 2109TIP3   OH230521   4.165   6.580  17.798 -0.2661 -0.2161 -0.5948
 2109TIP3    H130522   4.252   6.614  17.777 -0.1502 -0.6325 -0.7990
 2109TIP3    H230523   4.175   6.485  17.792 -0.3377 -0.3419  0.9038
 2110TIP3   OH230524   4.067   5.393  20.772  0.5793  0.4044  0.0805
 2110TIP3    H130525   3.998   5.395  20.838  0.0382  0.3638 -0.4799
 2110TIP3    H230526   4.104   5.305  20.779 -0.6069 -0.2008 -0.8072
 2111TIP3   OH230527   3.204   1.551  20.825  0.4478 -0.5350 -0.9519
 2111TIP3    H130528   3.299   1.536  20.823  0.6335 -0.4340  2.2695
 2111TIP3    H230529   3.175   1.533  20.735  3.6268  0.4555 -2.3081
 2112TIP3   OH230530   4.392   0.778  16.840 -0.1844  0.3307 -0.4666
 2112TIP3    H130531   4.477   0.749  16.807 -0.0004  0.1571  0.1487
 2112TIP3    H230532   4.331   0.709  16.815 -0.2799  0.7717 -1.5060
 2113TIP3   OH230533   1.840   5.240  19.572  0.2598 -0.7686  0.1523
 2113TIP3    H130534   1.874   5.160  19.612  0.5287 -0.1384  1.2141
 2113TIP3    H230535   1.918   5.295  19.559  0.0501 -0.5915 -0.3665
 2114TIP3   OH230536   6.562   3.146  18.986  0.0141  0.2467 -0.2220
 2114TIP3    H130537   6.519   3.081  19.041 -0.1147  0.8665  0.4227
 2114TIP3    H230538   6.498   3.217  18.976 -0.2087 -0.1184 -1.7014
 2115TIP3   OH230539   0.979   0.570  19.039 -0.2785  0.1824  0.4922
 2115TIP3    H130540   1.034   0.574  18.962 -1.1130 -1.1295 -0.2103
 2115TIP3    H230541   0.891   0.592  19.007 -0.1707  2.6369  1.6593
 2116TIP3   OH230542   0.719   1.479  18.171 -0.5061  0.3984  0.0154
 2116TIP3    H130543   0.649   1.414  18.172  1.2511 -1.5701  0.9435
 2116TIP3    H230544   0.759   1.471  18.085 -1.0826  1.2226 -0.3535
 2117TIP3   OH230545   3.285   5.598  19.729 -0.2529 -0.3167 -0.2802
 2117TIP3    H130546   3.365   5.548  19.740 -0.0893 -0.1701 -0.7529
 2117TIP3    H230547   3.215   5.535  19.743 -0.0626 -0.3542  0.5528
 2118TIP3   OH230548   4.145   5.064  20.316  0.4644  0.1476  0.3880
 2118TIP3    H130549   4.220   5.027  20.270  0.4167 -0.1131  0.5180
 2118TIP3    H230550   4.179   5.144  20.357  0.9161 -0.4629  1.2207
 2119TIP3   OH230551   0.894   1.207  17.992 -0.2978 -0.1337 -0.3254
 2119TIP3    H130552   0.915   1.148  17.920  0.6509  1.3149 -1.3114
 2119TIP3    H230553   0.968   1.198  18.052  1.9072  2.7106 -2.3184
 2120TIP3   OH230554   2.371   1.740  19.618  0.4624 -0.1028 -0.0092
 2120TIP3    H130555   2.407   1.821  19.653 -0.4231  0.6003 -0.6826
 2120TIP3    H230556   2.321   1.703  19.691  0.7511  0.0192  0.2540
 2121TIP3   OH230557   0.985   0.237  19.720  0.3077 -0.3303  0.0298
 2121TIP3    H130558   0.909   0.207  19.670 -0.4748  0.0123  0.9815
 2121TIP3    H230559   0.949   0.261  19.806  1.3787  0.5296  0.2525
 2122TIP3   OH230560   0.694   5.317  20.652  0.0344  0.2819 -0.1730
 2122TIP3    H130561   0.681   5.410  20.632  1.4511  0.8954  1.5112
 2122TIP3    H230562   0.608   5.278  20.643 -0.5519  1.7196 -1.0963
 2123TIP3   OH230563   3.222   4.128  20.539  0.2451 -0.0818 -0.3645
 2123TIP3    H130564   3.288   4.059  20.540 -0.2475 -0.5850  1.3297
 2123TIP3    H230565   3.154   4.097  20.479 -0.4993 -1.6475  1.1906
 2124TIP3   OH230566   6.721   6.294  20.081  0.2472 -0.0878 -0.4173
 2124TIP3    H130567   6.700   6.216  20.029 -0.4151  0.6495 -1.2935
 2124TIP3    H230568   6.658   6.359  20.052  0.0029  0.4181  1.2057
 2125TIP3   OH230569   1.135   2.697  19.772 -0.0162  0.0624  0.1558
 2125TIP3    H130570   1.185   2.623  19.736  1.2519  1.0313 -0.1237
 2125TIP3    H230571   1.051   2.659  19.795  0.3552 -1.3304 -0.6461
 2126TIP3   OH230572   3.561   0.022  18.154 -0.0603  0.7683 -0.7063
 2126TIP3    H130573   3.637   0.064  18.116  1.5278 -0.5868  0.7983
 2126TIP3    H230574   3.515   0.092  18.201  1.8528  1.1303  0.7353
 2127TIP3   OH230575   6.027   0.418  19.369  0.3243  0.1658  0.4203
 2127TIP3    H130576   6.021   0.441  19.277 -1.8448  0.3454  0.5612
 2127TIP3    H230577   6.118   0.434  19.392  0.6434  1.1782 -1.4052
 2128TIP3   OH230578   3.358   0.250  20.456  0.3636  0.0601  0.1771
 2128TIP3    H130579   3.320   0.163  20.466  1.4600 -0.2601  1.9252
 2128TIP3    H230580   3.378   0.257  20.363 -0.1473 -1.3670 -0.0612
 2129TIP3   OH230581   1.682   0.624  19.216  0.4267 -0.2884 -0.1536
 2129TIP3    H130582   1.757   0.672  19.182  0.4939 -0.6206 -0.4773
 2129TIP3    H230583   1.608   0.682  19.202  0.7210  0.3612  0.8565
 2130TIP3   OH230584   0.690   2.791  18.832  0.1666  0.1371 -0.2665
 2130TIP3    H130585   0.706   2.770  18.740  0.2978 -1.3952  0.0783
 2130TIP3    H230586   0.598   2.769  18.847 -0.0504  1.0691 -0.2028
 2131TIP3   OH230587   6.325   6.282  17.892 -0.6717  0.4379 -0.1802
 2131TIP3    H130588   6.233   6.255  17.891 -0.9206  0.6162  3.6235
 2131TIP3    H230589   6.335   6.332  17.974  3.0030 -0.3361  0.0230
 2132TIP3   OH230590   0.524   6.575  18.158 -0.2824 -0.0722  0.2257
 2132TIP3    H130591   0.524   6.549  18.066  0.5812  0.8351 -0.0461
 2132TIP3    H230592   0.491   6.498  18.205 -0.5016 -0.6238 -0.8151
 2133TIP3   OH230593   1.662   2.708  20.638 -0.0423 -0.2688  0.4611
 2133TIP3    H130594   1.607   2.655  20.695 -0.1324 -0.6112  0.0596
 2133TIP3    H230595   1.720   2.645  20.594 -1.1782 -0.2363 -1.1691
 2134TIP3   OH230596   2.188   2.793  20.692 -0.6784 -0.1475 -0.2220
 2134TIP3    H130597   2.221   2.858  20.630  1.8822 -0.7656  0.4088
 2134TIP3    H230598   2.128   2.842  20.748  1.9131  2.0000  0.8600
 2135TIP3   OH230599   0.373   1.264  18.967  0.3229 -0.0704  0.1599
 2135TIP3    H130600   0.308   1.243  19.035 -1.1717  0.5577 -1.0067
 2135TIP3    H230601   0.386   1.182  18.920 -1.3662  0.2489 -0.9732
 2136TIP3   OH230602   3.009   5.771  20.207  0.1546  0.6368 -0.2965
 2136TIP3    H130603   3.052   5.758  20.292 -2.4202 -0.5826  0.9191
 2136TIP3    H230604   3.031   5.693  20.156  1.6111  1.3182 -0.7709
 2137TIP3   OH230605   3.612   3.059  19.167 -0.2299  0.6101  0.1158
 2137TIP3    H130606   3.639   3.121  19.235 -0.7102  0.3728  0.5300
 2137TIP3    H230607   3.623   2.973  19.207 -3.8107  0.5045  1.2564
 2138TIP3   OH230608   1.457   6.590  18.146  0.3898  0.1803  0.1253
 2138TIP3    H130609   1.533   6.560  18.097  0.4550 -1.7440  1.3058
 2138TIP3    H230610   1.466   6.549  18.232 -2.0354 -0.2440  0.2537
 2139TIP3   OH230611   0.963   5.248  18.925 -0.1207  0.1897  0.2186
 2139TIP3    H130612   1.013   5.321  18.961  0.8015  0.9557 -2.3921
 2139TIP3    H230613   0.919   5.284  18.848 -1.0355 -1.5987 -0.1572
 2140TIP3   OH230614   3.200   6.119  20.192  0.0578 -0.2005 -0.0725
 2140TIP3    H130615   3.245   6.037  20.212 -0.9892 -0.5885  0.7672
 2140TIP3    H230616   3.259   6.187  20.224 -0.4514 -0.7281  2.1572
 2141TIP3   OH230617   0.928   6.079  20.701 -0.3469  0.2121  0.8837
 2141TIP3    H130618   0.884   6.131  20.634  0.4557  0.8873  0.8644
 2141TIP3    H230619   0.959   6.001  20.655 -1.6301 -0.3415  0.9293
 2142TIP3   OH230620   5.460   1.418  19.043  0.4406  0.5920 -0.4743
 2142TIP3    H130621   5.413   1.335  19.043 -1.6346  1.6604  1.5014
 2142TIP3    H230622   5.522   1.411  19.115  0.1487  0.7872 -0.1993
 2143TIP3   OH230623   3.908   6.315  17.435  0.4868 -0.0714  0.2254
 2143TIP3    H130624   3.971   6.268  17.380 -1.1087 -1.5778 -0.4210
 2143TIP3    H230625   3.899   6.400  17.394  0.7676 -0.4841 -0.7105
 2144TIP3   OH230626   3.766   4.976  20.839 -0.6212 -0.3236 -0.1567
 2144TIP3    H130627   3.783   5.012  20.926 -1.4018 -0.4344  0.0541
 2144TIP3    H230628   3.782   4.882  20.848  0.2426 -0.2060 -0.3916
 2145TIP3   OH230629   6.193   2.693  18.467 -0.2117  0.1070 -0.0074
 2145TIP3    H130630   6.099   2.676  18.461 -0.5064  0.7298  1.9353
 2145TIP3    H230631   6.199   2.781  18.504  1.0108 -1.0866  2.9732
 2146TIP3   OH230632   3.278   0.407  17.941  0.3068  0.5627  0.2647
 2146TIP3    H130633   3.361   0.359  17.946 -0.6792 -1.0998  1.7610
 2146TIP3    H230634   3.281   0.452  17.857  1.4828 -1.8610 -1.0755
 2147TIP3   OH230635   6.197   0.616  19.562  0.1794  0.3136 -0.8371
 2147TIP3    H130636   6.246   0.573  19.491 -2.1322 -0.7698 -1.9033
 2147TIP3    H230637   6.168   0.699  19.524  0.4715  0.5558 -0.5257
 2148TIP3   OH230638   0.982   1.843  20.547  0.1112  0.2004 -0.0467
 2148TIP3    H130639   1.036   1.892  20.484 -1.4014  1.7110 -0.2392
 2148TIP3    H230640   1.046   1.799  20.603  1.5241 -0.4756 -2.0564
 2149TIP3   OH230641   0.180   1.619  19.123 -0.1919 -0.1799 -0.5352
 2149TIP3    H130642   0.205   1.660  19.041 -1.3576  0.5381 -0.5598
 2149TIP3    H230643   0.213   1.678  19.191  0.2096 -0.4459 -0.4925
 2150TIP3   OH230644   0.788   0.082  20.479  0.1395  0.2098  0.1444
 2150TIP3    H130645   0.786   0.144  20.407 -0.4864 -0.0021 -0.0260
 2150TIP3    H230646   0.860   0.111  20.534  1.3443 -0.2699 -1.1327
 2151TIP3   OH230647   4.584   0.155  17.761 -0.2679  0.4081 -0.2149
 2151TIP3    H130648   4.593   0.113  17.847  0.3671 -0.9518 -0.9081
 2151TIP3    H230649   4.584   0.249  17.780 -1.0568  0.1206  1.3383
 2152TIP3   OH230650   4.755   0.295  18.478  0.1253  0.4528  0.0275
 2152TIP3    H130651   4.779   0.231  18.411 -0.8741 -0.2442  0.3069
 2152TIP3    H230652   4.669   0.327  18.451 -0.2282  0.2592  0.8963
 2153TIP3   OH230653   5.736   4.614  21.105  1.0971 -0.1027  0.0099
 2153TIP3    H130654   5.675   4.650  21.169 -0.4241 -0.3964 -1.1897
 2153TIP3    H230655   5.821   4.652  21.128  0.4995  0.2429  1.8048
 2154TIP3   OH230656   3.152   4.546  18.820  0.1385 -0.4598  0.0561
 2154TIP3    H130657   3.227   4.510  18.868  0.0215 -1.1965 -0.2990
 2154TIP3    H230658   3.191   4.588  18.743  0.4644  2.0099  1.4768
 2155TIP3   OH230659   2.311   3.424  18.616 -0.7161  0.0429 -0.3275
 2155TIP3    H130660   2.244   3.481  18.578  0.2498  2.0742  0.8836
 2155TIP3    H230661   2.341   3.371  18.542 -3.6328 -1.0021 -0.9121
 2156TIP3   OH230662   2.110   4.266  18.814  0.3463 -0.6896  0.2109
 2156TIP3    H130663   2.177   4.198  18.826  0.4004 -0.6072  0.3748
 2156TIP3    H230664   2.039   4.221  18.769  1.0276 -0.4697 -1.1383
 2157TIP3   OH230665   1.082   1.763  17.762  0.1580 -0.3548 -0.1340
 2157TIP3    H130666   0.988   1.751  17.748 -0.3362  1.0560  1.6002
 2157TIP3    H230667   1.099   1.853  17.731  0.4362  0.2203  1.5837
 2158TIP3   OH230668   2.884   5.131  19.286 -0.3773  0.1356  0.5055
 2158TIP3    H130669   2.791   5.117  19.306 -0.5235 -0.1110 -0.2912
 2158TIP3    H230670   2.887   5.218  19.246 -0.6392 -0.7457 -1.5709
 2159TIP3   OH230671   0.817   5.990  20.100 -0.0816  0.2820 -0.1802
 2159TIP3    H130672   0.851   5.927  20.037 -1.3186 -0.8769  0.2753
 2159TIP3    H230673   0.873   5.980  20.177 -0.8759 -0.9823  0.2478
 2160TIP3   OH230674   4.329   0.809  19.664  0.2278  0.5430  0.0512
 2160TIP3    H130675   4.337   0.904  19.671 -2.1914  0.8502 -0.2953
 2160TIP3    H230676   4.326   0.792  19.569 -0.2153  0.2455  0.1107
 2161TIP3   OH230677   5.208   1.081  19.719 -0.6719 -0.8240 -0.3098
 2161TIP3    H130678   5.226   1.156  19.776 -3.2903  0.6010 -1.1940
 2161TIP3    H230679   5.129   1.042  19.755 -2.2022 -0.0954 -2.6440
 2162TIP3   OH230680   3.841   1.681  19.050 -0.7423  0.2806  0.4946
 2162TIP3    H130681   3.759   1.721  19.079 -0.7168  0.1224  0.7918
 2162TIP3    H230682   3.881   1.746  18.992 -0.8196  0.5822  0.7746
 2163TIP3   OH230683   2.184   1.321  16.984  0.0176  0.6472  0.0777
 2163TIP3    H130684   2.214   1.289  17.068  0.4693 -0.2715 -0.4154
 2163TIP3    H230685   2.163   1.413  16.999  2.6261  1.2366  0.5676
 2164TIP3   OH230686   5.560   2.256  19.505  0.0425 -0.1547  0.1842
 2164TIP3    H130687   5.469   2.229  19.513 -0.6522  1.9115 -0.1557
 2164TIP3    H230688   5.564   2.341  19.548  1.7973 -0.1582  0.1075
 2165TIP3   OH230689   3.911   2.871  19.263 -0.9058  0.0313 -0.2166
 2165TIP3    H130690   3.823   2.835  19.265 -0.3122 -1.4843  1.1264
 2165TIP3    H230691   3.961   2.810  19.210 -0.0450 -0.8304  1.4911
 2166TIP3   OH230692   5.342   3.711  19.025 -0.1260 -0.3109  0.0035
 2166TIP3    H130693   5.393   3.651  18.970  0.1953  0.7154 -0.8417
 2166TIP3    H230694   5.302   3.772  18.964 -1.7840 -0.6180  0.7144
 2167TIP3   OH230695   2.594   0.575  18.433  0.2089  0.2521 -0.6868
 2167TIP3    H130696   2.552   0.539  18.355  0.1604 -1.2559 -0.0017
 2167TIP3    H230697   2.614   0.498  18.487 -3.3859  1.3778  2.6678
 2168TIP3   OH230698   4.216   1.813  17.668 -0.1667 -0.6623 -0.0338
 2168TIP3    H130699   4.309   1.790  17.668  0.2553  0.8850  1.2623
 2168TIP3    H230700   4.214   1.906  17.690 -1.9610 -0.2571 -1.6513
 2169TIP3   OH230701   1.991   1.105  18.660  0.4780  0.0116 -0.2320
 2169TIP3    H130702   1.940   1.149  18.727 -0.0656 -1.7623  0.5588
 2169TIP3    H230703   1.926   1.073  18.597  0.8886  0.5225 -0.9383
 2170TIP3   OH230704   6.195   6.251  19.912 -1.0180  0.0208  0.5764
 2170TIP3    H130705   6.235   6.275  19.996 -0.6345  0.6517  0.2272
 2170TIP3    H230706   6.122   6.194  19.936 -1.3422  0.7429  1.3876
 2171TIP3   OH230707   5.684   6.090  17.846 -0.3080 -0.8135 -0.5253
 2171TIP3    H130708   5.770   6.111  17.807  0.7815 -0.2949  1.9895
 2171TIP3    H230709   5.621   6.116  17.779  1.3474  2.1719 -1.1074
 2172TIP3   OH230710   3.786   3.186  19.764 -0.3002  0.5252  0.0134
 2172TIP3    H130711   3.782   3.279  19.788  1.6464 -0.2170  4.1866
 2172TIP3    H230712   3.694   3.161  19.755 -1.1257  2.1555  2.5865
 2173TIP3   OH230713   5.515   5.684  18.958 -0.7162 -0.2742  0.2996
 2173TIP3    H130714   5.583   5.619  18.943  0.5480  1.2280 -0.8443
 2173TIP3    H230715   5.544   5.732  19.035  0.2623  1.1909 -0.9203
 2174TIP3   OH230716   0.451   2.088  17.881 -0.2937 -0.6904 -0.1903
 2174TIP3    H130717   0.497   2.172  17.883 -0.9829 -0.3136  1.8252
 2174TIP3    H230718   0.514   2.028  17.841  0.7404  0.4909 -0.4105
 2175TIP3   OH230719   3.884   0.866  19.672  0.2191  0.1942  0.0936
 2175TIP3    H130720   3.946   0.797  19.696 -0.4041 -0.0576  1.0108
 2175TIP3    H230721   3.880   0.923  19.749 -0.3354  0.4742 -0.1369
 2176TIP3   OH230722   6.054   1.935  19.773 -0.1347  0.2275  0.1991
 2176TIP3    H130723   6.087   2.022  19.796 -0.1142  0.5379 -0.9281
 2176TIP3    H230724   6.128   1.877  19.787 -0.0432  0.4514  0.6356
 2177TIP3   OH230725   2.665   4.270  18.941 -0.6994  0.0532 -1.1278
 2177TIP3    H130726   2.752   4.264  18.902 -0.9850 -1.3450 -1.6019
 2177TIP3    H230727   2.676   4.239  19.031 -0.4171  1.4568 -0.6432
 2178TIP3   OH230728   0.369   1.267  17.404  0.2603  0.2696 -0.5089
 2178TIP3    H130729   0.419   1.349  17.412  0.0858  0.1974  5.1088
 2178TIP3    H230730   0.435   1.199  17.399  0.5783  0.5337 -0.0133
 2179TIP3   OH230731   3.482   2.867  18.767  0.5801  0.1057  0.3385
 2179TIP3    H130732   3.513   2.905  18.685  0.1519 -1.7928 -0.7660
 2179TIP3    H230733   3.554   2.810  18.795 -0.3691 -1.4471 -0.2711
 2180TIP3   OH230734   1.183   6.028  18.588  0.2008 -0.4867  0.2640
 2180TIP3    H130735   1.098   6.067  18.568  0.6253 -0.0471 -0.7373
 2180TIP3    H230736   1.227   6.019  18.503  2.3621  2.1143  0.9620
 2181TIP3   OH230737   4.473   1.235  17.435  0.1247  0.4356 -0.1893
 2181TIP3    H130738   4.443   1.232  17.344  2.0703  0.6201 -0.9052
 2181TIP3    H230739   4.557   1.281  17.430  0.7244 -0.3906  1.5690
 2182TIP3   OH230740   3.945   3.395  19.430 -0.0455 -0.3580 -1.1402
 2182TIP3    H130741   3.854   3.415  19.449  0.1417  0.5155 -1.1197
 2182TIP3    H230742   3.945   3.302  19.408 -0.9711 -0.3214 -1.3358
 2183TIP3   OH230743   1.966   3.350  19.076 -0.2310 -0.4245 -0.0011
 2183TIP3    H130744   1.965   3.256  19.054 -1.4200 -0.5420  0.4457
 2183TIP3    H230745   1.990   3.393  18.994 -1.3060 -1.0427 -0.6747
 2184TIP3   OH230746   2.380   2.444  18.681  0.1605 -0.1167  0.6727
 2184TIP3    H130747   2.317   2.400  18.623  0.2507 -2.0784  1.9765
 2184TIP3    H230748   2.466   2.417  18.648  0.4242  2.1849 -0.8109
 2185TIP3   OH230749   0.135   1.960  19.521 -0.3830  0.0083  0.0206
 2185TIP3    H130750   0.164   1.975  19.431 -0.1112  1.2760  0.2960
 2185TIP3    H230751   0.140   1.865  19.533  0.1576 -0.1181 -1.1087
 2186TIP3   OH230752   6.283   6.279  20.391  0.1810  0.2780  0.3124
 2186TIP3    H130753   6.223   6.216  20.430 -1.2497  1.5334  0.2043
 2186TIP3    H230754   6.274   6.358  20.444 -0.2087  1.3278 -1.2557
 2187TIP3   OH230755   0.873   3.679  17.846  0.5833  0.5110  0.1714
 2187TIP3    H130756   0.936   3.743  17.881 -0.1873  1.5263 -0.2401
 2187TIP3    H230757   0.791   3.728  17.838  0.8275  0.6045 -3.6731
 2188TIP3   OH230758   2.082   1.464  18.513 -0.5233 -0.2086 -0.0181
 2188TIP3    H130759   1.992   1.435  18.530 -2.0154  2.8251 -1.8489
 2188TIP3    H230760   2.117   1.399  18.453 -3.1300  0.6165 -2.6904
 2189TIP3   OH230761   2.189   5.622  19.727  0.2830 -0.3648 -0.1069
 2189TIP3    H130762   2.204   5.695  19.668 -2.5165 -0.2786 -0.8432
 2189TIP3    H230763   2.258   5.631  19.794  1.6181  1.3491 -1.6031
 2190TIP3   OH230764   3.831   6.583  19.824 -0.8749  0.1669  0.1784
 2190TIP3    H130765   3.800   6.500  19.788 -0.6036 -0.8870  2.2193
 2190TIP3    H230766   3.913   6.600  19.777 -1.8419  0.2405 -1.5272
 2191TIP3   OH230767   1.181   6.040  17.178  0.4911 -0.1790  0.2502
 2191TIP3    H130768   1.266   6.079  17.158 -0.4751  1.2365 -1.3696
 2191TIP3    H230769   1.150   6.089  17.254  0.2942  0.6373 -0.3496
 2192TIP3   OH230770   1.075   4.733  20.208 -0.6133 -0.0926 -0.3162
 2192TIP3    H130771   1.020   4.796  20.255 -0.6267 -0.5226  0.2598
 2192TIP3    H230772   1.119   4.785  20.140 -0.3720  0.6022  0.3576
 2193TIP3   OH230773   2.459   1.691  17.694  0.5282  0.4442  0.2600
 2193TIP3    H130774   2.547   1.707  17.661  0.6705  1.4437  1.0736
 2193TIP3    H230775   2.404   1.756  17.649  0.4576  0.7614  0.7892
 2194TIP3   OH230776   2.019   1.855  18.970  0.3276  0.0640  0.3384
 2194TIP3    H130777   1.971   1.932  18.940  0.0976 -0.3428 -0.3558
 2194TIP3    H230778   2.093   1.890  19.020  1.6908  0.8527 -2.0707
 2195TIP3   OH230779   2.446   2.357  19.196 -0.2778 -0.2766 -0.0166
 2195TIP3    H130780   2.438   2.340  19.102  1.4210 -0.9383 -0.0771
 2195TIP3    H230781   2.399   2.284  19.237  3.2273 -2.9708 -0.3494
 2196TIP3   OH230782   3.758   2.367  20.950 -0.1982 -0.0357  0.2778
 2196TIP3    H130783   3.741   2.343  21.041 -1.7859 -1.0866 -0.2581
 2196TIP3    H230784   3.681   2.419  20.925  0.6067  0.9346 -0.2481
 2197TIP3   OH230785   2.468   1.682  20.649  0.3133 -1.1665 -0.4351
 2197TIP3    H130786   2.457   1.777  20.641  1.1831 -1.0307 -0.1262
 2197TIP3    H230787   2.536   1.660  20.585  0.1825 -1.5704 -0.4358
 2198TIP3   OH230788   1.170   6.366  19.935 -0.3542 -0.5221 -0.2501
 2198TIP3    H130789   1.260   6.344  19.960 -0.1771  0.0725 -0.3488
 2198TIP3    H230790   1.130   6.282  19.912  0.7357 -0.6074 -2.0390
 2199TIP3   OH230791   3.987   5.580  18.717  0.0474 -0.0978  0.0374
 2199TIP3    H130792   3.923   5.511  18.701  0.6023 -0.5789 -0.1375
 2199TIP3    H230793   4.016   5.605  18.629  2.2650 -1.9456  0.1638
 2200TIP3   OH230794   4.460   1.403  18.234  0.3860  0.7078  0.0688
 2200TIP3    H130795   4.524   1.445  18.176  0.3443  1.8829  0.8336
 2200TIP3    H230796   4.375   1.430  18.200  0.2081 -1.4349 -1.3834
 2201TIP3   OH230797   1.765   0.031  19.692 -0.1148  0.0414 -0.0376
 2201TIP3    H130798   1.680   0.037  19.647 -0.2837  4.4374  0.4257
 2201TIP3    H230799   1.830   0.049  19.624  0.6067 -3.0622 -0.3354
 2202TIP3   OH230800   2.793   2.129  18.762  0.5477  0.2637  0.0599
 2202TIP3    H130801   2.818   2.068  18.693 -0.3852 -0.2767  0.1797
 2202TIP3    H230802   2.861   2.196  18.761 -0.5470  1.5159 -2.9155
 2203TIP3   OH230803   3.327   5.123  20.943  0.1674  0.3206  0.3303
 2203TIP3    H130804   3.306   5.063  20.871  0.6946 -0.9164  1.1562
 2203TIP3    H230805   3.260   5.191  20.938  1.3946  1.4559 -2.5749
 2204TIP3   OH230806   1.588   6.478  19.567  0.3549  0.2178 -0.6284
 2204TIP3    H130807   1.501   6.440  19.558  0.9866 -1.3054 -0.5867
 2204TIP3    H230808   1.590   6.549  19.503 -0.1904 -1.1327 -2.2083
 2205TIP3   OH230809   1.178   5.635  20.364 -0.4355 -0.0697 -0.0420
 2205TIP3    H130810   1.160   5.697  20.293  1.2577  1.1255  0.5063
 2205TIP3    H230811   1.092   5.601  20.388 -1.3374  1.4718 -0.9043
 2206TIP3   OH230812   2.387   4.109  18.789  0.1377  0.1272  0.2392
 2206TIP3    H130813   2.375   4.046  18.718  0.6172 -1.2953  1.3603
 2206TIP3    H230814   2.475   4.143  18.777 -0.3847  1.1961 -0.8008
 2207TIP3   OH230815   4.661   1.225  20.061 -0.3156 -0.1972 -0.5662
 2207TIP3    H130816   4.716   1.292  20.021 -0.4949  1.0785  1.1888
 2207TIP3    H230817   4.707   1.201  20.142 -0.3541 -2.0824 -1.0576
 2208TIP3   OH230818   3.156   3.305  18.504  0.1832 -0.3575 -0.6205
 2208TIP3    H130819   3.139   3.266  18.590  2.6547  0.9503  0.5737
 2208TIP3    H230820   3.142   3.399  18.517  1.2199 -0.0788 -1.4392
 2209TIP3   OH230821   3.530   0.423  19.027 -0.4441  0.8181  0.3503
 2209TIP3    H130822   3.608   0.474  19.045  0.4223  0.2822 -1.5708
 2209TIP3    H230823   3.458   0.477  19.058  0.6016  2.0391  0.7211
 2210TIP3   OH230824   5.532   5.857  19.185  0.1034  0.0412  0.1642
 2210TIP3    H130825   5.473   5.929  19.163 -0.6273 -0.3234  0.8668
 2210TIP3    H230826   5.620   5.894  19.178 -0.2898  1.2463  1.3651
 2211TIP3   OH230827   4.381   5.135  19.914  0.2864 -0.5396 -0.3992
 2211TIP3    H130828   4.375   5.054  19.864 -0.5820 -0.5686 -0.2697
 2211TIP3    H230829   4.470   5.136  19.948  0.3494 -1.3722 -0.5153
 2212TIP3   OH230830   0.568   5.033  19.093  0.2026 -0.2027 -0.3639
 2212TIP3    H130831   0.508   4.958  19.092  0.6440 -0.6842  2.1772
 2212TIP3    H230832   0.513   5.108  19.116  0.1582 -0.1758 -0.5571
 2213TIP3   OH230833   3.706   0.265  16.984  0.3896  0.1820  0.0187
 2213TIP3    H130834   3.620   0.293  17.017  0.5091  0.6560 -0.0665
 2213TIP3    H230835   3.768   0.299  17.048  0.4444 -1.1624  0.7148
 2214TIP3   OH230836   6.376   1.711  18.679 -0.1965  0.1429 -0.0047
 2214TIP3    H130837   6.430   1.694  18.601  1.4165 -0.4164  1.1734
 2214TIP3    H230838   6.307   1.645  18.676  1.5821 -1.8545  0.5279
 2215TIP3   OH230839   6.716   4.660  20.587 -0.7846  0.1907  0.2874
 2215TIP3    H130840   6.796   4.615  20.612 -0.6373 -0.2274 -0.8470
 2215TIP3    H230841   6.686   4.703  20.667 -0.3227 -1.0027  1.1349
 2216TIP3   OH230842   5.346   6.259  20.356  0.2213 -0.3508  0.1750
 2216TIP3    H130843   5.425   6.275  20.304  0.4330 -0.4338  0.4694
 2216TIP3    H230844   5.284   6.325  20.326  0.9502  0.7970  1.1084
 2217TIP3   OH230845   0.472   6.147  18.637  0.1968  0.4451 -0.2871
 2217TIP3    H130846   0.416   6.128  18.713  0.4755 -0.2658 -0.2458
 2217TIP3    H230847   0.547   6.193  18.674  0.2014  0.3406 -0.1632
 2218TIP3   OH230848   1.433   1.681  18.133  0.8731 -0.0429  0.2855
 2218TIP3    H130849   1.401   1.648  18.049  1.4692  0.9667 -0.3600
 2218TIP3    H230850   1.438   1.604  18.189 -1.2758 -0.4649 -0.0267
 2219TIP3   OH230851   4.333   0.629  19.066  0.2275  0.0065  0.2764
 2219TIP3    H130852   4.257   0.627  19.124 -1.4450  1.4732 -1.7123
 2219TIP3    H230853   4.372   0.715  19.082  0.5273 -0.1057  0.1520
 2220TIP3   OH230854   3.962   2.487  20.791 -0.1155  0.2864  0.1333
 2220TIP3    H130855   3.915   2.462  20.871  0.4229 -2.1745 -0.2286
 2220TIP3    H230856   3.907   2.454  20.720  1.6353 -1.8731 -0.3129
 2221TIP3   OH230857   1.444   0.441  18.998  0.2498 -0.0448 -0.0668
 2221TIP3    H130858   1.525   0.489  18.983  0.7658 -1.0601 -0.7007
 2221TIP3    H230859   1.393   0.456  18.918 -0.0309  0.3014  0.1786
 2222TIP3   OH230860   4.648   6.043  18.116 -0.2805 -0.4170 -0.2131
 2222TIP3    H130861   4.719   6.031  18.052 -1.3019  1.2165 -1.7513
 2222TIP3    H230862   4.607   6.126  18.090 -1.8167 -0.5760  1.5494
 2223TIP3   OH230863   3.873   1.082  18.463  0.5996  0.9024  0.4592
 2223TIP3    H130864   3.840   1.169  18.441  0.1917  0.9716  1.2748
 2223TIP3    H230865   3.839   1.025  18.395  1.7897  1.5329 -0.7273
 2224TIP3   OH230866   3.921   5.340  20.342 -0.2291 -0.0032 -0.3267
 2224TIP3    H130867   3.999   5.294  20.372 -0.6225 -0.4963 -0.0314
 2224TIP3    H230868   3.894   5.392  20.417  0.3275  0.8772 -0.7261
 2225TIP3   OH230869   5.364   0.973  20.419 -0.2581 -0.4671  0.0501
 2225TIP3    H130870   5.362   0.882  20.446  1.9547 -0.7233 -0.4032
 2225TIP3    H230871   5.412   1.018  20.489 -0.2503  0.0976 -0.3123
 2226TIP3   OH230872   3.422   5.344  19.772  0.2611  0.0518  0.0840
 2226TIP3    H130873   3.490   5.403  19.739  1.0922 -1.5418 -1.1827
 2226TIP3    H230874   3.440   5.260  19.730 -1.8230 -0.7250  0.6079
 2227TIP3   OH230875   5.154   6.203  20.685  0.0406 -0.1593 -0.1312
 2227TIP3    H130876   5.064   6.235  20.688 -0.0446 -0.4604  0.9424
 2227TIP3    H230877   5.151   6.129  20.624 -0.1006  0.7865 -1.3113
 2228TIP3   OH230878   4.619   2.256  18.238 -0.0841  0.0770 -0.1337
 2228TIP3    H130879   4.685   2.261  18.308 -0.6998 -0.0366  0.4652
 2228TIP3    H230880   4.640   2.176  18.191 -0.5434 -0.6279  0.8328
 2229TIP3   OH230881   5.986   1.577  19.631 -0.1948 -0.3019 -0.0003
 2229TIP3    H130882   5.971   1.668  19.657  1.4297  0.1759 -0.5762
 2229TIP3    H230883   5.996   1.530  19.714 -0.5812  0.1259  0.2959
 2230TIP3   OH230884   1.503   5.026  19.383 -0.1053 -0.4520 -0.5727
 2230TIP3    H130885   1.429   5.086  19.376  0.1655 -0.2633 -2.0091
 2230TIP3    H230886   1.580   5.082  19.381  0.1267 -0.5351  2.1294
 2231TIP3   OH230887   5.046   4.724  18.635 -0.1175  0.1844 -0.1758
 2231TIP3    H130888   4.955   4.742  18.655 -0.6088 -0.3662 -1.8049
 2231TIP3    H230889   5.047   4.634  18.603  0.8230  0.5185 -1.1612
 2232TIP3   OH230890   1.074   3.227  19.735 -0.1886  0.3353  0.1492
 2232TIP3    H130891   1.070   3.132  19.723  1.5959  0.4481 -1.9115
 2232TIP3    H230892   1.139   3.239  19.804 -0.0208  0.0583  0.0432
 2233TIP3   OH230893   1.683   0.969  19.264  0.7239 -0.2214 -0.4166
 2233TIP3    H130894   1.634   0.939  19.341 -1.8428 -0.3593 -1.9981
 2233TIP3    H230895   1.766   0.921  19.268 -0.0534 -1.5138  1.3365
 2234TIP3   OH230896   4.502   1.224  19.797  0.5545  0.0954 -0.0644
 2234TIP3    H130897   4.519   1.256  19.885  0.1916 -1.0845  0.4570
 2234TIP3    H230898   4.588   1.207  19.760  0.9049  3.7051 -1.1938
 2235TIP3   OH230899   6.111   6.113  17.935 -0.2428  0.3628  0.0544
 2235TIP3    H130900   6.090   6.086  17.845 -2.3745  1.4423  0.1782
 2235TIP3    H230901   6.171   6.046  17.966 -0.1586 -0.5342 -1.8754
 2236TIP3   OH230902   0.001   0.662  18.537  0.1641 -0.1069  0.2414
 2236TIP3    H130903  -0.078   0.714  18.527  0.0095 -0.2839  0.5301
 2236TIP3    H230904  -0.017   0.581  18.490 -0.0377 -0.3708  0.7617
 2237TIP3   OH230905   4.417   1.107  17.882 -1.0674  0.4877  0.3756
 2237TIP3    H130906   4.483   1.170  17.911 -1.4094  0.3280  1.5417
 2237TIP3    H230907   4.337   1.160  17.873 -0.8268  0.6730 -0.9927
 2238TIP3   OH230908   0.578   0.481  19.402 -0.2783  0.3306 -0.4499
 2238TIP3    H130909   0.666   0.445  19.390  0.0440  0.7323  0.5777
 2238TIP3    H230910   0.564   0.478  19.496 -1.2519  0.5648 -0.5786
 2239TIP3   OH230911   2.818   4.274  18.068 -0.1540 -0.0577  0.1759
 2239TIP3    H130912   2.810   4.181  18.091 -1.6779  0.1962  0.7537
 2239TIP3    H230913   2.774   4.281  17.983 -1.1368  0.3434  0.7084
 2240TIP3   OH230914   6.181   3.391  18.376 -0.3758  0.7507 -0.3719
 2240TIP3    H130915   6.156   3.382  18.284 -0.0360 -0.3241 -0.3693
 2240TIP3    H230916   6.132   3.321  18.421 -1.3825  1.9238  0.4484
 2241TIP3   OH230917   4.746   5.167  19.139 -0.1099 -0.7189 -0.4356
 2241TIP3    H130918   4.835   5.137  19.122  1.0863  1.4185  1.4737
 2241TIP3    H230919   4.720   5.124  19.220 -0.1079  0.0350 -0.0305
 2242TIP3   OH230920   1.804   5.377  18.929 -0.0431 -0.0245 -0.5914
 2242TIP3    H130921   1.751   5.374  18.849  0.2032 -0.1018 -0.7505
 2242TIP3    H230922   1.793   5.291  18.969  2.2194 -1.0931 -2.0869
 2243TIP3   OH230923   3.815   6.132  17.977 -0.5480  0.6990  0.3094
 2243TIP3    H130924   3.754   6.188  18.025  1.6425  1.1385  2.7705
 2243TIP3    H230925   3.858   6.191  17.915  0.5243  1.4281  1.7043
 2244TIP3   OH230926   1.364   1.781  17.790  0.1697  0.3624  0.3217
 2244TIP3    H130927   1.353   1.848  17.722 -0.8375 -0.2205 -0.1024
 2244TIP3    H230928   1.276   1.749  17.806  0.8178 -2.4397 -1.0931
 2245TIP3   OH230929   0.912   3.321  18.725  0.0763  0.3797 -0.0044
 2245TIP3    H130930   0.993   3.352  18.683  1.2019 -0.2680  1.5646
 2245TIP3    H230931   0.932   3.325  18.819 -1.0427 -1.6134  0.3585
 2246TIP3   OH230932   5.057   1.488  19.215  0.0455  0.1738  0.5407
 2246TIP3    H130933   5.004   1.500  19.294 -2.0387  0.9300 -0.8612
 2246TIP3    H230934   5.054   1.393  19.199 -1.5806  0.2573  0.1107
 2247TIP3   OH230935   0.754   4.627  19.296 -0.1496  0.0868  0.1173
 2247TIP3    H130936   0.832   4.586  19.260  1.0519  1.4744  0.9796
 2247TIP3    H230937   0.742   4.585  19.382 -0.6382 -0.4384 -0.2011
 2248TIP3   OH230938   1.690   2.890  20.123  0.5366 -0.0912  0.2744
 2248TIP3    H130939   1.700   2.964  20.184 -2.0065  0.6248 -0.0436
 2248TIP3    H230940   1.673   2.815  20.180  2.8358 -0.4456  0.5873
 2249TIP3   OH230941   1.486   2.504  19.584 -0.2770 -0.8387 -0.0879
 2249TIP3    H130942   1.542   2.436  19.622 -0.3176 -0.6672  0.2821
 2249TIP3    H230943   1.403   2.495  19.629 -0.1694 -0.3099  0.2214
 2250TIP3   OH230944   1.482   0.109  20.209 -0.0326  0.0950 -0.1758
 2250TIP3    H130945   1.549   0.075  20.269  0.8248 -0.6002 -1.4655
 2250TIP3    H230946   1.471   0.039  20.144  0.0485  1.3449 -1.5814
 2251TIP3   OH230947   6.412   2.978  19.142 -0.8997 -0.1838 -0.0432
 2251TIP3    H130948   6.321   3.000  19.162 -1.1705  0.0436 -1.4310
 2251TIP3    H230949   6.407   2.894  19.096 -0.3001 -0.7188  0.8453
 2252TIP3   OH230950   2.664   6.719  19.695  0.0986 -0.9006 -0.0697
 2252TIP3    H130951   2.694   6.729  19.605  0.1722 -1.5618 -0.1231
 2252TIP3    H230952   2.680   6.805  19.736  0.1168 -0.6184 -0.6640
 2253TIP3   OH230953   3.362   6.191  19.440 -0.5038  0.3331  0.2007
 2253TIP3    H130954   3.435   6.234  19.395  0.7691  0.9782  2.6505
 2253TIP3    H230955   3.374   6.098  19.421  2.1850  0.2010  1.9678
 2254TIP3   OH230956   0.553   5.404  20.218 -0.1826  0.2141 -0.1383
 2254TIP3    H130957   0.485   5.467  20.240 -0.4701  0.0208 -0.4814
 2254TIP3    H230958   0.548   5.339  20.289  1.3190  1.5030  1.2439
 2255TIP3   OH230959   2.592   5.639  17.448 -0.3963  0.4471  0.0770
 2255TIP3    H130960   2.637   5.669  17.527 -0.8753  3.4491 -0.6646
 2255TIP3    H230961   2.618   5.547  17.438  0.6320  0.3331  3.0135
 2256TIP3   OH230962   3.028   5.654  18.501  0.2503 -0.0615  0.4129
 2256TIP3    H130963   3.065   5.580  18.453  1.0862  0.8345 -0.3827
 2256TIP3    H230964   2.942   5.624  18.529  1.1835 -1.8908  1.5084
 2257TIP3   OH230965   0.987   3.583  18.862  0.2143 -0.2168 -0.1929
 2257TIP3    H130966   0.962   3.654  18.921 -1.3862  0.3844 -1.5012
 2257TIP3    H230967   1.082   3.580  18.866  0.1659 -0.2690  2.4413
 2258TIP3   OH230968   3.453   3.244  19.036  0.1365 -0.2135  0.5667
 2258TIP3    H130969   3.495   3.322  19.072 -1.0539  0.5303  0.3877
 2258TIP3    H230970   3.505   3.171  19.070  1.1790  0.6390  0.8626
 2259TIP3   OH230971   4.410   1.230  17.185  0.3770  0.2699 -0.0552
 2259TIP3    H130972   4.384   1.309  17.137  1.2787 -0.0978 -1.2144
 2259TIP3    H230973   4.409   1.161  17.118  3.1143  0.0160  0.0330
 2260TIP3   OH230974   4.207   5.261  17.845  0.3425 -0.2830 -0.3560
 2260TIP3    H130975   4.152   5.216  17.909 -1.1027  0.7336 -0.8463
 2260TIP3    H230976   4.261   5.192  17.807 -2.1611 -1.7529 -1.4792
 2261TIP3   OH230977   2.846   0.333  18.007  0.5694  0.0838 -0.2552
 2261TIP3    H130978   2.900   0.268  17.963  0.3268  0.2544 -0.8229
 2261TIP3    H230979   2.883   0.341  18.094  0.8867 -0.4733 -0.3344
 2262TIP3   OH230980   0.145   0.702  19.506  0.1228  0.2446 -0.2820
 2262TIP3    H130981   0.224   0.709  19.453 -1.3495  1.1511 -2.4852
 2262TIP3    H230982   0.074   0.691  19.443 -1.6177  0.1818  1.5737
 2263TIP3   OH230983   3.220   2.214  20.071 -0.1142 -0.0640 -0.3453
 2263TIP3    H130984   3.288   2.228  20.136 -0.7000  1.4791 -0.0118
 2263TIP3    H230985   3.217   2.119  20.059  1.1067 -0.2578  0.6714
 2264TIP3   OH230986   1.944   4.658  19.274 -0.5819 -0.7481  0.0327
 2264TIP3    H130987   2.012   4.596  19.300  0.6644 -0.9254 -3.2076
 2264TIP3    H230988   1.878   4.652  19.343  1.8086 -1.9024  2.4085
 2265TIP3   OH230989   5.258   0.711  19.127  0.3379 -0.1745 -0.3159
 2265TIP3    H130990   5.323   0.660  19.078 -0.3014 -2.1657  0.7907
 2265TIP3    H230991   5.178   0.660  19.122 -0.2309  0.4830  1.2396
 2266TIP3   OH230992   5.206   6.631  19.025  0.3757 -0.5610 -0.3773
 2266TIP3    H130993   5.186   6.716  18.986 -0.1421 -0.6091 -0.2140
 2266TIP3    H230994   5.127   6.579  19.013  0.4795 -0.8254  0.0590
 2267TIP3   OH230995   5.068   4.924  20.354  0.3004  0.1005 -0.0654
 2267TIP3    H130996   5.029   4.848  20.399  1.0027 -0.7180 -0.8099
 2267TIP3    H230997   5.160   4.901  20.344  0.2341  0.4260 -1.5899
 2268TIP3   OH230998   2.312   3.285  18.342 -0.1391  0.1104  0.0355
 2268TIP3    H130999   2.277   3.347  18.278  1.5465 -1.4337 -2.5510
 2268TIP3    H231000   2.407   3.300  18.342  0.3168 -2.2944 -0.5964
 2269TIP3   OH231001   2.054   5.825  18.766 -0.0352 -0.2382  0.1739
 2269TIP3    H131002   2.096   5.798  18.848 -0.1260  0.1062  0.3376
 2269TIP3    H231003   2.112   5.893  18.731 -0.6251  0.4879  0.5792
 2270TIP3   OH231004   0.482   0.117  19.823  0.3578  0.0113  0.0739
 2270TIP3    H131005   0.421   0.076  19.885  0.6045 -0.0127  0.3009
 2270TIP3    H231006   0.460   0.077  19.738 -2.8552  3.0235 -0.7544
 2271TIP3   OH231007   2.016   2.786  20.121 -0.4211  0.7480 -0.5291
 2271TIP3    H131008   1.946   2.805  20.183 -0.2683 -0.7311  0.1478
 2271TIP3    H231009   1.973   2.733  20.053 -0.4417  1.7926 -1.3560
 2272TIP3   OH231010   3.742   5.642  18.211 -0.3092 -0.1286  0.0269
 2272TIP3    H131011   3.763   5.553  18.183 -1.0812 -0.6934  1.1888
 2272TIP3    H231012   3.694   5.680  18.138 -1.1281 -1.1147  0.0416
 2273TIP3   OH231013   2.937   4.302  18.326  0.3853  0.1872  0.1331
 2273TIP3    H131014   2.947   4.213  18.360 -1.8025 -0.0486  0.3212
 2273TIP3    H231015   2.883   4.292  18.248  0.0879  1.3551  0.1709
 2274TIP3   OH231016   2.370   0.430  18.657 -0.3721 -0.0209  0.7169
 2274TIP3    H131017   2.282   0.459  18.631  0.1610  1.1444  0.1236
 2274TIP3    H231018   2.426   0.507  18.641  0.7488 -0.7305  1.1201
 2275TIP3   OH231019   0.463   1.656  19.598  0.0399  0.1191  0.2205
 2275TIP3    H131020   0.434   1.739  19.635 -1.6465 -0.5398  0.4535
 2275TIP3    H231021   0.554   1.672  19.572 -0.3074  2.0859  0.0714
 2276TIP3   OH231022   3.949   2.175  17.167  0.0813 -0.0596  0.2683
 2276TIP3    H131023   3.892   2.167  17.243 -2.4140 -2.3429 -1.6564
 2276TIP3    H231024   3.932   2.263  17.134 -1.2346 -0.1596  0.6107
 2277TIP3   OH231025   0.872   5.101  19.435 -0.0791  0.6624 -0.4486
 2277TIP3    H131026   0.836   5.044  19.367  0.0148  0.2056 -0.1203
 2277TIP3    H231027   0.904   5.178  19.388  1.3157 -0.2824 -1.0871
 2278TIP3   OH231028   2.549   4.565  18.680  0.1824 -0.5864  0.3571
 2278TIP3    H131029   2.501   4.495  18.636  1.4291 -0.2152 -1.7258
 2278TIP3    H231030   2.630   4.575  18.630 -0.0641  2.5384  0.3397
 2279TIP3   OH231031   2.015   4.331  18.397 -0.2724  0.0911 -0.3051
 2279TIP3    H131032   1.922   4.313  18.380 -0.6569  0.4209  1.2992
 2279TIP3    H231033   2.021   4.427  18.398  0.6902  0.1615 -3.2697
 2280TIP3   OH231034   0.253   4.926  18.638  0.0509 -0.0911 -0.4249
 2280TIP3    H131035   0.273   5.019  18.629 -1.6781  0.4825  1.0450
 2280TIP3    H231036   0.310   4.895  18.708 -0.2879  0.1948 -0.0190
 2281TIP3   OH231037   2.501   0.273  19.670 -0.0657 -0.4967  0.0765
 2281TIP3    H131038   2.420   0.223  19.663 -0.8395  0.6620  0.6216
 2281TIP3    H231039   2.534   0.252  19.758  0.6095 -1.5006 -0.3927
 2282TIP3   OH231040   4.129   4.448  20.830  0.1342 -0.4888  0.5425
 2282TIP3    H131041   4.165   4.362  20.808  1.4603  0.1910 -0.0249
 2282TIP3    H231042   4.038   4.444  20.800  0.1553 -1.7083  0.5881
 2283TIP3   OH231043   0.548   3.784  20.262  0.2062  0.5611 -0.2164
 2283TIP3    H131044   0.639   3.758  20.278 -0.0441  0.1815  0.6746
 2283TIP3    H231045   0.518   3.820  20.346 -0.6602  0.0668 -0.2910
 2284TIP3   OH231046   3.253   4.846  19.001 -0.2997 -0.0590  0.0001
 2284TIP3    H131047   3.217   4.912  19.061 -4.1678  0.5856 -2.6749
 2284TIP3    H231048   3.219   4.763  19.034 -0.7000  0.0520 -0.1272
 2285TIP3   OH231049   2.498   2.285  20.010 -0.2597  0.0948  0.3938
 2285TIP3    H131050   2.539   2.218  20.065 -0.3154  0.1903  0.5506
 2285TIP3    H231051   2.471   2.353  20.071 -1.6158 -0.4503  0.4384
 2286TIP3   OH231052   2.923   1.677  20.074  0.0294  0.4219 -0.1443
 2286TIP3    H131053   2.953   1.592  20.043  1.2473  1.6383 -2.6363
 2286TIP3    H231054   2.838   1.690  20.032  0.6105  1.0995 -1.1454
 2287TIP3   OH231055   5.119   0.310  18.389  0.0580  0.3648  0.1208
 2287TIP3    H131056   5.077   0.313  18.475 -0.8123  0.1872 -0.2881
 2287TIP3    H231057   5.085   0.387  18.343  0.8618  0.7079  0.0780
 2288TIP3   OH231058   0.861   1.136  19.224 -0.2252 -0.1558 -0.1057
 2288TIP3    H131059   0.833   1.216  19.180 -0.4775  0.2765  0.8084
 2288TIP3    H231060   0.785   1.078  19.218 -0.0710 -0.2921 -0.7014
 2289TIP3   OH231061   3.358   5.228  20.249 -0.8423 -0.0167 -0.2493
 2289TIP3    H131062   3.331   5.271  20.168 -1.7080  1.2201  0.6554
 2289TIP3    H231063   3.284   5.173  20.274 -0.5095 -0.5295 -0.3845
 2290TIP3   OH231064   6.314   3.735  19.262 -0.2517  0.0315 -0.1870
 2290TIP3    H131065   6.254   3.771  19.328 -0.4309 -0.5888 -0.0081
 2290TIP3    H231066   6.401   3.748  19.299 -0.3897 -1.0460  0.5485
 2291TIP3   OH231067   1.547   0.735  18.966  0.4675  0.5757 -0.3126
 2291TIP3    H131068   1.492   0.723  19.044 -0.9960 -1.0305 -1.5228
 2291TIP3    H231069   1.487   0.765  18.898  1.6304  1.4550 -0.9916
 2292TIP3   OH231070   2.368   5.834  17.533  0.1890  0.3610 -0.5403
 2292TIP3    H131071   2.418   5.795  17.605 -0.0773  2.8802  1.1575
 2292TIP3    H231072   2.406   5.797  17.454  1.0686 -1.9161  0.8553
 2293TIP3   OH231073   3.479   3.568  18.560  0.4535 -0.2995  0.5925
 2293TIP3    H131074   3.484   3.536  18.650  2.2188 -1.7488  0.0358
 2293TIP3    H231075   3.452   3.492  18.509  0.7177  0.1692 -0.2601
 2294TIP3   OH231076   0.078   3.959  18.145  0.8088 -0.1882 -0.3298
 2294TIP3    H131077   0.140   3.995  18.209 -1.5604  1.5272  1.1744
 2294TIP3    H231078  -0.007   3.962  18.189 -0.5880 -1.2589 -2.7275
 2295TIP3   OH231079   4.679   3.263  18.820  0.2026 -0.4089 -0.1179
 2295TIP3    H131080   4.624   3.248  18.897 -0.4542  0.4867 -0.3956
 2295TIP3    H231081   4.768   3.240  18.848 -0.2285 -1.4265  0.4760
 2296TIP3   OH231082   0.270   4.389  20.138 -0.4446 -0.2180  0.0873
 2296TIP3    H131083   0.208   4.323  20.169  0.7637 -2.3379 -1.7546
 2296TIP3    H231084   0.243   4.406  20.048  0.5504  0.2185 -0.1326
 2297TIP3   OH231085   1.150   2.732  20.864  0.1877 -0.5591  0.2035
 2297TIP3    H131086   1.189   2.655  20.905  0.2369 -0.2616  0.7343
 2297TIP3    H231087   1.224   2.779  20.826  0.1982 -0.6169  0.1530
 2298TIP3   OH231088   2.479   3.942  19.842 -0.8080 -0.4315  0.4113
 2298TIP3    H131089   2.473   3.878  19.913  1.0838 -0.0016  1.0353
 2298TIP3    H231090   2.390   3.952  19.810 -1.4325 -1.9568  1.5554
 2299TIP3   OH231091   3.187   0.492  20.300 -0.3070  0.1671 -0.2702
 2299TIP3    H131092   3.126   0.425  20.331  0.2979 -0.6871 -0.8986
 2299TIP3    H231093   3.251   0.444  20.248 -0.4395  1.3609 -1.5868
 2300TIP3   OH231094   5.483   4.198  20.125  0.1654 -0.1873  0.2646
 2300TIP3    H131095   5.447   4.116  20.094  0.1112 -0.4262  0.9388
 2300TIP3    H231096   5.409   4.258  20.128  0.3621  0.1452 -1.0471
 2301TIP3   OH231097   3.835   2.611  18.690 -0.5403  0.7599 -0.0763
 2301TIP3    H131098   3.769   2.653  18.745  0.5802  0.5752  1.4571
 2301TIP3    H231099   3.918   2.634  18.730  0.2433 -0.7067 -0.7785
 2302TIP3   OH231100   1.724   5.792  19.337 -0.0477  0.0604 -0.1384
 2302TIP3    H131101   1.721   5.886  19.319 -1.9397  0.2109  0.6947
 2302TIP3    H231102   1.787   5.757  19.273 -1.0653  1.5657 -2.0859
 2303TIP3   OH231103   1.982   3.077  18.985  0.0445  0.1216 -0.3722
 2303TIP3    H131104   1.908   3.062  19.043  0.7522 -0.4798  0.3938
 2303TIP3    H231105   2.059   3.073  19.042  0.8507 -1.5996 -1.4733
 2304TIP3   OH231106   3.894   5.341  20.984 -0.2995  0.4399 -0.3005
 2304TIP3    H131107   3.822   5.401  20.965 -0.3016  0.9105  1.1174
 2304TIP3    H231108   3.852   5.259  21.010 -0.3008 -0.3729 -2.6182
 2305TIP3   OH231109   5.819   1.787  19.792  0.0040  0.2968 -0.1978
 2305TIP3    H131110   5.797   1.864  19.740  1.4394 -0.4199 -1.9728
 2305TIP3    H231111   5.888   1.817  19.851  0.3666  0.4626 -0.6943
 2306TIP3   OH231112   5.069   4.541  20.032  0.2767  0.0285  0.0430
 2306TIP3    H131113   4.984   4.504  20.057  0.4732 -0.4534  0.0127
 2306TIP3    H231114   5.058   4.635  20.044 -0.2554 -0.0299  0.0625
 2307TIP3   OH231115   2.059   4.218  19.950  0.8164 -0.2116 -0.4356
 2307TIP3    H131116   1.968   4.204  19.975  1.0233  1.5453  1.5033
 2307TIP3    H231117   2.105   4.140  19.983  0.2063 -0.5463 -0.3680
 2308TIP3   OH231118   5.661   0.240  19.497  0.6580  0.8894  0.1627
 2308TIP3    H131119   5.685   0.323  19.454  1.9313  0.3815 -0.1579
 2308TIP3    H231120   5.663   0.261  19.590 -1.5723  1.8554  0.0590
 2309TIP3   OH231121   1.304   5.809  17.238  0.5282 -0.2709 -0.5588
 2309TIP3    H131122   1.259   5.730  17.209 -1.1760  0.0454  1.0495
 2309TIP3    H231123   1.247   5.881  17.211  1.9223  0.4555 -1.7543
 2310TIP3   OH231124   4.914   0.047  19.587  0.5481 -0.0185 -0.0043
 2310TIP3    H131125   4.840  -0.003  19.555  0.6838  1.2123 -2.4528
 2310TIP3    H231126   4.986  -0.017  19.593  0.2750 -0.4786 -1.3758
 2311TIP3   OH231127   6.157   2.226  19.801 -0.2681  0.8886  0.3924
 2311TIP3    H131128   6.213   2.262  19.870 -2.2603  1.5015  1.8018
 2311TIP3    H231129   6.113   2.302  19.763  0.4436  0.5090 -1.2941
 2312TIP3   OH231130   2.047   0.301  20.738 -0.5669  0.9494 -0.1004
 2312TIP3    H131131   2.103   0.260  20.804  1.1706 -0.8122 -2.4968
 2312TIP3    H231132   2.081   0.390  20.729  1.2494  0.2427 -0.7342
 2313TIP3   OH231133   3.081   6.275  19.999  0.2425  0.0261  0.3602
 2313TIP3    H131134   3.066   6.219  19.923 -0.0253 -0.2490  0.6086
 2313TIP3    H231135   3.121   6.216  20.064 -0.7196 -0.0709  0.8873
 2314TIP3   OH231136   0.901   1.147  18.529 -0.0986 -0.7753  0.8799
 2314TIP3    H131137   0.851   1.072  18.497 -0.7541  0.1626 -0.3595
 2314TIP3    H231138   0.837   1.201  18.574  0.0055 -0.0604  0.1707
 2315TIP3   OH231139   3.769   4.708  16.901 -0.6492 -0.5164 -0.5620
 2315TIP3    H131140   3.707   4.779  16.916  0.7171  1.1074 -2.1617
 2315TIP3    H231141   3.829   4.713  16.976 -0.3824  0.2550 -0.8139
 2316TIP3   OH231142   6.590   2.889  18.827 -0.6642  0.1843  0.2950
 2316TIP3    H131143   6.643   2.944  18.768  0.1480  1.0448  1.7768
 2316TIP3    H231144   6.508   2.938  18.837 -0.2074  0.8142  1.0683
 2317TIP3   OH231145   4.076   5.156  18.073  0.0840  0.1289  0.4934
 2317TIP3    H131146   3.986   5.136  18.101  0.1537  1.2946  1.6469
 2317TIP3    H231147   4.128   5.149  18.153  0.6229  1.7263  0.3201
 2318TIP3   OH231148   0.798   3.123  17.874 -0.3055  0.3114  0.2171
 2318TIP3    H131149   0.801   3.218  17.858 -1.6395  0.5390  1.1522
 2318TIP3    H231150   0.858   3.086  17.809  0.5457  1.8225  0.0825
 2319TIP3   OH231151   2.789   3.877  19.577 -0.0765  0.3082  0.0489
 2319TIP3    H131152   2.838   3.943  19.528  0.5904  0.4853  0.9224
 2319TIP3    H231153   2.714   3.924  19.613 -1.7601 -0.2486 -2.4270
 2320TIP3   OH231154   5.640   3.699  20.673  0.7717  0.1028 -0.3360
 2320TIP3    H131155   5.650   3.794  20.669  0.5341  0.1495  0.0594
 2320TIP3    H231156   5.729   3.665  20.669  1.0631  0.4547  1.8247
 2321TIP3   OH231157   2.038   3.531  17.875  0.4402  0.6700  0.6760
 2321TIP3    H131158   2.082   3.451  17.845  1.4091  1.5636 -0.3400
 2321TIP3    H231159   2.046   3.592  17.802 -1.2009  1.3762  1.0435
 2322TIP3   OH231160   5.423   1.248  20.513 -0.5738 -0.0905  0.0924
 2322TIP3    H131161   5.345   1.260  20.568  0.8204  0.6149  2.0227
 2322TIP3    H231162   5.417   1.319  20.449 -0.6641  1.0906  1.3423
 2323TIP3   OH231163   5.311   1.658  19.035 -0.4194 -0.3012 -0.7954
 2323TIP3    H131164   5.343   1.683  18.948  1.0870 -0.1260 -0.2052
 2323TIP3    H231165   5.343   1.569  19.048 -1.1065 -0.5285 -0.6326
 2324TIP3   OH231166   4.384   6.715  17.673  0.0265 -0.6396 -0.4991
 2324TIP3    H131167   4.386   6.688  17.581 -0.7556  3.0135 -1.7404
 2324TIP3    H231168   4.461   6.770  17.683 -0.9119  0.5436  0.4556
 2325TIP3   OH231169   4.556   3.247  19.951  0.0775 -0.4809  0.1844
 2325TIP3    H131170   4.634   3.195  19.969  1.2675  1.2311  0.1822
 2325TIP3    H231171   4.571   3.283  19.863 -0.0788  0.9222  0.7131
 2326TIP3   OH231172   5.773   6.438  20.224  0.3891 -0.2891  0.1611
 2326TIP3    H131173   5.688   6.423  20.183  0.5501  0.1047 -0.3236
 2326TIP3    H231174   5.752   6.467  20.313  0.0069  0.0800 -0.0454
 2327TIP3   OH231175   6.271   3.575  19.568 -0.1986 -0.0237 -0.1179
 2327TIP3    H131176   6.258   3.548  19.478 -1.4123  0.3485 -0.0802
 2327TIP3    H231177   6.233   3.505  19.621 -1.7308  0.8586  0.0186
 2328TIP3   OH231178   2.673   2.326  19.572 -0.2996  0.4318 -0.7211
 2328TIP3    H131179   2.635   2.376  19.499  0.1168  1.9594  0.0733
 2328TIP3    H231180   2.742   2.273  19.532 -0.0551  1.2772 -1.4417
 2329TIP3   OH231181   3.731   1.243  21.057  0.0848  0.1690  0.3288
 2329TIP3    H131182   3.638   1.253  21.076  0.0247 -0.7174  0.5221
 2329TIP3    H231183   3.775   1.291  21.128 -0.1937 -1.3540  1.5904
 2330TIP3   OH231184   1.858   5.759  17.919  0.4128 -0.2525 -0.0239
 2330TIP3    H131185   1.840   5.847  17.953 -2.9252 -0.7969 -0.1511
 2330TIP3    H231186   1.906   5.774  17.838  0.8165  1.3643  0.4773
 2331TIP3   OH231187   4.309   1.768  19.426 -0.0214 -0.3039 -0.1931
 2331TIP3    H131188   4.360   1.766  19.346  0.2256  1.9948 -0.1628
 2331TIP3    H231189   4.331   1.852  19.467 -0.3336 -1.2887  2.1641
 2332TIP3   OH231190   5.617   2.804  20.784 -0.1091 -0.0961 -0.3056
 2332TIP3    H131191   5.628   2.867  20.713 -1.3099 -1.0042 -1.3386
 2332TIP3    H231192   5.695   2.816  20.838  0.8922  0.5661 -1.8149
 2333TIP3   OH231193   0.285   4.973  19.332 -0.3967 -0.0624  0.2193
 2333TIP3    H131194   0.250   5.013  19.412 -1.4447 -0.2612 -0.1249
 2333TIP3    H231195   0.319   5.047  19.282 -0.1941  0.1237  0.6285
 2334TIP3   OH231196   1.943   5.117  17.631 -0.3534  0.3257  0.4719
 2334TIP3    H131197   1.960   5.143  17.540  0.6295 -1.9010 -0.0299
 2334TIP3    H231198   1.860   5.070  17.627  0.2353 -0.7327  0.5210
 2335TIP3   OH231199   5.412   0.487  19.565  0.2588  0.3124 -0.1618
 2335TIP3    H131200   5.475   0.417  19.585  1.2168  1.3190  0.4382
 2335TIP3    H231201   5.388   0.471  19.474  1.2559 -0.1985 -0.3539
 2336TIP3   OH231202   5.470   6.316  20.607  0.2600  0.4830  0.2487
 2336TIP3    H131203   5.425   6.274  20.533 -0.2898  1.6005 -0.0674
 2336TIP3    H231204   5.404   6.317  20.677  0.1756  1.0436  0.1679
 2337TIP3   OH231205   4.457   3.641  19.552 -0.0376  0.3521  0.4380
 2337TIP3    H131206   4.423   3.719  19.596  1.8237  0.6510  1.4173
 2337TIP3    H231207   4.443   3.658  19.458  0.0342  1.7030  0.6585
 2338TIP3   OH231208   5.012   5.437  19.640 -0.0419 -0.2929 -0.3073
 2338TIP3    H131209   4.954   5.464  19.570 -1.2172  1.2671  1.1945
 2338TIP3    H231210   5.100   5.441  19.601 -0.5215  1.8817 -1.3358
 2339TIP3   OH231211   3.181   0.567  19.348  0.5169 -0.1269 -0.4067
 2339TIP3    H131212   3.250   0.560  19.414 -0.0514  2.1191  0.5089
 2339TIP3    H231213   3.226   0.596  19.269  0.7404  0.5966 -0.0207
 2340TIP3   OH231214   0.172   1.020  20.292  0.3215  0.0957  0.3048
 2340TIP3    H131215   0.108   0.952  20.271 -0.4370  1.2646 -1.5190
 2340TIP3    H231216   0.194   1.006  20.384 -0.5863 -1.9305  0.2660
 2341TIP3   OH231217   3.087   3.033  19.284 -0.0519 -0.0664 -0.3509
 2341TIP3    H131218   3.174   2.996  19.268  0.0361  0.0575 -0.1548
 2341TIP3    H231219   3.097   3.127  19.271  0.0178  0.0388  0.4006
 2342TIP3   OH231220   1.965   6.090  20.740  0.2254  0.5991 -0.5476
 2342TIP3    H131221   1.980   5.997  20.758  1.5248  0.8504 -0.2585
 2342TIP3    H231222   2.032   6.113  20.676 -2.6310  0.3754 -3.9519
 2343TIP3   OH231223   3.159   5.836  17.012 -0.1140 -0.1547  1.4198
 2343TIP3    H131224   3.067   5.861  17.016  0.4558  2.5054 -0.1591
 2343TIP3    H231225   3.160   5.756  16.959 -1.4107  0.6072  0.1783
 2344TIP3   OH231226   5.664   0.175  18.224  0.1826 -0.0360 -0.3362
 2344TIP3    H131227   5.737   0.229  18.192 -1.1048  1.8640 -0.2319
 2344TIP3    H231228   5.706   0.099  18.263  2.1239  1.0431 -0.1974
 2345TIP3   OH231229   3.211   5.506  18.068  0.2661  0.4437 -0.2217
 2345TIP3    H131230   3.117   5.520  18.073  0.3269  1.3642 -1.2520
 2345TIP3    H231231   3.226   5.475  17.978  1.0195  1.0081 -0.2999
 2346TIP3   OH231232   0.021   3.001  18.629 -0.2923  0.1008 -0.1619
 2346TIP3    H131233   0.104   2.959  18.653 -1.2343 -1.3853  0.5962
 2346TIP3    H231234  -0.001   2.963  18.544 -0.4491  0.1250 -0.1330
 2347TIP3   OH231235   1.093   4.852  17.332  0.1646  0.7269  0.1146
 2347TIP3    H131236   1.064   4.762  17.349 -1.5935  0.8310 -2.0082
 2347TIP3    H231237   1.181   4.842  17.294  0.0412 -0.0850  0.0307
 2348TIP3   OH231238   5.814   5.987  19.890 -0.3656 -0.4336  0.0157
 2348TIP3    H131239   5.728   6.025  19.869  0.0008  0.2685 -0.2216
 2348TIP3    H231240   5.820   5.908  19.835 -1.9772 -2.0123  1.9290
 2349TIP3   OH231241   3.765   4.778  20.595  0.2724 -0.1392 -0.1102
 2349TIP3    H131242   3.710   4.727  20.535  0.2122 -0.3863  0.1539
 2349TIP3    H231243   3.705   4.843  20.632 -0.8398 -2.6374  2.9491
 2350TIP3   OH231244   1.484   5.273  18.506  0.2402 -0.0068  0.3019
 2350TIP3    H131245   1.538   5.246  18.432  1.3264 -2.2042  1.7699
 2350TIP3    H231246   1.408   5.215  18.503 -0.7856  1.3206 -0.2565
 2351TIP3   OH231247   2.526   2.015  19.634  0.2481 -0.1456  0.3225
 2351TIP3    H131248   2.544   2.097  19.680  3.2413 -0.4434 -0.1390
 2351TIP3    H231249   2.547   2.033  19.543  0.6587 -1.3468  0.1605
 2352TIP3   OH231250   2.572   0.026  18.542 -0.3947 -0.3462 -0.4703
 2352TIP3    H131251   2.571  -0.060  18.585  1.0227 -0.2558 -0.1949
 2352TIP3    H231252   2.535   0.086  18.607 -0.0835 -0.5318 -0.1184
 2353TIP3   OH231253   1.904   4.984  20.022  0.0596  0.9017 -0.0536
 2353TIP3    H131254   1.912   5.042  20.098 -1.0350  0.4613  0.4294
 2353TIP3    H231255   1.809   4.972  20.012  0.2351  0.0938 -0.8356
 2354TIP3   OH231256   2.585   4.378  18.245  0.2032  0.4294  0.1641
 2354TIP3    H131257   2.637   4.385  18.165 -0.2327 -0.9706 -0.2740
 2354TIP3    H231258   2.629   4.436  18.308  0.8993  1.0835 -0.9030
 2355TIP3   OH231259   2.003   5.847  18.185 -0.2507 -0.2448  0.1129
 2355TIP3    H131260   1.914   5.812  18.178 -0.3660  0.1106 -0.2610
 2355TIP3    H231261   2.010   5.878  18.276 -0.6662  0.1407  0.0147
 2356TIP3   OH231262   6.050   5.156  20.395  0.2743  0.0638  0.0852
 2356TIP3    H131263   6.093   5.071  20.380  0.3806  0.3967 -1.7817
 2356TIP3    H231264   6.121   5.215  20.419  0.5764  0.1219 -0.8891
 2357TIP3   OH231265   3.810   6.572  17.393  0.0829 -0.3718  0.4119
 2357TIP3    H131266   3.724   6.586  17.354  0.0780 -1.2365  0.0937
 2357TIP3    H231267   3.871   6.618  17.335 -0.0595 -0.5772  0.0983
 2358TIP3   OH231268   2.618   6.631  20.357  0.3313 -0.2111  0.5074
 2358TIP3    H131269   2.637   6.545  20.395 -2.2818 -1.6522 -1.1619
 2358TIP3    H231270   2.527   6.647  20.380  0.3012  1.3726 -0.5963
 2359TIP3   OH231271   4.747   1.286  18.408 -0.2829 -0.6464  0.1099
 2359TIP3    H131272   4.841   1.269  18.417 -0.1704  0.7464  2.5263
 2359TIP3    H231273   4.710   1.204  18.377  1.4635 -2.0030  1.4184
 2360TIP3   OH231274   0.873   6.198  19.209 -0.1773 -0.0190 -0.6156
 2360TIP3    H131275   0.820   6.118  19.202 -0.2872 -0.0037  0.0264
 2360TIP3    H231276   0.924   6.187  19.289 -0.3275  0.6317 -0.4201
 2361TIP3   OH231277   5.121   4.278  18.050 -0.8205 -0.2152  0.1046
 2361TIP3    H131278   5.149   4.205  17.995 -0.3296  0.4234 -0.5131
 2361TIP3    H231279   5.181   4.277  18.125 -0.9292 -0.5460  0.1901
 2362TIP3   OH231280   2.761   6.586  18.950  0.0802  0.0782  0.2938
 2362TIP3    H131281   2.742   6.597  18.857  1.4563  0.7526  0.0690
 2362TIP3    H231282   2.804   6.667  18.976  1.0986 -0.6915  1.1329
 2363TIP3   OH231283   5.230   5.410  17.992  0.0656 -0.0474 -0.4901
 2363TIP3    H131284   5.240   5.473  17.920  0.6073  0.7758  0.2951
 2363TIP3    H231285   5.307   5.422  18.046 -0.4897 -0.4390  0.4108
 2364TIP3   OH231286   4.196   5.615  17.383  0.3763  0.0655 -0.0010
 2364TIP3    H131287   4.188   5.608  17.288 -0.2694  0.7109 -0.0047
 2364TIP3    H231288   4.221   5.527  17.412 -0.6177 -0.4386 -0.6422
 2365TIP3   OH231289   0.077   2.407  19.474  0.4822  0.2193  0.2430
 2365TIP3    H131290   0.033   2.477  19.523 -0.4213 -1.7032  2.3879
 2365TIP3    H231291   0.033   2.406  19.389  1.3812  3.0075 -0.3615
 2366TIP3   OH231292   0.221   4.521  20.530  0.5336  0.5046  0.7779
 2366TIP3    H131293   0.177   4.438  20.510  0.5187  0.8135 -0.5990
 2366TIP3    H231294   0.304   4.516  20.482 -0.3037  2.0399 -0.9858
 2367TIP3   OH231295   1.237   4.219  19.948 -0.2331 -0.6066 -0.4818
 2367TIP3    H131296   1.222   4.184  20.035  0.5882  0.3123  0.0425
 2367TIP3    H231297   1.252   4.312  19.961  0.9427 -0.6302 -1.4928
 2368TIP3   OH231298   1.980   6.265  20.137  0.2710 -0.8054 -0.1824
 2368TIP3    H131299   1.976   6.176  20.172 -0.5647 -0.5864  0.3261
 2368TIP3    H231300   1.902   6.272  20.082 -1.4752  0.5830  2.2667
 2369TIP3   OH231301   0.469   6.393  19.812 -0.4566  0.0612  0.2305
 2369TIP3    H131302   0.523   6.470  19.795 -0.3762 -0.1548 -0.5080
 2369TIP3    H231303   0.479   6.377  19.906  2.3449 -1.1337 -0.1584
 2370TIP3   OH231304   0.370   5.238  19.930 -0.4004  0.5254  0.1841
 2370TIP3    H131305   0.387   5.323  19.969 -3.1325  1.0880  0.3197
 2370TIP3    H231306   0.416   5.240  19.846  0.7048  1.5602  0.7806
 2371TIP3   OH231307   4.695   4.501  17.921  0.3071  0.0342 -0.1101
 2371TIP3    H131308   4.768   4.472  17.976  1.4356  0.7849 -1.1549
 2371TIP3    H231309   4.690   4.595  17.935  0.2177  0.1439 -0.8246
 2372TIP3   OH231310   4.774   3.409  19.809 -0.3481  0.2331  0.0558
 2372TIP3    H131311   4.821   3.336  19.848 -2.2145 -0.8674  0.3511
 2372TIP3    H231312   4.778   3.392  19.715 -0.1012  0.1805  0.0749
 2373TIP3   OH231313   0.303   0.991  18.879  0.0357  0.0224  0.4284
 2373TIP3    H131314   0.251   0.986  18.960 -0.2443  1.0539  0.3221
 2373TIP3    H231315   0.289   0.906  18.837  1.2277 -1.0603  2.0682
 2374TIP3   OH231316   4.199   1.484  18.175 -0.5674  0.0721 -0.3516
 2374TIP3    H131317   4.142   1.534  18.233 -1.1046 -0.0465 -0.7735
 2374TIP3    H231318   4.146   1.409  18.148 -0.1221 -0.1808 -0.5405
 2375TIP3   OH231319   0.646   1.987  19.805  0.5873  0.0890 -0.1128
 2375TIP3    H131320   0.739   2.000  19.789  0.9769 -1.4797  0.6770
 2375TIP3    H231321   0.628   2.036  19.886  0.2533  1.9896 -1.2842
 2376TIP3   OH231322   5.262   4.920  17.913 -0.2610  1.0917  0.1117
 2376TIP3    H131323   5.271   5.015  17.923 -1.2589  1.2595 -0.4440
 2376TIP3    H231324   5.277   4.905  17.820  3.4875  0.2241  0.6872
 2377TIP3   OH231325   3.914   0.501  20.318  0.1469 -0.1202  0.3330
 2377TIP3    H131326   3.933   0.586  20.356  0.2765 -0.3246  0.7347
 2377TIP3    H231327   3.999   0.471  20.283  0.3657 -0.5872  1.2222
 2378TIP3   OH231328   6.137   1.868  17.788  0.0300  0.1863  0.4907
 2378TIP3    H131329   6.129   1.799  17.722 -2.1423  0.5011  0.3373
 2378TIP3    H231330   6.213   1.919  17.761  0.8833 -1.3606 -0.1433
 2379TIP3   OH231331   5.555   2.796  19.271 -0.1016 -0.6537 -0.0550
 2379TIP3    H131332   5.499   2.815  19.346 -0.4831 -3.5736  0.5165
 2379TIP3    H231333   5.577   2.703  19.279  2.8443 -0.2453 -1.6173
 2380TIP3   OH231334   4.564   6.542  16.432  0.4524 -0.1350 -0.5051
 2380TIP3    H131335   4.634   6.515  16.492 -1.9311  0.8743  3.1262
 2380TIP3    H231336   4.576   6.637  16.422  0.1584 -0.1080 -0.6174
 2381TIP3   OH231337   2.690   6.022  17.379  0.3546  0.0526 -0.0706
 2381TIP3    H131338   2.742   6.059  17.308  0.2843 -1.2484 -0.8403
 2381TIP3    H231339   2.642   5.949  17.338 -0.8442  0.2189  0.9764
 2382TIP3   OH231340   4.777   0.396  18.010  0.1812 -0.6413 -0.4550
 2382TIP3    H131341   4.801   0.481  18.048 -0.8492  0.0293 -1.2684
 2382TIP3    H231342   4.845   0.379  17.944 -0.0385 -0.0584 -0.8403
 2383TIP3   OH231343   6.145   0.846  18.869 -0.1555 -0.4935  0.0540
 2383TIP3    H131344   6.226   0.836  18.917 -0.7807  0.3205  1.3188
 2383TIP3    H231345   6.080   0.797  18.920 -0.4694 -1.2071 -0.9837
 2384TIP3   OH231346   2.912   5.242  18.180  0.1077 -0.4050  0.2076
 2384TIP3    H131347   2.856   5.180  18.134 -0.8595  0.6346 -0.0805
 2384TIP3    H231348   2.952   5.295  18.111  0.2527 -0.1595  0.4772
 2385TIP3   OH231349   2.337   2.199  20.700  0.1276 -0.3563  0.1621
 2385TIP3    H131350   2.246   2.208  20.728  0.4042  0.0461  0.9703
 2385TIP3    H231351   2.387   2.248  20.766  0.7547  1.3576 -1.4998
 2386TIP3   OH231352   4.337   5.825  17.455 -0.1702 -0.6624 -0.3739
 2386TIP3    H131353   4.291   5.746  17.428 -3.0820  0.3078  1.2886
 2386TIP3    H231354   4.316   5.889  17.387 -2.7755  0.1967  1.0857
 2387TIP3   OH231355   6.507   0.234  18.479  0.8475  0.1476  0.1467
 2387TIP3    H131356   6.597   0.228  18.449  0.5511  2.4558 -1.4821
 2387TIP3    H231357   6.470   0.309  18.431 -1.7922 -0.4037  1.1145
 2388TIP3   OH231358   3.360   5.911  20.292 -0.1197  0.1589 -0.4934
 2388TIP3    H131359   3.342   5.820  20.268  2.2258 -1.1241  1.9777
 2388TIP3    H231360   3.445   5.930  20.252 -1.0003  1.6557 -1.7478
 2389TIP3   OH231361   4.959   4.793  19.962 -0.0859  0.3469  0.2053
 2389TIP3    H131362   4.869   4.825  19.967 -0.1997 -0.0401  0.7193
 2389TIP3    H231363   5.013   4.868  19.986 -0.3713  0.0668  1.8581
 2390TIP3   OH231364   5.574   6.471  19.570  0.0907 -0.3569  0.5132
 2390TIP3    H131365   5.530   6.543  19.526  0.0390 -0.2235  0.7790
 2390TIP3    H231366   5.648   6.511  19.614  1.4635 -0.8252 -1.2698
 2391TIP3   OH231367   2.875   0.840  16.858  0.4035 -0.7855  0.5810
 2391TIP3    H131368   2.884   0.755  16.814  0.3433  0.4958 -2.1588
 2391TIP3    H231369   2.787   0.838  16.895 -0.9049 -0.8146 -2.2660
 2392TIP3   OH231370   1.400   1.490  18.368 -0.5556 -0.1014  0.3451
 2392TIP3    H131371   1.399   1.498  18.464 -2.2195  0.0309  0.3439
 2392TIP3    H231372   1.311   1.465  18.345 -0.6697  1.5939 -1.3136
 2393TIP3   OH231373   0.842   0.336  19.373  0.1004  0.1214 -0.6065
 2393TIP3    H131374   0.930   0.365  19.396  0.7360 -0.7930 -1.7789
 2393TIP3    H231375   0.826   0.261  19.431 -0.3798  0.9574  0.3817
 2394TIP3   OH231376   6.005   0.247  17.614 -0.1200  0.3335  0.3831
 2394TIP3    H131377   5.911   0.235  17.606  0.1012 -1.1670 -0.3023
 2394TIP3    H231378   6.034   0.276  17.527  0.1139  0.2890  0.4437
 2395TIP3   OH231379   5.629   0.959  19.549 -0.1577 -0.6571  0.0096
 2395TIP3    H131380   5.594   0.922  19.468 -0.0305  0.2148 -0.4588
 2395TIP3    H231381   5.720   0.980  19.528 -0.7250  1.6844 -0.3802
 2396TIP3   OH231382   4.658   3.936  19.692 -0.2436  0.4157 -0.2471
 2396TIP3    H131383   4.572   3.973  19.713  0.0130 -0.0443  1.9469
 2396TIP3    H231384   4.692   3.907  19.777  2.4525  1.3575 -0.8955
 2397TIP3   OH231385   5.863   6.005  17.088 -0.5754  0.0325  0.1034
 2397TIP3    H131386   5.833   5.946  17.019 -3.0714  0.1551  0.9817
 2397TIP3    H231387   5.934   6.055  17.048 -2.1444  0.3598 -2.5077
 2398TIP3   OH231388   4.161   4.534  17.524 -0.2128 -0.8319  0.4193
 2398TIP3    H131389   4.088   4.596  17.519  0.4194  0.1534  2.4238
 2398TIP3    H231390   4.122   4.453  17.556 -0.7218 -0.8895 -0.3319
 2399TIP3   OH231391   5.755   1.348  17.871 -0.1569 -0.4292  0.2095
 2399TIP3    H131392   5.726   1.292  17.799 -2.7268 -0.6693  1.3365
 2399TIP3    H231393   5.674   1.378  17.913  1.1564  2.5060  0.9160
 2400TIP3   OH231394   2.275   2.180  17.981 -0.3424  0.6846 -0.0457
 2400TIP3    H131395   2.272   2.119  18.054  1.7398 -0.7446 -1.0304
 2400TIP3    H231396   2.188   2.177  17.942 -0.9630  0.1752  1.3399
 2401TIP3   OH231397   3.149   0.752  16.780  0.1877 -0.0362  0.0075
 2401TIP3    H131398   3.054   0.761  16.791  0.4805  0.5729  2.6269
 2401TIP3    H231399   3.163   0.657  16.772 -0.6739 -0.0763 -1.4159
 2402TIP3   OH231400   6.253   5.415  19.539  0.2932 -0.4825 -0.5300
 2402TIP3    H131401   6.202   5.434  19.618 -0.8565 -0.1457 -1.3386
 2402TIP3    H231402   6.334   5.376  19.573  0.1951  0.4297  0.8572
 2403TIP3   OH231403   5.281   4.056  19.880 -0.0396 -0.3619  0.7468
 2403TIP3    H131404   5.208   4.105  19.915 -1.2079 -0.8300 -0.9179
 2403TIP3    H231405   5.307   3.997  19.951 -0.8681  0.2367  1.5600
 2404TIP3   OH231406   0.996   2.644  19.404  0.0286  0.5395  0.0058
 2404TIP3    H131407   0.906   2.621  19.430  0.9600 -0.2581  3.0210
 2404TIP3    H231408   1.006   2.735  19.432  0.7516 -0.0365  1.7853
 2405TIP3   OH231409   2.879   0.580  17.142  0.1726 -0.1323  0.1193
 2405TIP3    H131410   2.788   0.572  17.113  0.2326  0.4713 -0.2435
 2405TIP3    H231411   2.884   0.666  17.183  0.4842 -0.3257  0.4965
 2406TIP3   OH231412   2.128   2.524  18.285  0.2917  0.2226  0.0424
 2406TIP3    H131413   2.117   2.506  18.191 -1.0497  0.2750  0.1615
 2406TIP3    H231414   2.179   2.605  18.288  0.8321 -0.0794 -0.6229
 2407TIP3   OH231415   1.093   3.796  19.419  0.0313  0.6339 -0.0375
 2407TIP3    H131416   1.045   3.729  19.467  0.3951  0.7317  0.4616
 2407TIP3    H231417   1.159   3.828  19.480 -0.7618  2.1517  0.0883
 2408TIP3   OH231418   5.465   2.646  17.045 -0.6398  0.1729 -0.0927
 2408TIP3    H131419   5.404   2.620  16.976 -1.0116 -3.4407  1.3756
 2408TIP3    H231420   5.409   2.665  17.120 -0.0851  0.5556  0.2294
 2409TIP3   OH231421   0.574   1.738  19.876  0.0190  0.4214  0.0223
 2409TIP3    H131422   0.581   1.671  19.807 -3.1438  1.3491 -1.3959
 2409TIP3    H231423   0.578   1.821  19.829 -1.6690  1.0807  0.9835
 2410TIP3   OH231424   2.424   5.586  19.875  0.0638 -0.4737 -0.4683
 2410TIP3    H131425   2.375   5.637  19.939 -0.0591 -1.9591  0.6763
 2410TIP3    H231426   2.502   5.557  19.921  1.2946  0.5488 -1.8024
 2411TIP3   OH231427   1.715   1.587  20.276 -0.0296  0.6799 -0.1742
 2411TIP3    H131428   1.755   1.506  20.245 -1.7140 -0.6502  0.9578
 2411TIP3    H231429   1.783   1.627  20.332 -0.0689 -1.3607  1.4614
 2412TIP3   OH231430   0.471   3.717  19.079  0.5017  0.5942 -0.0816
 2412TIP3    H131431   0.457   3.812  19.080  1.5155  0.7929 -1.4100
 2412TIP3    H231432   0.566   3.707  19.067  0.4768 -0.5952  0.5556
 2413TIP3   OH231433   0.652   1.261  19.593 -0.0185 -0.5106  0.3565
 2413TIP3    H131434   0.614   1.224  19.514  0.4545  1.5659 -0.9202
 2413TIP3    H231435   0.746   1.250  19.582  0.0993  0.5544  0.1882
 2414TIP3   OH231436   3.226   2.068  19.353 -0.4838 -0.6277 -0.1871
 2414TIP3    H131437   3.217   2.142  19.413 -0.9114 -0.7342 -0.1141
 2414TIP3    H231438   3.259   1.997  19.407 -1.1903 -0.8207  0.0052
 2415TIP3   OH231439   5.248   4.029  17.909 -0.3568 -0.2834  0.1569
 2415TIP3    H131440   5.245   3.938  17.880  1.9745 -1.0087  1.9476
 2415TIP3    H231441   5.310   4.071  17.850 -1.4419  0.1959 -0.6780
 2416TIP3   OH231442   2.675   0.150  19.909  0.0671  0.1123 -0.3095
 2416TIP3    H131443   2.600   0.173  19.964  0.3777  2.1206 -0.6536
 2416TIP3    H231444   2.724   0.086  19.961 -0.1257  1.2750  1.3716
 2417TIP3   OH231445   4.355   6.241  20.340  0.0735  0.4613 -0.0558
 2417TIP3    H131446   4.401   6.243  20.424  1.0576 -3.4523 -0.3147
 2417TIP3    H231447   4.265   6.263  20.362  0.2723 -0.6311  2.0986
 2418TIP3   OH231448   5.470   2.859  19.522 -0.0198 -0.2584 -0.1969
 2418TIP3    H131449   5.551   2.819  19.553 -0.0984 -0.3821 -0.1523
 2418TIP3    H231450   5.467   2.945  19.565  0.3679 -0.0236 -0.6354
 2419TIP3   OH231451   5.893   4.208  18.289  0.2858  0.3023  0.6064
 2419TIP3    H131452   5.820   4.153  18.258  0.3474  0.2474  0.5606
 2419TIP3    H231453   5.875   4.219  18.383 -0.7266  1.7271  0.2820
 2420TIP3   OH231454   4.781   2.306  20.141  0.0553 -0.1615  0.0702
 2420TIP3    H131455   4.749   2.383  20.094 -1.0281 -0.6368  0.0087
 2420TIP3    H231456   4.831   2.257  20.075 -1.2787 -0.7150 -0.5680
 2421TIP3   OH231457   1.362   6.176  19.253 -0.4895 -0.7731  0.1105
 2421TIP3    H131458   1.304   6.202  19.181  0.0074  0.0247 -0.0175
 2421TIP3    H231459   1.436   6.236  19.246 -1.0440  0.2178  2.0765
 2422TIP3   OH231460   2.679   5.366  17.745  0.2403  0.2333  0.1048
 2422TIP3    H131461   2.768   5.351  17.776  0.2989  1.3412  0.5414
 2422TIP3    H231462   2.685   5.361  17.650  1.0677  1.7064  0.0561
 2423TIP3   OH231463   5.663   3.970  20.619 -0.3368 -0.0739 -0.5656
 2423TIP3    H131464   5.746   4.011  20.594  0.1247 -2.1761 -2.9321
 2423TIP3    H231465   5.630   4.024  20.690  0.6214  3.7675 -2.7380
 2424TIP3   OH231466   5.460   2.968  19.937 -0.4040  0.5026  0.2016
 2424TIP3    H131467   5.467   3.040  20.000 -0.1794 -0.7876  1.7015
 2424TIP3    H231468   5.366   2.960  19.921 -0.5452  0.1553  1.1933
 2425TIP3   OH231469   3.366   6.098  18.507  0.1302 -1.1674 -0.2184
 2425TIP3    H131470   3.304   6.045  18.458  0.9125 -0.2458 -2.2998
 2425TIP3    H231471   3.421   6.139  18.441  1.7221 -0.4163  1.4646
 2426TIP3   OH231472   0.449   3.474  20.385  0.0031 -0.2356 -0.9091
 2426TIP3    H131473   0.421   3.549  20.332  0.9618  0.8807  0.0854
 2426TIP3    H231474   0.542   3.463  20.363  0.3381  0.0607  0.2662
 2427TIP3   OH231475   0.733   4.937  19.277 -0.1979 -0.2817  0.0657
 2427TIP3    H131476   0.683   4.960  19.199  0.0383 -0.6076 -0.1838
 2427TIP3    H231477   0.739   4.841  19.274  0.2796 -0.2563  0.1973
 2428TIP3   OH231478   1.253   6.078  18.312 -0.7625  0.0224  0.3467
 2428TIP3    H131479   1.324   6.072  18.248 -0.5956  1.0629  0.4192
 2428TIP3    H231480   1.178   6.037  18.269 -0.1209 -1.1731  0.2956
 2429TIP3   OH231481   5.203   6.008  17.225 -0.3757  0.2371  0.9055
 2429TIP3    H131482   5.256   6.050  17.158 -1.1246 -0.9899 -0.5226
 2429TIP3    H231483   5.261   5.943  17.265 -0.6019 -0.7558 -0.3082
 2430TIP3   OH231484   2.726   1.791  17.840 -0.2154 -0.4535 -0.4192
 2430TIP3    H131485   2.771   1.873  17.860 -0.6566 -0.4876  0.7767
 2430TIP3    H231486   2.680   1.809  17.758 -2.4337  1.4143  1.1173
 2431TIP3   OH231487   2.633   5.687  19.707 -0.0066 -0.7391  0.6612
 2431TIP3    H131488   2.561   5.731  19.752 -0.2259  2.1305 -2.1292
 2431TIP3    H231489   2.591   5.616  19.658 -0.9538  0.6316 -0.5933
 2432TIP3   OH231490   2.854   5.641  17.986 -0.4597  0.5702  0.7008
 2432TIP3    H131491   2.798   5.709  18.025  1.3909  1.3312  2.2032
 2432TIP3    H231492   2.918   5.689  17.934  0.7033 -0.0093  1.5549
 2433TIP3   OH231493   0.671   2.645  19.203  0.3834  0.3791  0.2337
 2433TIP3    H131494   0.748   2.622  19.151 -0.4137 -0.6512 -0.5327
 2433TIP3    H231495   0.644   2.731  19.169 -0.9501 -0.8661 -2.1416
 2434TIP3   OH231496   1.884   4.097  19.547  0.5675  0.3948  0.9530
 2434TIP3    H131497   1.859   4.033  19.613  0.0997  2.1405  2.5562
 2434TIP3    H231498   1.951   4.151  19.589  1.1239  0.8211 -0.4262
 2435TIP3   OH231499   0.244   6.488  19.089 -0.3485 -1.1208 -0.7414
 2435TIP3    H131500   0.198   6.563  19.125 -0.4678 -1.2048 -0.7189
 2435TIP3    H231501   0.261   6.512  18.998  1.4817 -0.1840 -0.2052
 2436TIP3   OH231502   6.113   4.445  20.669  0.2081  0.1330 -0.2476
 2436TIP3    H131503   6.026   4.484  20.670 -0.3149 -0.9648 -0.8039
 2436TIP3    H231504   6.114   4.387  20.745  1.0340  1.3087  0.6645
 2437TIP3   OH231505   4.032   1.995  17.454 -0.0359 -0.5141 -0.0086
 2437TIP3    H131506   4.064   2.084  17.467 -3.0903  0.5401  1.3990
 2437TIP3    H231507   4.033   1.983  17.359  1.1177  0.7176 -0.1876
 2438TIP3   OH231508   5.209   1.091  17.513 -0.2792  0.2436 -0.0990
 2438TIP3    H131509   5.169   1.146  17.445  0.8286  0.8790 -0.2632
 2438TIP3    H231510   5.268   1.150  17.560  0.2930 -0.6134  0.2768
 2439TIP3   OH231511   5.639   1.086  19.236  0.0922 -0.5814  0.1816
 2439TIP3    H131512   5.693   1.154  19.197  2.1333 -1.3430  1.4716
 2439TIP3    H231513   5.659   1.007  19.185 -0.2077 -0.7576  0.3359
 2440TIP3   OH231514   3.098   5.568  20.838 -0.2328 -0.0358  0.3678
 2440TIP3    H131515   3.166   5.607  20.892  0.2328 -2.3188  1.5564
 2440TIP3    H231516   3.016   5.608  20.870  0.3367  1.2790  0.2551
 2441TIP3   OH231517   0.006   0.817  20.051 -0.2058 -0.0951 -0.3657
 2441TIP3    H131518   0.012   0.785  20.141  0.5268  0.7148 -0.1202
 2441TIP3    H231519  -0.028   0.906  20.059  0.1230  0.0792 -0.8747
 2442TIP3   OH231520   3.209   2.314  19.492 -1.3577 -0.3940  0.1112
 2442TIP3    H131521   3.287   2.309  19.547  0.3548 -1.7123 -2.2369
 2442TIP3    H231522   3.162   2.390  19.524  0.6258  0.1457  1.9849
 2443TIP3   OH231523   0.247   5.861  18.999 -0.2018 -0.0958  0.2047
 2443TIP3    H131524   0.202   5.904  19.071  0.1218  0.8102 -0.1234
 2443TIP3    H231525   0.179   5.808  18.957 -0.9484  1.1155 -0.1712
 2444TIP3   OH231526   2.811   0.776  18.429 -0.1973 -0.1327  0.4253
 2444TIP3    H131527   2.742   0.713  18.447 -0.3904  0.1466  0.6603
 2444TIP3    H231528   2.803   0.793  18.335 -1.0838  0.6359  0.6227
 2445TIP3   OH231529   3.159   1.815  20.078 -0.7322 -0.4720  0.0940
 2445TIP3    H131530   3.064   1.803  20.088 -0.7311  0.6192  2.0544
 2445TIP3    H231531   3.190   1.733  20.040 -2.4795 -0.7804 -0.7590
 2446TIP3   OH231532   0.615   4.471  18.590 -0.5315 -0.0654 -0.2723
 2446TIP3    H131533   0.640   4.499  18.679  0.4591 -1.5197 -0.0619
 2446TIP3    H231534   0.662   4.389  18.577  0.0495  0.5521 -2.4855
 2447TIP3   OH231535   0.458   0.757  18.756 -0.6996 -0.5327  0.1824
 2447TIP3    H131536   0.453   0.798  18.670 -1.0755  0.1772  0.5328
 2447TIP3    H231537   0.418   0.671  18.744  0.6031 -1.0398 -0.6939
 2448TIP3   OH231538   3.207   3.125  19.666 -0.2606  0.4693  0.2542
 2448TIP3    H131539   3.154   3.045  19.656 -1.1789  0.7844  2.1420
 2448TIP3    H231540   3.274   3.117  19.599  0.3640 -2.4532  1.0701
 2449TIP3   OH231541   3.038   5.457  19.776  0.4201 -0.3735  0.0556
 2449TIP3    H131542   2.973   5.515  19.816 -0.4353 -1.7566  0.7485
 2449TIP3    H231543   3.043   5.382  19.835  2.9499 -0.1526  0.2084
 2450TIP3   OH231544   4.582   2.500  19.671  0.3896  0.2270 -0.3637
 2450TIP3    H131545   4.614   2.590  19.666  0.2349  0.2536 -0.9258
 2450TIP3    H231546   4.623   2.455  19.598  1.0752 -0.3672  0.3630
 2451TIP3   OH231547   0.520   6.366  18.883 -0.2299 -0.0555 -0.3095
 2451TIP3    H131548   0.555   6.322  18.961  0.6548  0.7212 -0.2494
 2451TIP3    H231549   0.441   6.411  18.914  1.5613  2.5129  0.8558
 2452TIP3   OH231550   1.859   4.035  18.185 -0.9494  0.3117  0.1643
 2452TIP3    H131551   1.937   4.077  18.150 -0.4488  0.4390  1.3932
 2452TIP3    H231552   1.837   4.086  18.263 -0.7322 -1.2636  1.3064
 2453TIP3   OH231553   4.137   2.424  18.977  0.7049 -0.0079 -0.0824
 2453TIP3    H131554   4.175   2.386  19.056  2.1254 -0.8236 -1.0995
 2453TIP3    H231555   4.207   2.480  18.942 -0.6947  2.1733  0.4058
 2454TIP3   OH231556   3.182   4.082  16.962 -0.3124 -0.1998  0.8966
 2454TIP3    H131557   3.203   4.165  16.919  2.1624 -1.6301 -1.0052
 2454TIP3    H231558   3.141   4.030  16.893 -0.4757 -1.0483  1.6159
 2455TIP3   OH231559   6.398   5.694  19.101 -0.0326 -0.0874 -0.3067
 2455TIP3    H131560   6.366   5.755  19.034 -0.6251  1.9297  1.6897
 2455TIP3    H231561   6.482   5.730  19.128 -0.8533  0.5222  1.6204
 2456TIP3   OH231562   1.814   2.504  19.235  0.3474 -0.1583  0.0241
 2456TIP3    H131563   1.767   2.430  19.274 -0.1734  0.9800  1.7024
 2456TIP3    H231564   1.906   2.476  19.233  0.4550 -0.2179  2.4296
 2457TIP3   OH231565   5.290   0.156  20.482 -0.2440 -0.0639 -0.0261
 2457TIP3    H131566   5.220   0.198  20.532 -0.1298 -1.2391  1.1898
 2457TIP3    H231567   5.245   0.105  20.415 -0.6594 -1.4055  1.2042
 2458TIP3   OH231568   4.380   6.394  16.575  0.3151 -0.1034  0.8618
 2458TIP3    H131569   4.446   6.419  16.511  0.2399 -1.6725  0.1164
 2458TIP3    H231570   4.425   6.334  16.635 -0.6193 -2.0948 -0.3120
 2459TIP3   OH231571   3.822   0.078  19.595 -0.4782 -0.6838 -0.0969
 2459TIP3    H131572   3.829   0.045  19.505  2.1047  2.4469 -1.2608
 2459TIP3    H231573   3.911   0.077  19.628 -0.6957  1.9306  0.8534
 2460TIP3   OH231574   2.099   4.482  18.639 -0.5411 -0.0016 -0.2772
 2460TIP3    H131575   2.120   4.412  18.700  1.0738  0.3584 -0.3661
 2460TIP3    H231576   2.004   4.478  18.628 -0.5626 -1.6566  0.3245
 2461TIP3   OH231577   0.295   6.610  18.838  0.1876  0.5361 -0.4883
 2461TIP3    H131578   0.267   6.701  18.824 -1.8403  0.3320  1.5902
 2461TIP3    H231579   0.243   6.559  18.776 -0.6379  0.6043  0.1234
 2462TIP3   OH231580   0.846   3.010  18.363  0.8780  0.2310  0.1042
 2462TIP3    H131581   0.768   3.008  18.417  0.9459  2.2627  0.3626
 2462TIP3    H231582   0.828   3.077  18.297  1.9557 -0.0935 -0.5480
 2463TIP3   OH231583   6.160   0.941  18.598  0.1606  0.3594 -0.3310
 2463TIP3    H131584   6.250   0.972  18.607  0.1597 -0.0356  1.5583
 2463TIP3    H231585   6.134   0.918  18.687 -1.1522 -1.4165 -1.1222
 2464TIP3   OH231586   0.080   2.609  19.162 -0.6920 -0.2216 -0.4398
 2464TIP3    H131587   0.107   2.601  19.254 -1.4778 -1.6157 -0.2840
 2464TIP3    H231588   0.000   2.661  19.165  0.4038  1.5232 -0.5914
 2465TIP3   OH231589   3.877   2.748  20.277 -0.7821  0.0328 -1.0971
 2465TIP3    H131590   3.797   2.698  20.263 -2.6650  2.6301 -0.1766
 2465TIP3    H231591   3.924   2.698  20.344 -1.5845 -1.5099 -1.6227
 2466TIP3   OH231592   1.661   4.499  19.163  0.3078 -0.0929  0.0692
 2466TIP3    H131593   1.730   4.432  19.163  0.0046 -0.4596  2.0238
 2466TIP3    H231594   1.580   4.449  19.155  0.2012  0.3502 -2.4220
 2467TIP3   OH231595   0.834   6.440  19.835 -0.2444 -0.1519  0.5161
 2467TIP3    H131596   0.837   6.352  19.874 -3.2740  0.3927  2.2513
 2467TIP3    H231597   0.883   6.495  19.896 -1.1335 -0.1088  1.2187
 2468TIP3   OH231598   5.311   2.359  18.700  0.3061  0.1370  0.4122
 2468TIP3    H131599   5.390   2.362  18.647  0.5026  1.2748  0.7479
 2468TIP3    H231600   5.322   2.430  18.764 -0.8939  0.1832  0.5896
 2469TIP3   OH231601   6.035   3.212  18.534  0.4600  0.2245  0.1125
 2469TIP3    H131602   5.962   3.256  18.490  0.8841  1.3804  0.5309
 2469TIP3    H231603   6.051   3.134  18.481 -0.9733  0.0274 -0.0712
 2470TIP3   OH231604   1.803   0.166  19.995 -0.0082 -0.0635 -0.2195
 2470TIP3    H131605   1.833   0.253  20.021 -2.4877  0.6354  0.5347
 2470TIP3    H231606   1.815   0.164  19.900  3.6187 -0.4107  0.1068
 2471TIP3   OH231607   2.792   4.007  18.153 -0.2586 -0.2008  0.2092
 2471TIP3    H131608   2.703   3.981  18.176  0.0513  0.4869  2.4399
 2471TIP3    H231609   2.847   3.936  18.188  0.1523  0.0393  0.0616
 2472TIP3   OH231610   0.610   0.759  20.278 -0.1750 -0.4236 -0.2106
 2472TIP3    H131611   0.570   0.781  20.362 -0.3968  0.4227 -0.5253
 2472TIP3    H231612   0.610   0.663  20.275 -2.8552 -0.4864 -0.4952
 2473TIP3   OH231613   4.949   0.616  18.791  0.2847  0.1749 -0.1743
 2473TIP3    H131614   5.018   0.615  18.725 -0.4931  0.6138 -1.0134
 2473TIP3    H231615   4.873   0.577  18.748  0.1615 -0.8801  0.9373
 2474TIP3   OH231616   6.367   6.466  19.065  0.3938 -0.0822 -1.1275
 2474TIP3    H131617   6.405   6.497  19.148  0.0072  0.4417 -1.1382
 2474TIP3    H231618   6.274   6.455  19.085  0.0578  1.3011 -1.8325
 2475TIP3   OH231619   2.467   4.368  18.532 -0.0252  0.8997 -0.4723
 2475TIP3    H131620   2.416   4.417  18.468  0.2115  1.7547 -0.0202
 2475TIP3    H231621   2.423   4.283  18.537  0.5081  0.4594 -2.4445
 2476TIP3   OH231622   4.272   1.261  17.605 -0.0493 -0.1600 -0.4116
 2476TIP3    H131623   4.340   1.216  17.555  0.0489 -1.9415  1.2133
 2476TIP3    H231624   4.205   1.284  17.540  1.1032 -0.2991 -1.6986
 2477TIP3   OH231625   6.558   0.300  18.897  0.7827  0.0192 -0.5437
 2477TIP3    H131626   6.587   0.249  18.972  0.0465 -0.3500 -0.5009
 2477TIP3    H231627   6.608   0.266  18.823 -1.6551 -2.8040 -1.0868
 2478TIP3   OH231628   3.525   1.530  18.775  0.0282  0.5559  0.0768
 2478TIP3    H131629   3.528   1.476  18.697 -0.2088  0.5802  0.0476
 2478TIP3    H231630   3.595   1.497  18.831  0.5751  0.9120 -0.3869
 2479TIP3   OH231631   1.526   4.909  20.324  0.1037 -0.0284 -0.1875
 2479TIP3    H131632   1.433   4.893  20.338  0.2742 -0.1428  0.9116
 2479TIP3    H231633   1.532   5.001  20.301 -0.1011  0.5066  1.7751
 2480TIP3   OH231634   2.483   4.935  19.900 -0.3144 -0.2786  0.1737
 2480TIP3    H131635   2.425   5.008  19.921 -2.7266 -1.9306 -0.3484
 2480TIP3    H231636   2.444   4.894  19.823  1.4924 -1.5903 -0.1254
 2481TIP3   OH231637   0.530   2.387  17.842 -0.6069 -0.1334  0.0714
 2481TIP3    H131638   0.562   2.475  17.822  0.4744 -0.3828  0.6356
 2481TIP3    H231639   0.572   2.365  17.925 -1.8956 -0.6748  0.6083
 2482TIP3   OH231640   1.635   0.421  18.085  0.4303  0.3943  0.1281
 2482TIP3    H131641   1.610   0.354  18.148  0.7683 -1.5282 -1.6610
 2482TIP3    H231642   1.578   0.404  18.009  0.6905  2.0079 -0.4705
 2483TIP3   OH231643   3.678   3.789  18.612  1.0515 -0.4516  0.2745
 2483TIP3    H131644   3.622   3.839  18.672 -0.1347  0.4255 -1.4558
 2483TIP3    H231645   3.629   3.708  18.596 -0.5062  0.8387 -2.2114
 2484TIP3   OH231646   3.556   6.611  17.263  0.0729 -0.1265 -0.2956
 2484TIP3    H131647   3.538   6.689  17.209 -1.5507 -0.0296  0.3348
 2484TIP3    H231648   3.520   6.538  17.212  0.4334 -0.3057 -0.2959
 2485TIP3   OH231649   4.724   4.437  19.743  1.0947  0.2581 -0.4543
 2485TIP3    H131650   4.713   4.501  19.813 -0.4958 -0.1106 -0.3373
 2485TIP3    H231651   4.813   4.453  19.710  1.9080  0.4414  1.6293
 2486TIP3   OH231652   4.781   3.186  18.107  0.5168  0.1212  0.2685
 2486TIP3    H131653   4.807   3.094  18.111  0.0545  0.0360  1.4881
 2486TIP3    H231654   4.735   3.193  18.023 -0.3470 -1.0023  0.6185
 2487TIP3   OH231655   3.637   2.044  20.594 -0.3973 -0.1358 -0.0844
 2487TIP3    H131656   3.616   2.122  20.543  2.6728 -0.6815 -2.4660
 2487TIP3    H231657   3.692   2.075  20.666  1.3944 -0.0762 -1.4211
 2488TIP3   OH231658   0.087   3.047  19.018 -0.0317  0.0623 -0.1526
 2488TIP3    H131659   0.003   3.088  19.039  0.5181  0.4381  1.4545
 2488TIP3    H231660   0.139   3.117  18.979 -0.5891 -0.2889 -1.5962
 2489TIP3   OH231661   5.246   0.284  19.765 -0.8203 -0.2943 -0.0306
 2489TIP3    H131662   5.181   0.270  19.695 -0.1086 -1.0707 -0.5574
 2489TIP3    H231663   5.287   0.368  19.743 -1.1416 -0.1560 -0.1078
 2490TIP3   OH231664   3.161   4.527  20.123  0.5296 -0.2869  0.0490
 2490TIP3    H131665   3.229   4.477  20.168  1.4195  1.8294  1.2167
 2490TIP3    H231666   3.200   4.552  20.039  0.4585 -0.6928 -0.1060
 2491TIP3   OH231667   3.881   3.234  19.094  0.3486 -0.0891  0.3340
 2491TIP3    H131668   3.800   3.280  19.116 -0.3934 -1.1593 -0.0496
 2491TIP3    H231669   3.933   3.298  19.046 -0.9097  0.1725 -0.7227
 2492TIP3   OH231670   0.002   6.123  18.438  0.0110 -0.5298 -0.3271
 2492TIP3    H131671  -0.063   6.107  18.369 -1.0065 -0.1428  0.5070
 2492TIP3    H231672  -0.043   6.181  18.499  1.4942  0.5298 -0.2001
 2493TIP3   OH231673   3.953   4.299  20.447 -0.4054  0.0160 -0.2461
 2493TIP3    H131674   3.933   4.356  20.521  0.7367  2.1894 -1.4973
 2493TIP3    H231675   3.898   4.222  20.460 -1.8065  1.2589  1.7016
 2494TIP3   OH231676   5.837   1.402  19.464  0.1979 -0.2758  0.4112
 2494TIP3    H131677   5.905   1.366  19.406 -2.4544  0.9097 -3.9264
 2494TIP3    H231678   5.881   1.472  19.512  2.5083 -1.0051 -0.4658
 2495TIP3   OH231679   4.914   3.884  20.250 -0.2831  0.0686 -0.1049
 2495TIP3    H131680   4.893   3.820  20.182 -0.7370  0.5281 -0.4026
 2495TIP3    H231681   4.852   3.865  20.321 -1.1051  0.8149 -0.6005
 2496TIP3   OH231682   0.866   2.939  17.549  0.1578  0.7987 -0.1551
 2496TIP3    H131683   0.908   3.015  17.590  1.3616  0.5560 -0.8929
 2496TIP3    H231684   0.931   2.870  17.555  0.5470  0.8444 -2.7624
 2497TIP3   OH231685   5.980   0.209  18.773  0.1095  0.1813 -0.2087
 2497TIP3    H131686   6.058   0.164  18.804  0.7370  1.7468  0.5695
 2497TIP3    H231687   5.907   0.156  18.806  0.8081 -0.9974 -0.4944
 2498TIP3   OH231688   6.306   0.649  18.428  0.4594  0.4220 -0.2121
 2498TIP3    H131689   6.336   0.628  18.517  0.4596  0.7867 -0.1263
 2498TIP3    H231690   6.211   0.645  18.434  0.4793 -0.5872 -0.4487
 2499TIP3   OH231691   3.417   5.003  18.387 -0.7247  0.2991 -0.5596
 2499TIP3    H131692   3.464   5.065  18.443  0.2040  1.1889 -2.2476
 2499TIP3    H231693   3.467   4.922  18.393 -0.5613  0.4202 -0.2327
 2500TIP3   OH231694   0.167   6.713  18.314  0.0200 -0.3060 -0.1766
 2500TIP3    H131695   0.261   6.724  18.328 -0.4419  1.1970  2.3992
 2500TIP3    H231696   0.138   6.798  18.280 -0.5528 -0.4052  0.0638
 2501TIP3   OH231697   3.464   4.132  20.214 -0.5547  0.0723  0.4080
 2501TIP3    H131698   3.445   4.224  20.192  0.1738  0.3928  1.0961
 2501TIP3    H231699   3.523   4.103  20.145 -0.3553  0.2835  0.4892
 2502TIP3   OH231700   4.056   0.362  18.983  0.4670  0.1266 -0.3724
 2502TIP3    H131701   4.015   0.308  18.915 -2.6238  0.9430  0.6680
 2502TIP3    H231702   4.039   0.314  19.064  2.0931  0.2737  0.0781
 2503TIP3   OH231703   4.150   4.092  20.748 -0.7049  0.1866 -0.0183
 2503TIP3    H131704   4.162   4.029  20.818  0.6544 -3.9975 -3.5836
 2503TIP3    H231705   4.058   4.084  20.723  0.0881 -3.3106 -2.5827
 2504TIP3   OH231706   4.360   4.161  18.396 -0.2019  0.2463  0.2593
 2504TIP3    H131707   4.342   4.175  18.303  0.3903  0.6255  0.2032
 2504TIP3    H231708   4.314   4.079  18.416  0.2225 -0.1957 -0.5247
 2505TIP3   OH231709   3.621   2.760  19.206 -0.2464 -0.3626 -0.6099
 2505TIP3    H131710   3.638   2.673  19.168  1.0995 -0.1472 -0.5335
 2505TIP3    H231711   3.606   2.742  19.299  0.2911 -0.4961 -0.5436
 2506TIP3   OH231712   4.474   5.447  20.695 -0.1572 -0.2351 -0.5486
 2506TIP3    H131713   4.446   5.377  20.636 -0.7566 -0.6331  0.1994
 2506TIP3    H231714   4.392   5.488  20.724  0.2016  1.2847 -1.5639
 2507TIP3   OH231715   2.283   4.111  19.501 -0.5273 -0.2257 -0.2904
 2507TIP3    H131716   2.274   4.056  19.423 -0.5283  1.7403 -1.7626
 2507TIP3    H231717   2.375   4.135  19.502 -0.4838 -0.4177  0.4597
 2508TIP3   OH231718   0.110   5.452  18.316 -0.8630  0.2141  0.0765
 2508TIP3    H131719   0.175   5.453  18.245  0.6039  0.6360  1.3860
 2508TIP3    H231720   0.093   5.359  18.331  0.4003  0.0345  0.5443
 2509TIP3   OH231721   0.031   2.857  19.692  0.5927  0.4662 -0.5614
 2509TIP3    H131722   0.025   2.818  19.779  0.1020 -1.2425 -1.3244
 2509TIP3    H231723   0.014   2.950  19.706 -1.4772 -0.0666  0.9211
 2510TIP3   OH231724   6.093   4.604  19.477  0.0454 -0.2452 -0.2118
 2510TIP3    H131725   6.091   4.510  19.463  0.8859 -0.4233  0.7128
 2510TIP3    H231726   6.005   4.626  19.506  0.2720 -1.0487  1.1949
 2511TIP3   OH231727   2.731   1.489  19.587  0.2978  0.0641  0.0651
 2511TIP3    H131728   2.638   1.493  19.608  0.0961  0.9771 -0.9197
 2511TIP3    H231729   2.770   1.562  19.635  0.3693  0.1715 -0.1541
 2512TIP3   OH231730   2.371   6.099  17.637  0.1020 -0.6687  0.2062
 2512TIP3    H131731   2.329   6.149  17.567 -0.1953 -0.5422  0.4705
 2512TIP3    H231732   2.365   6.008  17.607  1.2682 -0.4951 -0.5937
 2513TIP3   OH231733   1.530   2.580  20.075 -0.4751 -0.0553 -0.0296
 2513TIP3    H131734   1.523   2.643  20.147  1.4924 -0.8903  0.9517
 2513TIP3    H231735   1.584   2.510  20.110 -1.3926 -1.6099 -1.5917
 2514TIP3   OH231736   5.037   6.300  18.667  0.2372 -0.9597  0.3111
 2514TIP3    H131737   5.113   6.335  18.622 -0.4275 -1.3798 -1.2064
 2514TIP3    H231738   4.976   6.373  18.673 -0.1761 -1.2144 -0.6430
 2515TIP3   OH231739   0.241   0.617  18.114 -0.4518 -1.3789  0.1992
 2515TIP3    H131740   0.314   0.555  18.121  0.3324 -0.6999 -1.3767
 2515TIP3    H231741   0.229   0.629  18.019 -1.5474 -0.2507  0.4575
 2516TIP3   OH231742   2.212   3.590  19.700 -0.6144  0.1731  0.2059
 2516TIP3    H131743   2.227   3.579  19.794 -0.8511  0.9061  0.3399
 2516TIP3    H231744   2.274   3.531  19.658 -1.9081 -1.7445  0.8501
 2517TIP3   OH231745   0.969   0.540  19.673 -0.4975  0.2709 -0.5000
 2517TIP3    H131746   0.879   0.515  19.652  0.3230 -2.6865 -1.0429
 2517TIP3    H231747   0.985   0.503  19.760 -0.4824  2.8992  0.6949
 2518TIP3   OH231748   5.374   1.665  19.956  0.7904  0.6039  0.4861
 2518TIP3    H131749   5.298   1.682  20.012  0.5268  0.1963  0.2579
 2518TIP3    H231750   5.434   1.736  19.975 -0.2087  1.7200 -0.3067
 2519TIP3   OH231751   3.945   1.184  19.414 -0.0707 -0.0195 -0.3007
 2519TIP3    H131752   3.982   1.097  19.425  0.6339  0.2425 -0.5733
 2519TIP3    H231753   4.010   1.232  19.364 -0.7818  0.4500 -0.7929
 2520TIP3   OH231754   6.269   0.098  19.640  0.3586  0.8599  0.3209
 2520TIP3    H131755   6.293   0.025  19.582 -0.0939  0.9162  0.0564
 2520TIP3    H231756   6.175   0.109  19.626  0.2316  0.8306  1.1217
 2521TIP3   OH231757   3.012   1.148  20.153  0.1462 -0.3471  0.3884
 2521TIP3    H131758   3.011   1.078  20.218 -0.4804  0.1107  0.8871
 2521TIP3    H231759   2.936   1.129  20.097  0.9777 -1.0291 -0.5385
 2522TIP3   OH231760   0.718   5.718  20.335 -0.1187 -0.1748  0.3519
 2522TIP3    H131761   0.787   5.784  20.340 -0.1272 -0.1702  0.4090
 2522TIP3    H231762   0.656   5.754  20.272  0.9259 -1.1050 -1.2843
 2523TIP3   OH231763   3.853   0.786  17.516 -0.2172  0.1146 -0.3965
 2523TIP3    H131764   3.881   0.752  17.601  0.5327  1.7576  0.0722
 2523TIP3    H231765   3.796   0.718  17.479  2.7511 -2.5476 -0.4747
 2524TIP3   OH231766   6.034   1.153  20.692  0.1177  0.2096 -0.2503
 2524TIP3    H131767   6.015   1.064  20.722 -1.5444  0.9376  0.9899
 2524TIP3    H231768   6.112   1.179  20.741  0.7223 -0.5743 -0.7440
 2525TIP3   OH231769   4.571   2.595  17.964  0.0095  0.0046  0.0367
 2525TIP3    H131770   4.593   2.502  17.954  1.6129  0.5605 -2.3451
 2525TIP3    H231771   4.512   2.597  18.039  1.6392 -2.6575  1.5669
 2526TIP3   OH231772   0.161   4.626  19.176 -0.1627  0.1814  0.4075
 2526TIP3    H131773   0.087   4.640  19.235  1.0523 -0.8945  2.3237
 2526TIP3    H231774   0.231   4.680  19.212  0.1726  0.7654 -1.0524
 2527TIP3   OH231775   0.438   5.763  20.193 -0.2060 -0.2216  0.6630
 2527TIP3    H131776   0.376   5.749  20.121  1.1171  0.1749 -0.5910
 2527TIP3    H231777   0.411   5.847  20.231 -1.3818 -0.7995  1.1583
 2528TIP3   OH231778   5.854   5.330  17.470 -0.0750 -0.1588 -0.1149
 2528TIP3    H131779   5.760   5.348  17.465  0.3533  2.5984  0.1783
 2528TIP3    H231780   5.865   5.286  17.554 -0.9373  0.9092  0.5887
 2529TIP3   OH231781   0.156   4.614  18.244 -0.3191 -0.2439  0.7454
 2529TIP3    H131782   0.110   4.696  18.226 -0.7887 -0.2409  1.8841
 2529TIP3    H231783   0.163   4.571  18.159  0.5071  1.2535  0.0178
 2530TIP3   OH231784   4.822   1.083  18.984  0.0439  0.0299 -0.7519
 2530TIP3    H131785   4.867   1.063  19.066  0.5440  1.3117 -0.6996
 2530TIP3    H231786   4.863   1.026  18.919  1.6498  1.0229 -0.6710
 2531TIP3   OH231787   6.290   1.572  19.551  0.0298  0.2900  0.5121
 2531TIP3    H131788   6.269   1.612  19.467  0.3049 -0.7284 -0.0617
 2531TIP3    H231789   6.206   1.571  19.598  0.0747  1.7714  0.6748
 2532TIP3   OH231790   1.861   2.599  17.803 -0.5264 -0.3048 -0.1858
 2532TIP3    H131791   1.783   2.603  17.859  0.3767 -1.8864  1.2739
 2532TIP3    H231792   1.902   2.515  17.825  0.4859 -0.4608 -2.4440
 2533TIP3   OH231793   2.534   4.803  20.132 -0.1163 -0.1286  0.6707
 2533TIP3    H131794   2.497   4.836  20.050 -1.7568 -1.9763  0.6006
 2533TIP3    H231795   2.574   4.880  20.173 -0.9366  1.2325 -0.9601
 2534TIP3   OH231796   6.283   4.269  19.400  0.5603 -0.0222  0.2645
 2534TIP3    H131797   6.289   4.206  19.328  1.7521 -0.2103  0.4898
 2534TIP3    H231798   6.201   4.248  19.445 -0.6591  0.6870 -1.5384
 2535TIP3   OH231799   1.290   3.850  18.867  0.4210  0.3426 -0.3832
 2535TIP3    H131800   1.214   3.894  18.831 -1.0998 -1.0676  0.9058
 2535TIP3    H231801   1.323   3.909  18.935  0.5405  0.9895 -0.9951
 2536TIP3   OH231802   1.025   3.857  17.971 -0.0522  0.3619 -0.2196
 2536TIP3    H131803   1.038   3.942  17.928  0.4697  1.6193  2.2313
 2536TIP3    H231804   1.112   3.832  18.002 -0.6202  0.3098  1.4359
 2537TIP3   OH231805   3.581   6.572  18.400 -0.0473 -0.1320  0.3503
 2537TIP3    H131806   3.499   6.535  18.431  0.5351 -1.7803  0.0127
 2537TIP3    H231807   3.555   6.636  18.333 -1.1528  1.4144  2.1553
 2538TIP3   OH231808   5.314   0.821  17.608 -0.1289 -0.0250  0.3771
 2538TIP3    H131809   5.258   0.879  17.659 -1.7059 -1.5309  0.4774
 2538TIP3    H231810   5.351   0.761  17.673  0.0775 -0.2215  0.0804
 2539TIP3   OH231811   3.512   5.409  18.427  0.9811 -0.3207  0.1332
 2539TIP3    H131812   3.567   5.474  18.383 -0.3570  1.7903  1.4050
 2539TIP3    H231813   3.428   5.415  18.382  0.3075  0.1722  1.4026
 2540TIP3   OH231814   0.378   4.718  19.335 -0.3117 -0.4132  0.0406
 2540TIP3    H131815   0.414   4.689  19.419  1.2206  0.1878 -0.3658
 2540TIP3    H231816   0.365   4.812  19.346  1.6441  0.0271 -0.9226
 2541TIP3   OH231817   5.465   2.205  20.534  0.2853  0.6090 -0.3656
 2541TIP3    H131818   5.446   2.147  20.461 -0.0745 -0.8319  0.8391
 2541TIP3    H231819   5.427   2.289  20.508 -1.1152 -0.2515 -1.2193
 2542TIP3   OH231820   3.918   5.631  17.717  0.1022  0.1595 -0.5613
 2542TIP3    H131821   3.947   5.545  17.745  0.9459  0.9560  1.1186
 2542TIP3    H231822   3.830   5.639  17.754 -0.6884 -0.6159 -2.1701
 2543TIP3   OH231823   2.125   4.667  19.877  0.1585 -0.5489 -0.7241
 2543TIP3    H131824   2.170   4.582  19.879 -1.1725 -1.2916  0.4999
 2543TIP3    H231825   2.034   4.644  19.859 -0.1160  0.6878 -0.9501
 2544TIP3   OH231826   2.343   0.527  17.556 -0.3036 -0.6001 -0.5914
 2544TIP3    H131827   2.428   0.555  17.590 -2.2712  2.7546  2.1664
 2544TIP3    H231828   2.326   0.587  17.483 -1.6292  1.1649  1.0539
 2545TIP3   OH231829   0.673   3.653  19.424  0.1966  0.1622 -0.1013
 2545TIP3    H131830   0.653   3.745  19.443  0.0256  0.2344 -0.5960
 2545TIP3    H231831   0.706   3.654  19.334  0.2117 -0.2550 -0.1024
 2546TIP3   OH231832   0.522   1.069  18.733  0.0098  0.0499 -0.2554
 2546TIP3    H131833   0.535   1.018  18.653  0.8359  1.0039 -0.7507
 2546TIP3    H231834   0.443   1.032  18.773 -1.5251  0.7268 -2.4472
 2547TIP3   OH231835   3.739   1.057  19.113  0.2941  0.3142 -0.0974
 2547TIP3    H131836   3.704   1.096  19.193  0.5042  0.4353 -0.0624
 2547TIP3    H231837   3.803   1.121  19.081  1.1892 -0.3245  0.3605
 2548TIP3   OH231838   1.024   4.294  19.359 -0.0621  0.1069 -0.1703
 2548TIP3    H131839   0.976   4.228  19.411 -0.5416  0.2682 -0.4014
 2548TIP3    H231840   1.097   4.320  19.415 -0.0494 -0.3914  0.0533
 2549TIP3   OH231841   5.919   5.011  17.920  0.2154  0.6511  0.0554
 2549TIP3    H131842   5.952   4.927  17.951  1.6356  1.3328  0.4630
 2549TIP3    H231843   5.928   5.070  17.995 -1.1522  1.0983 -0.0901
 2550TIP3   OH231844   5.825   4.966  18.513 -0.1898 -0.3971 -0.5516
 2550TIP3    H131845   5.747   4.979  18.461 -2.0904 -1.1781  1.8994
 2550TIP3    H231846   5.849   4.874  18.499 -1.9713 -1.2455  1.4045
 2551TIP3   OH231847   2.540   0.176  20.512  0.2715 -0.5234  0.2849
 2551TIP3    H131848   2.589   0.152  20.434  1.5736  0.6325  0.7098
 2551TIP3    H231849   2.478   0.243  20.482  0.6073 -0.2527  0.1898
 2552TIP3   OH231850   3.525   6.539  17.939 -0.3995  0.2474  0.0820
 2552TIP3    H131851   3.532   6.597  18.015  1.3654 -0.2097  0.2887
 2552TIP3    H231852   3.568   6.587  17.868 -0.3108 -0.1694 -0.1465
 2553TIP3   OH231853   0.449   4.797  18.872  0.6622  0.1121  0.7577
 2553TIP3    H131854   0.495   4.757  18.945  0.2357  0.5591  1.2838
 2553TIP3    H231855   0.391   4.728  18.839  1.4814 -0.3612  0.2719
 2554TIP3   OH231856   3.544   1.906  17.695  0.4074  0.0295 -0.3287
 2554TIP3    H131857   3.632   1.914  17.659  0.4132 -0.2276 -0.3768
 2554TIP3    H231858   3.494   1.976  17.653 -0.1463 -1.5958 -2.5300
 2555TIP3   OH231859   3.607   5.769  18.666  0.4764 -0.0381  0.1061
 2555TIP3    H131860   3.608   5.699  18.732 -3.2515 -0.0200  0.4321
 2555TIP3    H231861   3.559   5.731  18.592  0.7949  1.3273 -0.8393
 2556TIP3   OH231862   4.406   4.697  17.911 -0.1857 -0.3683 -0.5488
 2556TIP3    H131863   4.375   4.770  17.964 -0.5445 -0.5760 -0.4713
 2556TIP3    H231864   4.394   4.620  17.966  0.8014 -0.4128 -0.3779
 2557TIP3   OH231865   3.552   0.637  18.798 -0.4001  0.0297 -0.3375
 2557TIP3    H131866   3.536   0.561  18.741 -2.0913  1.1579 -1.4703
 2557TIP3    H231867   3.465   0.668  18.821  0.2664  1.2410  0.6717
 2558TIP3   OH231868   4.565   2.328  19.187 -0.0005  0.2506 -0.4389
 2558TIP3    H131869   4.491   2.277  19.154  0.0461 -1.7548  2.2116
 2558TIP3    H231870   4.641   2.272  19.171  0.7935  1.6426 -1.7736
 2559TIP3   OH231871   1.895   0.660  19.931 -0.1057 -0.0407 -0.3350
 2559TIP3    H131872   1.978   0.688  19.892 -0.6369  1.2403 -0.6282
 2559TIP3    H231873   1.828   0.705  19.879 -0.9343 -0.2053  0.5503
 2560TIP3   OH231874   1.306   0.158  20.448 -0.0311  0.2699  0.5967
 2560TIP3    H131875   1.326   0.172  20.356  1.2348  0.1604  0.8404
 2560TIP3    H231876   1.347   0.232  20.493 -0.6827  0.3509  1.0739
 2561TIP3   OH231877   1.559   3.631  19.956 -0.2184  0.0880  0.0576
 2561TIP3    H131878   1.542   3.708  19.901  3.7754  1.6437  0.6653
 2561TIP3    H231879   1.609   3.572  19.900  0.2697 -0.1921  0.7799
 2562TIP3   OH231880   6.229   6.251  19.322  0.3721 -0.6951 -0.3356
 2562TIP3    H131881   6.307   6.305  19.305 -1.9795  2.3359 -3.0404
 2562TIP3    H231882   6.207   6.270  19.413  1.8043 -0.2403 -0.0414
 2563TIP3   OH231883   1.821   4.521  17.830 -0.0941  0.1490 -0.2023
 2563TIP3    H131884   1.765   4.472  17.770  0.2218  3.0470 -3.1334
 2563TIP3    H231885   1.899   4.543  17.778  2.2276 -0.6911  2.6205
 2564TIP3   OH231886   1.023   2.922  19.453  0.9196 -0.0381  0.2665
 2564TIP3    H131887   1.083   2.943  19.524  0.1580 -0.7319  1.1396
 2564TIP3    H231888   0.975   3.004  19.437  1.0299  0.0994  0.6245
 2565TIP3   OH231889   0.145   5.830  19.699 -0.0092  0.2499  0.0213
 2565TIP3    H131890   0.156   5.755  19.757 -0.0925 -1.4557 -2.0273
 2565TIP3    H231891   0.219   5.888  19.720 -1.1714  0.7713  3.1747
 2566TIP3   OH231892   1.793   3.642  19.523 -0.4584 -0.1585  0.3394
 2566TIP3    H131893   1.856   3.672  19.458 -1.6956 -1.8848 -1.8109
 2566TIP3    H231894   1.724   3.708  19.523  0.2048  0.5470  0.9643
 2567TIP3   OH231895   3.606   4.319  19.140  0.3292  0.1614 -0.0080
 2567TIP3    H131896   3.628   4.229  19.116 -0.8387 -0.4926  1.2358
 2567TIP3    H231897   3.511   4.325  19.128  0.6113  1.8323 -1.8739
 2568TIP3   OH231898   1.859   6.613  20.130  0.5367 -0.2738  0.1842
 2568TIP3    H131899   1.860   6.700  20.091 -0.3695  0.3548  1.4470
 2568TIP3    H231900   1.855   6.553  20.056 -2.0137  0.8663 -0.7423
 2569TIP3   OH231901   5.803   1.887  17.924 -0.0807  0.4239 -0.2449
 2569TIP3    H131902   5.739   1.948  17.886  0.4742  1.2641  0.1362
 2569TIP3    H231903   5.786   1.804  17.880 -1.9242  0.4287  0.3651
 2570TIP3   OH231904   2.416   5.698  18.455  0.4126 -0.1409  0.3379
 2570TIP3    H131905   2.415   5.782  18.410  1.3604  0.8595  2.0591
 2570TIP3    H231906   2.391   5.719  18.545 -0.9428 -1.9766  0.4325
 2571TIP3   OH231907   2.051   0.492  19.156  0.2318 -0.0913  0.4691
 2571TIP3    H131908   2.128   0.437  19.170  0.2433 -0.1950 -0.0054
 2571TIP3    H231909   2.087   0.581  19.150  0.1089  0.1292  2.3808
 2572TIP3   OH231910   5.268   5.896  18.632 -0.3736  0.0276 -0.0637
 2572TIP3    H131911   5.225   5.837  18.569 -1.7462  0.7995  0.1196
 2572TIP3    H231912   5.216   5.889  18.711  1.0287 -0.5151  0.8583
 2573TIP3   OH231913   4.890   1.057  18.190  0.7684 -1.0016 -0.2723
 2573TIP3    H131914   4.931   1.082  18.107  1.5174 -2.8366 -0.4984
 2573TIP3    H231915   4.927   1.117  18.254 -1.6216  2.0949 -1.5304
 2574TIP3   OH231916   2.416   3.407  19.695  0.6766 -0.3177  0.0984
 2574TIP3    H131917   2.463   3.357  19.763  1.9156 -0.1522 -0.5933
 2574TIP3    H231918   2.379   3.340  19.638 -0.3098 -0.4568  0.8864
 2575TIP3   OH231919   2.697   4.641  18.347  0.0423 -0.2694 -0.4189
 2575TIP3    H131920   2.734   4.661  18.261  1.4190 -0.1616  0.1683
 2575TIP3    H231921   2.628   4.705  18.359  0.7568  0.6082 -0.8755
 2576TIP3   OH231922   4.866   1.416  17.878  0.3493 -0.8436 -0.0666
 2576TIP3    H131923   4.888   1.428  17.970  1.4734  1.2368 -0.5413
 2576TIP3    H231924   4.949   1.391  17.837  0.6891  1.5340 -0.9838
 2577TIP3   OH231925   2.180   3.301  17.805  0.2380 -0.2752  0.0132
 2577TIP3    H131926   2.109   3.238  17.808 -0.5498  0.5508 -0.5415
 2577TIP3    H231927   2.204   3.307  17.712  1.4025 -0.9290  0.2508
 2578TIP3   OH231928   1.417   0.745  19.212 -0.4813  0.4000 -0.5838
 2578TIP3    H131929   1.341   0.796  19.184 -1.8389 -2.8940 -3.8082
 2578TIP3    H231930   1.384   0.686  19.279 -0.7416 -0.7242 -1.6642
 2579TIP3   OH231931   3.659   0.703  19.709  0.3640 -0.0265  0.0957
 2579TIP3    H131932   3.613   0.713  19.792  0.2023  2.7639 -0.2587
 2579TIP3    H231933   3.743   0.748  19.722  0.4551  0.2053 -1.1660
 2580TIP3   OH231934   1.252   0.300  19.754 -0.2787 -0.4563 -0.1852
 2580TIP3    H131935   1.160   0.315  19.730 -0.1724  2.1064  0.7114
 2580TIP3    H231936   1.247   0.262  19.842 -0.5024  0.6524  0.2998
 2581TIP3   OH231937   1.682   1.292  20.304 -0.1356 -0.2639 -0.1072
 2581TIP3    H131938   1.737   1.345  20.361  0.7003 -1.8810  0.6632
 2581TIP3    H231939   1.686   1.336  20.219  3.9017 -1.2030 -0.6228
 2582TIP3   OH231940   2.858   5.119  17.832 -0.2359  0.1189 -0.2800
 2582TIP3    H131941   2.809   5.139  17.913 -1.2366  1.5250 -1.1932
 2582TIP3    H231942   2.790   5.112  17.765  0.5164 -1.7821 -0.9029
 2583TIP3   OH231943   3.053   3.325  19.751 -0.2016 -0.1950  0.2188
 2583TIP3    H131944   3.110   3.258  19.712 -0.1511  0.9688 -1.8256
 2583TIP3    H231945   3.112   3.397  19.773 -0.2202 -0.8114  2.6447
 2584TIP3   OH231946   2.606   5.068  20.183 -0.0730  0.0427 -0.1374
 2584TIP3    H131947   2.564   5.136  20.130 -1.5053  0.2587  1.1890
 2584TIP3    H231948   2.700   5.087  20.176 -0.3581  1.2619 -0.9879
 2585TIP3   OH231949   6.232   6.027  20.214  0.5043 -0.4367 -0.0714
 2585TIP3    H131950   6.225   6.089  20.286 -0.4965  0.0683 -0.5917
 2585TIP3    H231951   6.209   5.942  20.252  0.5988 -0.2825  0.3355
 2586TIP3   OH231952   1.744   5.727  18.187  0.1059 -0.3582  0.2684
 2586TIP3    H131953   1.718   5.637  18.205 -0.0407 -0.1879  0.9600
 2586TIP3    H231954   1.769   5.728  18.094  1.9809 -1.5468  0.7043
 2587TIP3   OH231955   4.854   5.852  19.473 -0.4098 -0.0615  0.8835
 2587TIP3    H131956   4.789   5.783  19.461 -0.3403 -0.0622  0.4952
 2587TIP3    H231957   4.938   5.806  19.469 -0.3082  0.1851 -0.5849
 2588TIP3   OH231958   5.673   3.134  18.743  0.0537 -0.0239 -0.3410
 2588TIP3    H131959   5.608   3.178  18.798  0.8985 -0.2638  0.9048
 2588TIP3    H231960   5.634   3.133  18.656 -1.0184  1.0315  0.0930
 2589TIP3   OH231961   5.076   0.240  17.605  0.6017 -0.2471  0.4693
 2589TIP3    H131962   5.071   0.274  17.694  0.9084 -0.7666  0.6883
 2589TIP3    H231963   5.134   0.300  17.559 -0.5851  0.7686  0.2667
 2590TIP3   OH231964   4.948   0.094  18.965 -1.1160  0.3983 -0.0343
 2590TIP3    H131965   4.899   0.017  18.935 -0.4290  0.6433 -1.9178
 2590TIP3    H231966   5.021   0.101  18.904 -0.9116  2.2980  0.3840
 2591TIP3   OH231967   2.318   4.184  20.495  0.1340  0.0620  0.2998
 2591TIP3    H131968   2.267   4.149  20.421  1.9467 -0.4121 -0.7942
 2591TIP3    H231969   2.289   4.275  20.503 -0.4174 -0.0108 -0.7117
 2592TIP3   OH231970   2.712   1.799  19.676  0.0704 -0.2414  0.4175
 2592TIP3    H131971   2.636   1.857  19.671 -0.1158 -0.5930 -1.5665
 2592TIP3    H231972   2.786   1.856  19.695 -0.4015  0.3513  0.4900
 2593TIP3   OH231973   0.894   0.679  20.149 -0.3582  0.1214  0.3113
 2593TIP3    H131974   0.906   0.773  20.150 -2.0269  0.3740  0.6997
 2593TIP3    H231975   0.904   0.652  20.240  0.6911 -0.1864  0.1202
 2594TIP3   OH231976   0.036   5.814  20.318  0.1671 -0.0093 -0.4076
 2594TIP3    H131977  -0.060   5.823  20.323  0.2921  1.0922  0.2970
 2594TIP3    H231978   0.055   5.823  20.224 -0.3051  1.2661 -0.4103
 2595TIP3   OH231979   3.696   6.118  19.104  0.3122 -0.1377  0.3504
 2595TIP3    H131980   3.684   6.193  19.163  0.2942 -1.0316  1.5137
 2595TIP3    H231981   3.607   6.089  19.084  0.3249 -0.6574  0.9920
 2596TIP3   OH231982   6.534   2.993  20.362  0.0630  0.3510 -0.0986
 2596TIP3    H131983   6.513   2.919  20.419 -1.2533 -0.3858 -1.4804
 2596TIP3    H231984   6.627   3.011  20.380 -0.0887 -0.4106  1.6083
 2597TIP3   OH231985   2.985   4.765  18.841  0.3870 -0.0804  0.2966
 2597TIP3    H131986   3.021   4.797  18.758 -1.6151 -2.8940 -1.8369
 2597TIP3    H231987   3.029   4.682  18.856 -1.7373 -1.3045  0.0997
 2598TIP3   OH231988   5.850   4.651  19.632 -0.2894 -0.7271  0.7804
 2598TIP3    H131989   5.904   4.675  19.708 -0.8639 -1.4396  1.4351
 2598TIP3    H231990   5.798   4.729  19.614  0.6422 -0.1766  0.4057
 2599TIP3   OH231991   3.619   1.522  19.278 -0.2444  0.3906  0.1058
 2599TIP3    H131992   3.689   1.551  19.220 -0.9361  0.5676 -0.6510
 2599TIP3    H231993   3.657   1.531  19.366  1.2164 -0.9814 -0.3247
 2600TIP3   OH231994   2.839   4.286  20.440 -0.0691 -0.9269  0.1983
 2600TIP3    H131995   2.857   4.194  20.458  0.3931 -0.5589  1.7302
 2600TIP3    H231996   2.767   4.309  20.498  0.4833 -0.0712  0.5688
 2601TIP3   OH231997   6.176   4.402  19.847  0.0555 -0.3747  0.1828
 2601TIP3    H131998   6.134   4.459  19.912  1.0209  0.1193  0.3969
 2601TIP3    H231999   6.184   4.317  19.890 -2.3190 -1.0111 -0.4941
 2602TIP3   OH232000   1.313   4.284  18.938 -0.0405  0.1204 -0.9479
 2602TIP3    H132001   1.262   4.239  19.004 -0.7125 -0.7241 -2.0199
 2602TIP3    H232002   1.402   4.248  18.947  0.0573  0.5849 -0.0023
 2603TIP3   OH232003   2.306   3.262  19.484  0.3308  0.1491  0.1062
 2603TIP3    H132004   2.320   3.308  19.402  0.1151 -0.8443 -0.5001
 2603TIP3    H232005   2.227   3.210  19.470  1.6441 -1.9536  0.0464
 2604TIP3   OH232006   3.988   6.002  18.835  0.3779 -0.3697  0.1966
 2604TIP3    H132007   3.955   5.956  18.758  1.6272  0.5989 -0.9711
 2604TIP3    H232008   4.063   6.052  18.803 -0.1558  1.5018  1.6604
 2605TIP3   OH232009   2.996   0.423  18.813 -0.4280 -0.1727 -0.0573
 2605TIP3    H132010   3.064   0.422  18.746  0.6261  0.7763  0.9779
 2605TIP3    H232011   2.939   0.496  18.788 -1.2793 -1.1231 -1.0666
 2606TIP3   OH232012   2.049   2.244  18.750  0.0206  0.1109 -1.1622
 2606TIP3    H132013   2.095   2.293  18.818  2.1032  1.9818 -3.7086
 2606TIP3    H232014   2.006   2.311  18.697  0.1804 -1.0609 -2.8701
 2607TIP3   OH232015   1.026   6.691  18.963  0.2694 -0.1313 -0.2263
 2607TIP3    H132016   1.078   6.680  18.884  1.3086 -1.8501  0.6498
 2607TIP3    H232017   1.011   6.602  18.994 -2.2602  0.3556  0.1887
 2608TIP3   OH232018   3.697   3.817  20.134  0.0246  0.3770  0.3133
 2608TIP3    H132019   3.672   3.847  20.221  0.2567 -1.0592  0.9055
 2608TIP3    H232020   3.623   3.763  20.105  0.4301 -0.0933  0.1262
 2609TIP3   OH232021   6.174   3.296  20.449 -0.4584 -0.4892  0.1424
 2609TIP3    H132022   6.119   3.241  20.506 -0.6457  1.0924  1.5783
 2609TIP3    H232023   6.263   3.276  20.476 -0.4467 -1.0686 -0.3003
 2610TIP3   OH232024   5.908   2.915  18.391 -0.0244  0.1795 -0.3177
 2610TIP3    H132025   5.883   2.939  18.302 -0.5221  0.9978  0.0238
 2610TIP3    H232026   6.001   2.937  18.396  0.3524 -1.1768 -1.0458
 2611TIP3   OH232027   5.114   1.805  18.842  0.4243  0.0966 -0.1584
 2611TIP3    H132028   5.128   1.900  18.851  0.5419 -0.0547  1.5400
 2611TIP3    H232029   5.186   1.776  18.785 -0.5604  1.2375 -2.0957
 2612TIP3   OH232030   3.628   1.749  20.084  0.2057  0.1114 -0.5431
 2612TIP3    H132031   3.704   1.731  20.139 -0.2217 -0.3839 -0.1036
 2612TIP3    H232032   3.613   1.843  20.095 -0.1401 -0.0505  0.5493
 2613TIP3   OH232033   1.419   4.474  19.457  0.0043 -0.3258  0.0524
 2613TIP3    H132034   1.429   4.413  19.384  0.3435 -1.3263  0.9007
 2613TIP3    H232035   1.462   4.430  19.530  1.7308  1.6523  0.3184
 2614TIP3   OH232036   0.760   3.394  19.056 -0.8653 -0.0970  0.0063
 2614TIP3    H132037   0.804   3.309  19.060 -0.4007 -0.0020 -2.2032
 2614TIP3    H232038   0.695   3.384  18.987 -1.0555  1.2262 -0.0285
 2615TIP3   OH232039   0.820   3.406  17.873 -0.3456 -0.1134 -0.5613
 2615TIP3    H132040   0.809   3.499  17.852 -2.5469  0.5677  2.7929
 2615TIP3    H232041   0.863   3.405  17.958 -0.3346 -2.1677 -0.5413
 2616TIP3   OH232042   3.062   6.717  20.641 -0.1410 -0.0188  0.4578
 2616TIP3    H132043   3.015   6.684  20.565  0.6242 -0.7052  0.2726
 2616TIP3    H232044   3.038   6.810  20.646 -0.4573 -0.0452 -0.4152
 2617TIP3   OH232045   2.938   4.179  18.766  0.3022  0.2091  0.6280
 2617TIP3    H132046   2.959   4.177  18.673 -0.6104 -0.3533  0.4269
 2617TIP3    H232047   2.979   4.099  18.801 -0.8421 -0.5124  0.3675
 2618TIP3   OH232048   3.784   1.190  17.806  0.0409  0.2598 -0.2445
 2618TIP3    H132049   3.812   1.218  17.719  0.6296 -0.0256 -0.1491
 2618TIP3    H232050   3.688   1.197  17.803  0.0595  0.3376 -0.8841
 2619TIP3   OH232051   2.055   4.972  19.522 -0.2123 -0.3509 -0.4994
 2619TIP3    H132052   1.998   4.979  19.599 -0.2397 -0.5544 -0.5014
 2619TIP3    H232053   2.077   4.879  19.517  1.6545 -0.0087  0.5971
 2620TIP3   OH232054   3.251   5.469  18.330 -0.0890 -0.3437  0.4341
 2620TIP3    H132055   3.227   5.485  18.239  0.3462 -1.3191  0.1359
 2620TIP3    H232056   3.238   5.375  18.342 -0.2696 -0.2044  1.4210
 2621TIP3   OH232057   2.879   4.414  19.247 -0.0385  0.3535  0.3330
 2621TIP3    H132058   2.861   4.486  19.307 -0.1664  0.0702  0.6415
 2621TIP3    H232059   2.963   4.378  19.276 -0.3381 -0.0987  0.6622
 2622TIP3   OH232060   2.992   2.315  18.740 -0.2457  0.1839  0.1734
 2622TIP3    H132061   2.960   2.395  18.697  2.7438  1.2067 -0.3886
 2622TIP3    H232062   3.077   2.340  18.776  1.2226 -2.9789 -0.7762
 2623TIP3   OH232063   3.159   0.597  20.722  0.2571 -0.3265 -0.3777
 2623TIP3    H132064   3.169   0.629  20.632 -0.0929  0.9040 -0.0017
 2623TIP3    H232065   3.208   0.660  20.775  2.0779 -2.0745  0.1577
 2624TIP3   OH232066   6.082   1.364  18.716  0.0728 -0.4373  0.3989
 2624TIP3    H132067   6.028   1.290  18.687  0.0518 -1.6373  3.2342
 2624TIP3    H232068   6.020   1.422  18.760  0.2809  0.8233 -0.8871
 2625TIP3   OH232069   5.523   0.605  19.877 -0.4570 -0.0659 -0.8131
 2625TIP3    H132070   5.451   0.566  19.927  1.5180 -0.9196  1.5819
 2625TIP3    H232071   5.489   0.689  19.847 -2.1489  0.0373  1.1524
 2626TIP3   OH232072   3.228   2.257  18.971  0.7384 -0.4218 -0.1163
 2626TIP3    H132073   3.231   2.325  18.904 -0.4389  0.5683  0.7786
 2626TIP3    H232074   3.235   2.305  19.054  1.4608 -1.5530  0.4963
 2627TIP3   OH232075   4.824   1.696  20.798  0.0967 -0.2038 -0.0269
 2627TIP3    H132076   4.741   1.743  20.789  0.4617  0.2062 -1.3535
 2627TIP3    H232077   4.834   1.685  20.893 -0.5450  1.3961  0.2588
 2628TIP3   OH232078   2.302   1.397  17.601  0.2663  0.3362  0.1345
 2628TIP3    H132079   2.267   1.417  17.514  0.6749 -1.4514 -0.4972
 2628TIP3    H232080   2.282   1.304  17.614  0.0384  0.6150  2.0499
 2629TIP3   OH232081   3.205   6.531  18.150 -0.7544  0.0639  0.3637
 2629TIP3    H132082   3.222   6.602  18.213  0.6229  0.9280 -0.9067
 2629TIP3    H232083   3.124   6.557  18.106 -0.9142  0.2125  0.7334
 2630TIP3   OH232084   1.769   4.784  20.355 -0.1029 -0.5356  0.4999
 2630TIP3    H132085   1.758   4.714  20.290 -0.3941 -0.6250  0.6463
 2630TIP3    H232086   1.685   4.829  20.356  0.8394  1.4798 -1.4973
 2631TIP3   OH232087   4.527   2.897  18.784 -0.5693  0.0997  0.5729
 2631TIP3    H132088   4.432   2.895  18.797 -0.5470 -0.5703  0.7052
 2631TIP3    H232089   4.545   2.983  18.748 -1.3077  0.0275 -0.0036
 2632TIP3   OH232090   2.630   0.094  19.173  0.3824  0.0664 -0.2799
 2632TIP3    H132091   2.574   0.054  19.240 -0.0002 -0.8824 -1.1177
 2632TIP3    H232092   2.577   0.164  19.136  0.3283  0.1467 -0.0479
 2633TIP3   OH232093   1.780   3.312  17.706 -0.2421 -0.1914 -0.4338
 2633TIP3    H132094   1.805   3.400  17.677  1.2471 -0.8654 -1.3322
 2633TIP3    H232095   1.684   3.312  17.704 -0.2700  1.4771 -0.1771
 2634TIP3   OH232096   4.940   3.821  18.419 -0.1655 -0.4255  0.4411
 2634TIP3    H132097   4.962   3.852  18.507  0.5450 -1.4343  0.6395
 2634TIP3    H232098   5.000   3.868  18.361  0.9048 -1.3722  0.7398
 2635TIP3   OH232099   3.349   0.808  18.147  0.0260 -0.1287 -0.5144
 2635TIP3    H132100   3.280   0.785  18.209  1.5047 -0.5183  1.0564
 2635TIP3    H232101   3.430   0.804  18.198  1.4894 -1.7225 -2.7720
 2636TIP3   OH232102   2.352   1.868  19.366  0.5386  0.6410  0.1590
 2636TIP3    H132103   2.341   1.870  19.461  2.1969  2.4396  0.3829
 2636TIP3    H232104   2.344   1.776  19.343 -1.3932  0.3241  1.8115
 2637TIP3   OH232105   4.636   5.022  20.401  0.4350 -0.0420 -0.1047
 2637TIP3    H132106   4.599   4.950  20.453  0.2268  1.9610  2.7412
 2637TIP3    H232107   4.728   5.024  20.426  0.1513  1.4745  0.9851
 2638TIP3   OH232108   0.318   3.194  18.527 -0.2089 -0.1013  0.0834
 2638TIP3    H132109   0.315   3.103  18.554  0.7853  0.1036  0.9289
 2638TIP3    H232110   0.345   3.191  18.435 -1.5638 -0.6970 -0.3353
 2639TIP3   OH232111   1.834   2.449  18.190 -0.1613 -0.1889  0.1699
 2639TIP3    H132112   1.806   2.394  18.263 -2.0113 -0.1811 -0.4746
 2639TIP3    H232113   1.822   2.393  18.113  0.3479  0.2975 -0.2670
 2640TIP3   OH232114   0.084   0.198  17.895 -0.3564  0.4123  0.3473
 2640TIP3    H132115   0.006   0.217  17.844 -0.3274 -1.8233 -0.6608
 2640TIP3    H232116   0.157   0.217  17.836 -0.2943 -1.2083 -0.1419
 2641TIP3   OH232117   0.862   2.077  19.076  0.1850 -0.0467  0.3802
 2641TIP3    H132118   0.782   2.028  19.058 -0.1133  0.2823  0.7773
 2641TIP3    H232119   0.933   2.017  19.053 -0.1722 -0.8242  1.2178
 2642TIP3   OH232120   4.574   6.322  17.747 -0.3990 -0.3451  0.4092
 2642TIP3    H132121   4.656   6.371  17.759  0.0502 -1.3362  1.6273
 2642TIP3    H232122   4.538   6.314  17.835 -0.6365 -1.8583  0.2059
 2643TIP3   OH232123   1.157   5.818  18.044 -0.4666 -1.0137  0.0572
 2643TIP3    H132124   1.245   5.780  18.044 -0.2542 -0.5243  0.3264
 2643TIP3    H232125   1.156   5.873  17.966  0.4426  1.1998  1.5224
 2644TIP3   OH232126   4.023   1.651  18.299  0.2978  0.1378 -0.4693
 2644TIP3    H132127   3.942   1.687  18.334 -0.9968 -1.8980 -1.1890
 2644TIP3    H232128   4.068   1.727  18.261  0.0482  1.7747  2.2316
 2645TIP3   OH232129   4.052   6.636  19.657 -0.3011  0.0553  0.2757
 2645TIP3    H132130   4.137   6.669  19.627 -0.6237  0.0684 -0.6413
 2645TIP3    H232131   4.028   6.570  19.592 -0.4740 -0.7598  1.1469
 2646TIP3   OH232132   6.552   3.757  19.755 -0.5750  0.1839 -0.6386
 2646TIP3    H132133   6.546   3.717  19.842 -1.5858 -0.8248 -1.1453
 2646TIP3    H232134   6.621   3.822  19.763 -0.9489  0.4151  1.0402
 2647TIP3   OH232135   2.088   4.776  18.769  0.0459 -0.1244 -0.1559
 2647TIP3    H132136   2.176   4.760  18.801  0.2680  1.3626  0.0531
 2647TIP3    H232137   2.035   4.707  18.809  1.4799 -2.7163 -2.3858
 2648TIP3   OH232138   5.707   3.608  17.873 -0.0143  0.5306 -0.3674
 2648TIP3    H132139   5.719   3.609  17.778  0.9120  0.5337 -0.2658
 2648TIP3    H232140   5.626   3.657  17.888 -1.6684 -1.7584 -1.3189
 2649TIP3   OH232141   2.904   5.877  18.720  0.0405 -0.6476  0.1975
 2649TIP3    H132142   2.839   5.845  18.657  0.2239 -0.2838 -0.1841
 2649TIP3    H232143   2.922   5.802  18.776 -0.5963 -0.7937  0.2115
 2650TIP3   OH232144   2.791   5.325  20.903  0.3082 -0.5319  0.1544
 2650TIP3    H132145   2.794   5.416  20.875  0.1482 -0.6293 -0.1976
 2650TIP3    H232146   2.715   5.289  20.858 -0.8181 -0.3497  1.8530
 2651TIP3   OH232147   6.222   0.101  18.885  0.0154 -0.1765  0.1700
 2651TIP3    H132148   6.244   0.105  18.978  0.6764  0.0311  0.0099
 2651TIP3    H232149   6.306   0.104  18.840 -0.1268 -2.5450 -0.3941
 2652TIP3   OH232150   4.708   0.105  18.018  0.3524  0.2937 -0.1554
 2652TIP3    H132151   4.792   0.083  17.977  0.0965 -1.6209  0.2697
 2652TIP3    H232152   4.708   0.201  18.022  2.3718  0.3501 -0.4531
 2653TIP3   OH232153   4.557   4.168  20.709  0.4037  0.8670 -0.4884
 2653TIP3    H132154   4.552   4.178  20.804 -0.1780  0.4794 -0.4777
 2653TIP3    H232155   4.570   4.258  20.676  0.7980  0.9803 -0.0371
 2654TIP3   OH232156   4.297   0.701  19.416 -0.1004 -0.2056 -0.0469
 2654TIP3    H132157   4.354   0.630  19.387 -0.1847  0.0499 -0.8655
 2654TIP3    H232158   4.223   0.699  19.355 -0.2352  0.4078  0.0871
 2655TIP3   OH232159   6.356   2.509  19.490 -0.0469  0.1378  0.5877
 2655TIP3    H132160   6.280   2.564  19.471  0.1288 -0.0339 -0.7032
 2655TIP3    H232161   6.320   2.434  19.537 -0.4038  0.9194  1.6161
 2656TIP3   OH232162   4.516   4.347  19.201 -0.0674 -0.1706 -0.1910
 2656TIP3    H132163   4.436   4.339  19.253 -0.1582  2.4251  0.1876
 2656TIP3    H232164   4.490   4.316  19.114 -0.9874 -0.9790  0.3516
 2657TIP3   OH232165   6.013   4.392  19.278 -0.1583  0.2295 -0.2391
 2657TIP3    H132166   5.923   4.419  19.263 -0.3529  0.3474  1.0590
 2657TIP3    H232167   6.016   4.301  19.250 -0.5261  0.3943 -0.8319
 2658TIP3   OH232168   0.761   3.128  20.348  0.0972 -0.1837 -0.6837
 2658TIP3    H132169   0.673   3.150  20.382 -0.2209 -1.7950 -0.3932
 2658TIP3    H232170   0.817   3.131  20.426  0.2608  0.5366 -0.8167
 2659TIP3   OH232171   2.968   3.955  17.853  0.4140  0.1264  0.4966
 2659TIP3    H132172   2.894   4.014  17.866  2.5028  3.0828  0.1196
 2659TIP3    H232173   2.968   3.937  17.759 -0.7696 -1.3583  0.7432
 2660TIP3   OH232174   2.337   3.833  18.652  0.1096  0.4367  0.0953
 2660TIP3    H132175   2.433   3.832  18.646  0.2281  3.6851 -0.5014
 2660TIP3    H232176   2.308   3.812  18.563  0.4045  1.8174 -0.3569
 2661TIP3   OH232177   2.363   4.555  17.644  0.0699  0.5718  0.0076
 2661TIP3    H132178   2.380   4.649  17.635  0.9482  0.2935 -1.4851
 2661TIP3    H232179   2.424   4.526  17.712 -0.0145  1.0224  0.2814
 2662TIP3   OH232180   4.318   0.394  18.578 -0.1407  0.3934 -0.1354
 2662TIP3    H132181   4.268   0.319  18.609  0.2752 -0.0429 -0.5245
 2662TIP3    H232182   4.275   0.469  18.620  0.0087 -0.1250  0.9883
 2663TIP3   OH232183   1.865   6.541  18.374 -0.3231 -0.1808 -0.3812
 2663TIP3    H132184   1.857   6.534  18.469  1.5136  0.2484 -0.1636
 2663TIP3    H232185   1.931   6.609  18.359  2.9721 -3.3027 -1.7757
 2664TIP3   OH232186   4.756   4.218  19.246  0.7521 -0.2137 -0.2007
 2664TIP3    H132187   4.739   4.166  19.325  0.7824  1.7967  1.1908
 2664TIP3    H232188   4.684   4.280  19.243  0.5427 -0.4863 -2.0180
 2665TIP3   OH232189   2.551   6.593  20.068  0.0157  0.0503  0.1398
 2665TIP3    H132190   2.468   6.641  20.070 -0.8703 -1.3345 -1.6451
 2665TIP3    H232191   2.597   6.623  20.147 -2.4177  0.3979  1.5319
 2666TIP3   OH232192   4.657   0.634  19.152 -0.2063 -0.2549 -0.1765
 2666TIP3    H132193   4.727   0.696  19.133  0.7575 -1.3664 -0.3741
 2666TIP3    H232194   4.577   0.686  19.146  0.5359  0.8708 -0.7548
 2667TIP3   OH232195   2.686   2.445  19.326  0.1006  0.0073  0.0595
 2667TIP3    H132196   2.610   2.399  19.291  0.9871 -1.5464  0.0688
 2667TIP3    H232197   2.650   2.523  19.368 -1.3850 -0.2327 -0.7132
 2668TIP3   OH232198   5.948   5.404  20.322  0.0226 -0.0601  0.0806
 2668TIP3    H132199   5.853   5.397  20.312 -0.0941 -0.2706  1.1154
 2668TIP3    H232200   5.974   5.318  20.357  0.4829  0.2266  0.4578
 2669TIP3   OH232201   2.513   3.500  17.822  0.3673  0.1741 -0.0056
 2669TIP3    H132202   2.517   3.563  17.751  1.0342 -0.5508 -0.6341
 2669TIP3    H232203   2.484   3.419  17.780 -0.7762  0.1193  0.8400
 2670TIP3   OH232204   1.697   5.013  18.476 -0.1104  0.1498 -0.3975
 2670TIP3    H132205   1.779   4.980  18.513 -0.5427 -1.2267 -0.6076
 2670TIP3    H232206   1.629   4.962  18.521 -0.7610  0.2040 -1.3125
 2671TIP3   OH232207   3.230   1.244  20.529  0.7085 -0.5591  0.0084
 2671TIP3    H132208   3.321   1.271  20.515  0.8472 -0.8162  0.4199
 2671TIP3    H232209   3.235   1.151  20.550  0.3547 -0.5625  0.0872
 2672TIP3   OH232210   1.995   3.923  20.084  0.2555 -0.0265  0.1862
 2672TIP3    H132211   1.938   3.878  20.022 -0.9455 -0.0087  1.2376
 2672TIP3    H232212   1.935   3.960  20.149  1.4951 -0.5081  1.6515
 2673TIP3   OH232213   1.264   1.132  18.844  0.6035  0.0314  0.1632
 2673TIP3    H132214   1.199   1.112  18.911  0.6944  1.3535  0.6746
 2673TIP3    H232215   1.334   1.068  18.860 -0.0172 -0.6080  0.3855
 2674TIP3   OH232216   4.667   3.765  18.383  0.2521  0.4667 -0.2720
 2674TIP3    H132217   4.757   3.785  18.355 -0.2114  0.9277 -1.5363
 2674TIP3    H232218   4.650   3.828  18.453  0.8057  0.6137 -0.2610
 2675TIP3   OH232219   1.268   5.592  17.861 -0.6545 -0.0643 -0.1660
 2675TIP3    H132220   1.328   5.643  17.916 -0.4444  0.5102 -0.9082
 2675TIP3    H232221   1.210   5.547  17.923 -2.0608  2.5140  0.5125
 2676TIP3   OH232222   4.995   1.114  17.908  0.2473  0.0483 -0.0415
 2676TIP3    H132223   4.899   1.112  17.908  0.2262 -0.4056 -1.8412
 2676TIP3    H232224   5.018   1.182  17.845  1.1214  0.2653  0.4952
 2677TIP3   OH232225   0.122   1.047  19.472 -0.7462  1.1147  0.2777
 2677TIP3    H132226   0.029   1.028  19.458  0.0520 -2.2262 -1.5649
 2677TIP3    H232227   0.143   1.005  19.555 -0.4449 -0.1081 -0.4026
 2678TIP3   OH232228   3.842   0.757  18.074  0.1798 -0.0819 -0.1630
 2678TIP3    H132229   3.747   0.744  18.077 -0.1156  1.8889  1.1620
 2678TIP3    H232230   3.856   0.817  18.000  0.2731  0.3543  0.2046
 2679TIP3   OH232231   1.316   3.375  18.396  0.0454  0.2106 -0.0607
 2679TIP3    H132232   1.402   3.333  18.395 -0.1435 -0.2168  0.8605
 2679TIP3    H232233   1.335   3.469  18.385  0.7501  0.2948  1.6527
 2680TIP3   OH232234   3.689   0.623  20.715  0.2691 -0.6257 -0.0857
 2680TIP3    H132235   3.683   0.529  20.730 -0.6957 -0.6921 -0.8311
 2680TIP3    H232236   3.614   0.644  20.659  0.5525  0.5607 -0.0522
 2681TIP3   OH232237   1.296   2.401  19.303 -0.0455 -0.4903 -0.1307
 2681TIP3    H132238   1.228   2.435  19.362 -0.3944 -2.0329  0.4008
 2681TIP3    H232239   1.349   2.344  19.358  0.8045 -0.4391 -0.8805
 2682TIP3   OH232240   3.813   4.106  17.641  0.3625  0.4716 -0.2797
 2682TIP3    H132241   3.723   4.137  17.633  0.7885  1.4844 -1.5269
 2682TIP3    H232242   3.809   4.013  17.619 -0.4603  0.3444  0.3403
 2683TIP3   OH232243   6.052   6.343  20.231 -0.4419 -0.0723  0.2692
 2683TIP3    H132244   6.137   6.334  20.274 -0.8610 -2.0698  0.7667
 2683TIP3    H232245   6.038   6.259  20.187 -2.8166 -0.3695  1.4359
 2684TIP3   OH232246   1.330   2.082  20.452  0.1263  0.6115  0.3931
 2684TIP3    H132247   1.426   2.076  20.449  0.0466 -1.1759  0.5862
 2684TIP3    H232248   1.312   2.134  20.531  0.9143 -1.5290  2.0862
 2685TIP3   OH232249   2.928   1.337  20.658  0.0659  0.1572  0.0836
 2685TIP3    H132250   2.955   1.268  20.718  1.7382  1.7882  1.3093
 2685TIP3    H232251   3.006   1.353  20.604 -0.5673  0.5316 -0.7381
 2686TIP3   OH232252   5.725   1.065  19.776 -0.2094 -0.0258 -1.1391
 2686TIP3    H132253   5.682   1.044  19.693 -1.5303 -0.2909 -0.4154
 2686TIP3    H232254   5.657   1.051  19.842  0.9766 -0.3514  0.0461
 2687TIP3   OH232255   2.219   0.088  20.305 -0.1705 -0.7303  0.2283
 2687TIP3    H132256   2.223   0.045  20.220 -1.0661  0.0500 -0.2251
 2687TIP3    H232257   2.136   0.134  20.305  0.6248  0.7875  0.7956
 2688TIP3   OH232258   3.281   2.516  20.098  0.1084  0.1873 -0.1121
 2688TIP3    H132259   3.228   2.586  20.060 -0.9457 -0.3520  0.2998
 2688TIP3    H232260   3.224   2.477  20.165  1.0338 -0.4243  0.3441
 2689TIP3   OH232261   4.502   5.164  18.164 -0.1487  0.2848  0.3813
 2689TIP3    H132262   4.432   5.197  18.108 -0.3053  0.9860  0.9691
 2689TIP3    H232263   4.498   5.220  18.242 -1.7987 -2.4069  2.3902
 2690TIP3   OH232264   1.315   6.058  21.100 -0.5727  0.1939 -0.5565
 2690TIP3    H132265   1.284   6.070  21.190  0.5202 -2.4529  0.2759
 2690TIP3    H232266   1.256   6.111  21.047 -3.0281 -0.2955  1.4715
 2691TIP3   OH232267   1.976   5.175  17.329  0.1599  0.0899 -0.3935
 2691TIP3    H132268   1.884   5.157  17.306 -0.5275 -0.3122  2.3901
 2691TIP3    H232269   1.986   5.269  17.312 -0.7719  0.1416 -0.7245
 2692TIP3   OH232270   2.946   4.897  18.301 -0.3375  0.2098 -0.2879
 2692TIP3    H132271   2.973   4.952  18.227  1.0480 -1.5335 -1.1728
 2692TIP3    H232272   2.854   4.879  18.285 -0.6220  1.6657 -0.3649
 2693TIP3   OH232273   6.563   5.651  18.725 -0.1038  0.6253  0.7404
 2693TIP3    H132274   6.584   5.717  18.659 -1.0564  1.0012  0.7959
 2693TIP3    H232275   6.526   5.578  18.675 -1.3418  1.1273  0.8719
 2694TIP3   OH232276   2.375   6.723  17.595 -0.4913  0.2146  0.6113
 2694TIP3    H132277   2.455   6.693  17.550 -0.3209 -0.4722  1.3500
 2694TIP3    H232278   2.399   6.808  17.632 -0.2607  0.2436  0.4012
 2695TIP3   OH232279   3.657   6.494  18.814 -0.3776  0.6187 -0.8377
 2695TIP3    H132280   3.692   6.410  18.842  1.3850  0.3061 -3.6063
 2695TIP3    H232281   3.568   6.474  18.783  0.0863 -0.3099 -1.6307
 2696TIP3   OH232282   0.411   0.317  19.570  0.3222  0.3996 -0.0329
 2696TIP3    H132283   0.362   0.388  19.529 -0.7382  0.0001  0.5014
 2696TIP3    H232284   0.420   0.344  19.661  1.1932  0.5105 -0.1443
 2697TIP3   OH232285   2.055   0.039  19.287  0.0928  0.8478 -0.3214
 2697TIP3    H132286   2.130  -0.020  19.273  0.1835  0.7673  0.4573
 2697TIP3    H232287   1.982  -0.005  19.245  0.3883  0.7044 -0.6940
 2698TIP3   OH232288   1.952   2.252  19.078  0.3362  0.2397  0.5799
 2698TIP3    H132289   1.924   2.182  19.019 -0.8228 -0.2571  1.6855
 2698TIP3    H232290   1.883   2.257  19.144 -0.5879  3.6731 -0.4389
 2699TIP3   OH232291   1.387   1.357  19.284 -0.2343  0.2095 -0.5907
 2699TIP3    H132292   1.473   1.317  19.292 -0.8389 -0.9140  0.7478
 2699TIP3    H232293   1.405   1.451  19.274  1.1263  0.0901  0.4897
 2700TIP3   OH232294   5.926   0.155  20.104 -0.4650  0.2511 -0.1974
 2700TIP3    H132295   6.012   0.178  20.139 -0.9581  2.0652 -0.0750
 2700TIP3    H232296   5.891   0.093  20.168  0.4719  0.0165  0.1110
 2701TIP3   OH232297   4.073   1.952  17.194 -0.2770  0.0952  0.3912
 2701TIP3    H132298   3.998   1.893  17.193 -0.2242 -0.0115 -1.7779
 2701TIP3    H232299   4.036   2.038  17.171  0.2566 -0.0221 -1.0260
 2702TIP3   OH232300   5.054   0.570  18.292  0.1268  0.2517 -0.5015
 2702TIP3    H132301   4.978   0.625  18.314  0.5128  0.3272  0.6970
 2702TIP3    H232302   5.108   0.627  18.237 -1.2071 -0.1928 -2.3802
 2703TIP3   OH232303   5.127   4.664  17.452  0.3657  0.3734  1.0182
 2703TIP3    H132304   5.045   4.643  17.406  2.1326  1.0396 -2.7726
 2703TIP3    H232305   5.127   4.759  17.460  1.8597  0.6408 -1.4545
 2704TIP3   OH232306   5.461   5.394  19.136  0.6156 -0.4448 -0.1816
 2704TIP3    H132307   5.390   5.334  19.115 -0.6242  0.8174  0.2490
 2704TIP3    H232308   5.511   5.402  19.055  0.0448 -1.0570 -0.6037
 2705TIP3   OH232309   1.353   2.227  20.671 -0.1756  0.0766  0.1265
 2705TIP3    H132310   1.290   2.261  20.735  0.0916 -2.4092  1.8278
 2705TIP3    H232311   1.438   2.233  20.716  0.0274 -1.6334  0.0228
 2706TIP3   OH232312   3.494   4.586  18.456  0.3639  0.0263 -0.7069
 2706TIP3    H132313   3.527   4.631  18.377  1.6804 -2.0908 -1.4476
 2706TIP3    H232314   3.573   4.570  18.509 -0.4619  1.1109  0.9323
 2707TIP3   OH232315   2.750   1.643  19.359  0.1031  0.0041  0.5413
 2707TIP3    H132316   2.714   1.609  19.441 -0.6376  1.1511  0.7179
 2707TIP3    H232317   2.719   1.734  19.355  0.9266  0.2611 -0.5399
 2708TIP3   OH232318   2.163   2.105  19.900 -0.3374 -0.3690  0.1242
 2708TIP3    H132319   2.233   2.051  19.936 -1.4027 -0.5563  2.0454
 2708TIP3    H232320   2.176   2.191  19.938 -0.6931 -0.1935 -0.1396
 2709TIP3   OH232321   1.999   0.886  18.413 -0.1967 -0.2180  0.9414
 2709TIP3    H132322   1.967   0.967  18.374 -1.1218 -1.1619 -0.3575
 2709TIP3    H232323   1.936   0.864  18.482 -1.3428 -1.0625 -0.3250
 2710TIP3   OH232324   4.655   1.586  20.509  0.7117  0.2227 -0.5808
 2710TIP3    H132325   4.743   1.589  20.547  0.3416  3.5941  0.2647
 2710TIP3    H232326   4.668   1.593  20.415  1.3699  1.6639 -0.4029
 2711TIP3   OH232327   5.149   3.919  18.257 -0.7014  0.1894  0.7454
 2711TIP3    H132328   5.132   4.011  18.235  2.2476  0.8038  0.6377
 2711TIP3    H232329   5.216   3.922  18.325 -0.0612 -1.8655  0.2859
 2712TIP3   OH232330   0.016   5.716  18.893  0.1123 -0.0636  0.1059
 2712TIP3    H132331  -0.068   5.682  18.860  0.0434 -0.2654  0.4851
 2712TIP3    H232332   0.082   5.668  18.843  0.0102  0.7776 -0.8805
 2713TIP3   OH232333   5.896   3.575  20.630 -0.0530 -0.6075 -0.1170
 2713TIP3    H132334   5.873   3.485  20.652 -1.8406 -0.2891 -0.5366
 2713TIP3    H232335   5.937   3.568  20.544 -1.5918 -0.8952 -0.8637
 2714TIP3   OH232336   0.872   0.909  19.673 -0.4913  0.1062  0.2493
 2714TIP3    H132337   0.829   0.984  19.633 -0.9991  0.0030  0.5991
 2714TIP3    H232338   0.934   0.947  19.736  0.4808  0.2774 -0.7753
 2715TIP3   OH232339   4.190   0.433  19.998 -0.0628  0.1826 -0.2881
 2715TIP3    H132340   4.216   0.524  19.988  0.7782 -0.1850 -1.9914
 2715TIP3    H232341   4.271   0.384  19.989 -0.4499 -0.7407  0.9670
 2716TIP3   OH232342   0.463   3.536  17.766 -0.0456  0.3572  0.2762
 2716TIP3    H132343   0.447   3.446  17.792  1.2729  0.1977  0.5815
 2716TIP3    H232344   0.428   3.543  17.677 -0.5674 -0.3202  0.4274
 2717TIP3   OH232345   5.899   0.319  19.883 -0.2954 -0.5574  0.3084
 2717TIP3    H132346   5.848   0.396  19.907  0.5450  0.1531 -0.1535
 2717TIP3    H232347   5.924   0.280  19.967 -0.6126 -0.2631  0.5426
 2718TIP3   OH232348   2.703   4.768  20.349  0.6413  0.1419 -0.0523
 2718TIP3    H132349   2.767   4.702  20.375 -0.4195 -0.3350  1.5069
 2718TIP3    H232350   2.683   4.748  20.258  0.3863 -1.6892  0.3698
 2719TIP3   OH232351   1.475   0.975  19.486  0.3095  0.0329  0.3191
 2719TIP3    H132352   1.384   0.980  19.515  0.2849  0.1021  0.2277
 2719TIP3    H232353   1.476   0.903  19.423  0.2659  0.2062  0.1217
 2720TIP3   OH232354   3.637   5.213  18.792 -0.7113 -0.4396 -0.4889
 2720TIP3    H132355   3.571   5.221  18.723  1.3328  0.0419 -2.5193
 2720TIP3    H232356   3.611   5.277  18.858 -1.4904  0.7467 -1.9012
 2721TIP3   OH232357   4.083   3.458  19.192  0.1704  0.1996 -0.1890
 2721TIP3    H132358   4.062   3.551  19.180  0.3180  0.1035 -1.2548
 2721TIP3    H232359   4.038   3.435  19.273 -0.6626  0.9686 -0.4051
 2722TIP3   OH232360   3.390   5.673  16.704 -0.6982 -0.0277 -0.6061
 2722TIP3    H132361   3.423   5.763  16.708 -1.2143  0.1423 -0.0238
 2722TIP3    H232362   3.308   5.676  16.753 -0.2459 -1.0237  0.2304
 2723TIP3   OH232363   1.664   5.937  20.303 -0.1281  0.5350  0.3110
 2723TIP3    H132364   1.692   6.011  20.357  0.1990  0.6421 -0.0001
 2723TIP3    H232365   1.586   5.968  20.258 -0.1072  0.6231  0.3338
 2724TIP3   OH232366   6.416   0.776  19.305 -0.3184 -0.2501  0.7501
 2724TIP3    H132367   6.411   0.809  19.215  1.3124 -3.1664 -0.5404
 2724TIP3    H232368   6.334   0.803  19.345 -2.0304 -0.5638 -2.2619
 2725TIP3   OH232369   3.973   3.873  20.186  0.0645  0.5034 -0.1727
 2725TIP3    H132370   4.014   3.824  20.115  1.3264 -0.6790  1.2934
 2725TIP3    H232371   3.879   3.854  20.176  0.3562 -0.8135 -0.7036
 2726TIP3   OH232372   3.748   3.004  20.791  0.0926  0.2262  0.4009
 2726TIP3    H132373   3.689   3.010  20.866  0.7347  1.0717  0.8471
 2726TIP3    H232374   3.815   3.070  20.807 -0.0700  0.8369 -1.2083
 2727TIP3   OH232375   1.824   1.377  18.576 -0.3804 -0.1731  0.0452
 2727TIP3    H132376   1.771   1.456  18.575  0.3449  0.3577  1.0249
 2727TIP3    H232377   1.796   1.330  18.655  0.2670 -0.1082  0.3242
 2728TIP3   OH232378   4.507   6.617  17.888  0.0101  0.1107  0.2318
 2728TIP3    H132379   4.469   6.597  17.803  0.0791  0.7863  0.0316
 2728TIP3    H232380   4.432   6.622  17.947 -0.0434 -0.3017  0.1996
 2729TIP3   OH232381   4.675   1.191  20.586  0.0655  0.0140  0.1516
 2729TIP3    H132382   4.672   1.099  20.558 -0.3945  0.3733 -1.0457
 2729TIP3    H232383   4.590   1.206  20.628 -1.3886  0.8107 -2.8273
 2730TIP3   OH232384   6.666   6.172  20.329  0.0682  0.0012  0.0540
 2730TIP3    H132385   6.758   6.148  20.337  0.1426  0.5693  1.0515
 2730TIP3    H232386   6.663   6.227  20.250  0.2349 -1.5333 -1.0603
 2731TIP3   OH232387   4.730   6.347  19.106  0.0179 -0.6519 -0.0959
 2731TIP3    H132388   4.741   6.308  19.020  1.8658 -0.7331  0.1352
 2731TIP3    H232389   4.753   6.277  19.167 -0.8470 -0.4659  0.4664
 2732TIP3   OH232390   6.105   5.516  19.773 -0.2346  0.3496  0.2576
 2732TIP3    H132391   6.088   5.523  19.867  0.5150  1.6852  0.3148
 2732TIP3    H232392   6.096   5.605  19.740  1.8870  0.3433 -0.4966
 2733TIP3   OH232393   3.437   2.782  19.644  0.7385  0.6728  0.5305
 2733TIP3    H132394   3.454   2.867  19.683 -1.8077  0.7281  1.7841
 2733TIP3    H232395   3.358   2.751  19.689  0.2265 -1.2973 -1.5292
 2734TIP3   OH232396   1.153   5.403  19.106 -0.3416  0.5371 -0.5971
 2734TIP3    H132397   1.171   5.465  19.176 -1.1284  0.1337 -0.0354
 2734TIP3    H232398   1.210   5.431  19.034  0.7342  0.7398  0.3142
 2735TIP3   OH232399   6.352   6.302  18.697 -0.2291 -0.5723 -0.3754
 2735TIP3    H132400   6.289   6.263  18.637 -0.6874  0.7841 -0.8201
 2735TIP3    H232401   6.429   6.246  18.692 -0.4516 -0.7750 -1.8463
 2736TIP3   OH232402   3.884   4.404  17.943  0.4877 -0.1800 -0.7297
 2736TIP3    H132403   3.930   4.337  17.994 -0.9181  0.2143  1.1529
 2736TIP3    H232404   3.940   4.481  17.951  0.8639 -0.4434 -0.7848
 2737TIP3   OH232405   4.693   4.418  18.710  0.0114 -0.1209  0.8071
 2737TIP3    H132406   4.665   4.447  18.797 -0.3953 -0.7373  0.8850
 2737TIP3    H232407   4.737   4.335  18.725  0.5867  0.1189  0.5020
 2738TIP3   OH232408   1.885   3.360  20.405 -0.0259  0.3667 -0.0472
 2738TIP3    H132409   1.942   3.428  20.441 -1.0142  0.6656  1.0367
 2738TIP3    H232410   1.798   3.400  20.404 -0.5702 -0.7594  0.3083
 2739TIP3   OH232411   0.274   5.509  20.052  0.2640  0.8621  0.0798
 2739TIP3    H132412   0.183   5.536  20.054 -0.7331 -1.9651 -1.6222
 2739TIP3    H232413   0.307   5.542  19.969  0.0219 -0.2694 -0.4717
 2740TIP3   OH232414   3.826   1.412  17.976  0.6315  0.1299  0.0196
 2740TIP3    H132415   3.909   1.408  18.023  1.0404  0.8296 -0.6138
 2740TIP3    H232416   3.822   1.329  17.927  0.5897 -0.2370  0.6386
 2741TIP3   OH232417   2.699   2.711  20.421  0.1917 -0.2303 -0.5530
 2741TIP3    H132418   2.729   2.692  20.510  0.2989  0.8601 -0.3401
 2741TIP3    H232419   2.779   2.724  20.371  0.1202  0.2804 -0.5415
 2742TIP3   OH232420   4.983   4.529  19.630 -0.2464  0.2581 -0.4856
 2742TIP3    H132421   4.981   4.525  19.535  2.5077  1.5744 -0.6970
 2742TIP3    H232422   5.008   4.619  19.650 -4.0299  1.0308  1.6834
 2743TIP3   OH232423   1.620   4.579  18.439 -0.7686  0.1605 -0.6366
 2743TIP3    H132424   1.673   4.622  18.372  0.0704  0.6043  0.2820
 2743TIP3    H232425   1.531   4.580  18.405 -0.5607  1.5151 -1.1822
 2744TIP3   OH232426   3.085   4.898  20.501 -0.0573 -0.3389  0.1552
 2744TIP3    H132427   3.025   4.967  20.471  0.9154  0.4051 -0.1116
 2744TIP3    H232428   3.045   4.817  20.469 -1.1437  0.1041  0.3495
 2745TIP3   OH232429   3.882   3.959  19.726 -0.2191 -0.0819 -0.3076
 2745TIP3    H132430   3.932   4.000  19.796 -0.9533  0.0342  0.1617
 2745TIP3    H232431   3.932   3.880  19.704 -0.1497 -0.2930  0.5749
 2746TIP3   OH232432   4.278   2.047  19.509 -0.4517 -0.0292  0.2277
 2746TIP3    H132433   4.205   2.105  19.488 -1.3625 -0.5373  1.8203
 2746TIP3    H232434   4.356   2.102  19.500 -1.0117  0.5452 -1.4237
 2747TIP3   OH232435   6.588   2.062  19.446  0.5000  0.1108 -1.0005
 2747TIP3    H132436   6.635   2.047  19.528  0.7634  0.5939 -1.0633
 2747TIP3    H232437   6.504   2.018  19.458  1.1677 -1.2392 -1.0923
 2748TIP3   OH232438   3.772   2.174  17.361  0.2939 -0.0957  0.1904
 2748TIP3    H132439   3.676   2.174  17.354  0.3260  0.5690 -0.4820
 2748TIP3    H232440   3.791   2.226  17.439  0.1001 -0.5785  0.5625
 2749TIP3   OH232441   3.822   2.760  19.775  0.4022 -0.0507  0.1458
 2749TIP3    H132442   3.857   2.836  19.728 -0.7967  0.0455 -0.6193
 2749TIP3    H232443   3.845   2.685  19.720  2.2955 -0.3869  1.2914
 2750TIP3   OH232444   4.282   4.177  20.002  0.0032 -0.3296 -0.0115
 2750TIP3    H132445   4.366   4.146  20.035  0.5693 -0.3866 -1.4396
 2750TIP3    H232446   4.263   4.254  20.054  2.2539  1.2526 -1.3599
 2751TIP3   OH232447   4.207   2.094  20.058  0.5054  0.2228  0.0240
 2751TIP3    H132448   4.285   2.049  20.025  1.1466  0.9841  0.4606
 2751TIP3    H232449   4.234   2.130  20.142 -0.6523 -0.4080  0.6989
 2752TIP3   OH232450   3.462   5.994  19.022  0.0876 -0.3963  0.3359
 2752TIP3    H132451   3.484   6.021  18.933  1.5798 -0.0459  0.7821
 2752TIP3    H232452   3.402   5.920  19.011  1.3741 -1.3025 -0.9921
 2753TIP3   OH232453   5.617   0.565  18.069 -0.1399 -0.0378 -0.6042
 2753TIP3    H132454   5.660   0.538  17.988 -0.8309  0.0594 -1.0050
 2753TIP3    H232455   5.681   0.544  18.137  0.7505  0.5729 -1.2352
 2754TIP3   OH232456   4.407   5.044  19.167  0.1899  0.7176  0.1518
 2754TIP3    H132457   4.451   4.982  19.109 -0.8638 -0.4649  0.5614
 2754TIP3    H232458   4.335   4.993  19.205 -0.3908  2.0644  0.8985
 2755TIP3   OH232459   0.934   5.530  20.387  0.2387 -0.3054  0.1070
 2755TIP3    H132460   0.897   5.539  20.475  1.5674 -0.6190  0.7289
 2755TIP3    H232461   0.876   5.581  20.331  0.3505  1.3955  1.4505
 2756TIP3   OH232462   6.019   0.761  20.460 -0.1964 -0.5492 -0.8596
 2756TIP3    H132463   5.967   0.841  20.468 -0.4300 -0.6942 -0.9176
 2756TIP3    H232464   5.988   0.721  20.378  2.9660  1.5319 -3.3102
 2757TIP3   OH232465   4.949   2.683  19.543  0.1830 -0.0502  0.2709
 2757TIP3    H132466   4.995   2.763  19.518  0.9351 -0.4810  0.2199
 2757TIP3    H232467   5.009   2.640  19.605  0.1970 -0.9994 -0.3808
 2758TIP3   OH232468   5.886   5.968  20.512  0.4920  0.8137 -0.3097
 2758TIP3    H132469   5.890   5.874  20.493 -0.5642  0.5279  0.7569
 2758TIP3    H232470   5.821   6.002  20.450 -1.0242  0.3480  0.9565
 2759TIP3   OH232471   4.274   2.874  20.543  0.4641 -0.2971 -0.0195
 2759TIP3    H132472   4.200   2.917  20.586  1.7202  0.5294  1.4122
 2759TIP3    H232473   4.240   2.847  20.457 -1.3918  0.3027  0.4868
 2760TIP3   OH232474   6.319   3.878  18.171  0.4750  0.0593 -0.2306
 2760TIP3    H132475   6.296   3.963  18.208  0.4306  0.2900 -0.7777
 2760TIP3    H232476   6.306   3.888  18.077  0.7812 -0.4537 -0.3349
 2761TIP3   OH232477   4.942   0.080  16.941 -0.3416  0.0143 -0.5118
 2761TIP3    H132478   4.955   0.008  17.003  0.6080  0.4830 -0.1398
 2761TIP3    H232479   4.847   0.084  16.928 -0.5659 -0.1127  0.9100
 2762TIP3   OH232480   0.310   5.759  18.434 -0.3630 -0.0078  0.5356
 2762TIP3    H132481   0.296   5.726  18.345  2.2094  1.2253 -0.4040
 2762TIP3    H232482   0.296   5.853  18.427 -1.2548 -0.0304  1.7353
 2763TIP3   OH232483   4.870   0.095  20.627  0.9326  0.5098  0.0621
 2763TIP3    H132484   4.855   0.046  20.547 -0.5310  0.6123  0.2533
 2763TIP3    H232485   4.910   0.032  20.687  0.8874  0.0970 -0.3368
 2764TIP3   OH232486   3.280   0.225  17.415  0.5517  0.1899 -0.2627
 2764TIP3    H132487   3.268   0.286  17.343 -1.0279 -1.3748 -1.4262
 2764TIP3    H232488   3.373   0.204  17.414  0.4815 -0.2495 -2.2968
 2765TIP3   OH232489   1.747   0.216  19.437 -0.1880  0.2925 -0.2670
 2765TIP3    H132490   1.789   0.262  19.364  2.4392 -0.7384  0.5009
 2765TIP3    H232491   1.756   0.275  19.512  2.1018 -0.8438  0.4343
 2766TIP3   OH232492   6.025   0.987  19.991  0.0215  0.4497 -0.0320
 2766TIP3    H132493   6.068   0.928  20.053  0.3171  0.5148 -0.1739
 2766TIP3    H232494   6.061   0.963  19.906 -0.0451  0.6661 -0.1213
 2767TIP3   OH232495   5.007   1.777  18.549 -0.3003  0.0318 -0.0132
 2767TIP3    H132496   4.955   1.740  18.620 -0.5340  1.0232  0.3572
 2767TIP3    H232497   5.080   1.716  18.538 -0.2090 -0.0951  1.1489
 2768TIP3   OH232498   2.205   2.668  18.620  0.1591 -0.0855 -0.5703
 2768TIP3    H132499   2.216   2.745  18.675  1.5238 -0.2796 -0.5512
 2768TIP3    H232500   2.219   2.594  18.679 -3.6988 -0.5499  0.0673
 2769TIP3   OH232501   4.940   2.267  19.746  0.4232 -0.3338  0.1512
 2769TIP3    H132502   4.966   2.189  19.795 -1.3401  0.1387  1.9837
 2769TIP3    H232503   4.984   2.339  19.791 -0.1492 -0.0205  0.2218
 2770TIP3   OH232504   6.722   2.276  20.455 -0.4428 -0.0448  0.6158
 2770TIP3    H132505   6.748   2.331  20.381 -1.9500  0.6815  0.5937
 2770TIP3    H232506   6.789   2.294  20.522  1.0901 -0.9112 -0.6086
 2771TIP3   OH232507   5.421   5.969  18.861 -0.1156  0.2448 -0.3244
 2771TIP3    H132508   5.465   5.889  18.835 -0.9801 -0.1650 -0.5527
 2771TIP3    H232509   5.369   5.994  18.784 -0.5256  0.5500  0.0479
 2772TIP3   OH232510   0.015   3.605  19.336  0.0980 -0.1742 -0.0001
 2772TIP3    H132511  -0.057   3.638  19.388  1.0534 -2.8842  3.4034
 2772TIP3    H232512  -0.016   3.611  19.245 -1.9774  4.0878  0.7442
 2773TIP3   OH232513   5.328   5.506  20.599  0.7524 -0.6918 -0.2340
 2773TIP3    H132514   5.394   5.444  20.629  1.0342 -0.3645 -0.1734
 2773TIP3    H232515   5.378   5.580  20.564  0.4513  0.1666  1.0526
 2774TIP3   OH232516   5.578   1.704  18.027  0.4759 -0.0007  0.1664
 2774TIP3    H132517   5.577   1.713  17.932 -0.7790 -1.1394  0.0413
 2774TIP3    H232518   5.507   1.642  18.046  1.6043 -0.8935  1.7197
 2775TIP3   OH232519   2.263   6.688  20.037 -0.2360  0.5291  0.3589
 2775TIP3    H132520   2.203   6.660  19.967  3.0670 -1.0070 -2.1275
 2775TIP3    H232521   2.285   6.779  20.014  0.1345  0.3315 -0.0793
 2776TIP3   OH232522   5.176   0.201  16.980 -0.5963  0.0968  0.0686
 2776TIP3    H132523   5.099   0.158  16.943 -0.3237 -0.6421  0.3268
 2776TIP3    H232524   5.191   0.155  17.063 -0.8846  1.3601  0.8526
 2777TIP3   OH232525   4.454   0.194  20.214  0.3139  0.6374 -0.0032
 2777TIP3    H132526   4.540   0.156  20.229 -0.4476 -0.8928  0.7656
 2777TIP3    H232527   4.466   0.256  20.142  1.7153 -0.7628 -1.0161
 2778TIP3   OH232528   4.068   4.516  19.730  0.0649  0.2973 -0.0520
 2778TIP3    H132529   4.021   4.475  19.658 -0.2531  0.3787  0.1094
 2778TIP3    H232530   4.160   4.515  19.702 -0.0525  0.2980 -0.4415
 2779TIP3   OH232531   6.606   0.924  19.541 -0.2744 -1.0647  0.3393
 2779TIP3    H132532   6.532   0.882  19.584 -0.4783  0.2579  1.3454
 2779TIP3    H232533   6.566   0.975  19.470 -0.0937 -2.0280 -0.4713
 2780TIP3   OH232534   2.463   1.711  20.292  0.2906 -0.2356 -0.1976
 2780TIP3    H132535   2.397   1.644  20.277 -0.9380  1.2983 -2.0429
 2780TIP3    H232536   2.532   1.665  20.340 -2.1976 -1.8259  2.1379
 2781TIP3   OH232537   2.067   4.792  20.359 -0.0186 -0.5274  0.0006
 2781TIP3    H132538   2.102   4.780  20.271 -1.3659 -0.6763 -0.5388
 2781TIP3    H232539   1.980   4.830  20.346 -0.7473 -1.6751  1.1891
 2782TIP3   OH232540   0.560   0.105  20.625 -0.1059 -0.1640  0.0574
 2782TIP3    H132541   0.553   0.200  20.612  1.7335  0.0646  0.3638
 2782TIP3    H232542   0.625   0.077  20.561 -0.7354 -1.2651 -0.1252
 2783TIP3   OH232543   0.157   4.675  19.686  0.3393  0.4674  0.1517
 2783TIP3    H132544   0.121   4.754  19.726  0.9906  0.3076  1.0759
 2783TIP3    H232545   0.093   4.651  19.618  0.6039  2.3127 -0.8129
 2784TIP3   OH232546   6.595   6.246  19.648 -0.1518  0.2683  0.0559
 2784TIP3    H132547   6.550   6.274  19.569  0.1350 -1.4016 -0.7526
 2784TIP3    H232548   6.683   6.222  19.619 -0.3855 -1.4296  0.6428
 2785TIP3   OH232549   5.387   2.146  18.908 -0.3536  0.1012  0.2665
 2785TIP3    H132550   5.424   2.184  18.828 -4.1026  0.3336 -1.5953
 2785TIP3    H232551   5.398   2.051  18.897  0.3541  0.1889  0.1648
 2786TIP3   OH232552   5.737   5.808  19.673  0.0743  0.5514 -0.1977
 2786TIP3    H132553   5.770   5.774  19.590  0.9952  0.8066  0.0635
 2786TIP3    H232554   5.712   5.729  19.722 -0.1438  0.3831 -0.5734
 2787TIP3   OH232555   2.108   3.568  18.518 -0.8342 -0.3849 -0.1838
 2787TIP3    H132556   2.082   3.647  18.470 -0.1290  0.5014  0.8338
 2787TIP3    H232557   2.060   3.497  18.475  0.1848  0.2512 -2.5675
 2788TIP3   OH232558   3.727   5.797  19.328  0.2459 -0.0214 -0.1662
 2788TIP3    H132559   3.736   5.796  19.232 -0.1941  0.1835 -0.2112
 2788TIP3    H232560   3.634   5.815  19.343  0.7150  2.1922  0.3301
 2789TIP3   OH232561   2.474   2.858  18.863  0.2924 -0.3361  0.3737
 2789TIP3    H132562   2.570   2.860  18.856  0.2493  0.4387 -0.1078
 2789TIP3    H232563   2.449   2.950  18.878 -0.3260 -0.6318  1.2216
 2790TIP3   OH232564   0.336   6.400  17.610  0.1457 -0.4228 -0.2702
 2790TIP3    H132565   0.378   6.469  17.661 -0.6332  0.4003 -0.7281
 2790TIP3    H232566   0.321   6.439  17.524 -1.1519 -0.8432 -0.2561
 2791TIP3   OH232567   0.270   1.278  19.460  1.1922  0.5068 -0.2152
 2791TIP3    H132568   0.218   1.198  19.462 -0.5636  1.6111  0.5730
 2791TIP3    H232569   0.359   1.248  19.445  0.2271 -1.3956 -2.9851
 2792TIP3   OH232570   2.666   1.046  20.611  0.3043  0.3151 -0.3507
 2792TIP3    H132571   2.656   1.010  20.523 -0.2120  1.1240 -0.6348
 2792TIP3    H232572   2.585   1.023  20.656  0.8516 -0.6970  0.1485
 2793TIP3   OH232573   1.928   0.851  19.256 -0.0856  0.8462 -0.3056
 2793TIP3    H132574   1.984   0.883  19.327  0.5274 -2.4650  0.8788
 2793TIP3    H232575   1.988   0.841  19.182  0.0636  0.8256 -0.1833
 2794TIP3   OH232576   2.574   5.599  18.247 -0.0123 -0.4808  0.1385
 2794TIP3    H132577   2.506   5.634  18.306  1.8763  0.8648  1.6436
 2794TIP3    H232578   2.555   5.640  18.163 -0.2308  1.0539  0.8999
 2795TIP3   OH232579   6.315   0.338  17.644  0.0617 -0.6761  0.4651
 2795TIP3    H132580   6.377   0.407  17.619 -1.4538  0.6424  0.1789
 2795TIP3    H232581   6.277   0.368  17.726 -2.0465 -0.1365 -0.6426
 2796TIP3   OH232582   2.283   5.163  19.081 -0.0576 -0.4394 -0.2959
 2796TIP3    H132583   2.243   5.103  19.017  0.6768 -1.7584  0.4332
 2796TIP3    H232584   2.209   5.203  19.126 -0.6326  1.0658 -2.3856
 2797TIP3   OH232585   0.170   5.153  19.544  0.0162 -0.0878 -0.3105
 2797TIP3    H132586   0.150   5.154  19.637 -1.5942 -1.0835 -0.6065
 2797TIP3    H232587   0.092   5.188  19.502  0.0211 -1.2565 -1.3621
 2798TIP3   OH232588   2.513   4.823  18.287 -0.0292  0.4680 -0.3909
 2798TIP3    H132589   2.427   4.820  18.330  0.7238  3.4411  1.6716
 2798TIP3    H232590   2.539   4.915  18.294  3.7445 -0.4851 -0.0474
 2799TIP3   OH232591   1.586   2.469  18.821 -0.2225 -0.4592 -0.0679
 2799TIP3    H132592   1.640   2.491  18.897 -1.4558 -1.2050  1.0655
 2799TIP3    H232593   1.572   2.375  18.828  1.2024 -0.9169 -2.3211
 2800TIP3   OH232594   3.942   5.674  20.535  0.2424  0.0071  0.8027
 2800TIP3    H132595   3.875   5.625  20.583  1.3966  0.3586  2.8746
 2800TIP3    H232596   3.892   5.725  20.471 -1.3511 -0.6059  1.4922
 2801TIP3   OH232597   3.555   1.933  18.482 -0.4738 -0.9371  0.4748
 2801TIP3    H132598   3.612   1.996  18.439 -1.9156 -0.0924 -0.2726
 2801TIP3    H232599   3.610   1.892  18.549  0.5633  0.9203  0.8115
 2802TIP3   OH232600   6.680   3.025  19.948  0.0968  0.1410 -0.7800
 2802TIP3    H132601   6.742   2.975  20.002 -0.8863  1.0384  1.2724
 2802TIP3    H232602   6.723   3.110  19.936 -0.9387  1.0075  1.2243
 2803TIP3   OH232603   6.110   3.927  17.349 -0.0605 -0.1701  0.3046
 2803TIP3    H132604   6.109   3.839  17.310 -0.9095 -0.4054  0.8334
 2803TIP3    H232605   6.070   3.983  17.283 -1.0434 -0.4814  0.6307
 2804TIP3   OH232606   1.628   1.988  19.778  0.3211  0.0734 -0.1942
 2804TIP3    H132607   1.622   2.078  19.811  0.3202 -0.1776  0.5033
 2804TIP3    H232608   1.567   1.938  19.833  1.2631 -0.5966  0.2776
 2805TIP3   OH232609   5.590   1.535  19.315  0.2189  0.1380  0.4510
 2805TIP3    H132610   5.547   1.620  19.306  0.4371  0.2771  0.7096
 2805TIP3    H232611   5.665   1.539  19.255  1.1351  0.7196  1.5899
 2806TIP3   OH232612   3.638   1.321  19.776 -0.8645 -0.4723  0.9957
 2806TIP3    H132613   3.721   1.274  19.779 -0.4352  0.1542 -0.3361
 2806TIP3    H232614   3.650   1.395  19.836  0.0759  0.3940 -0.2119
 2807TIP3   OH232615   5.962   3.637  20.040 -0.4021  0.7941 -0.0602
 2807TIP3    H132616   6.036   3.636  20.100  1.0961  1.0962 -1.8000
 2807TIP3    H232617   5.887   3.610  20.093  0.9685  0.3503  1.7377
 2808TIP3   OH232618   1.933   3.376  18.378  0.1266  0.8471 -0.1833
 2808TIP3    H132619   1.945   3.301  18.319 -1.9373 -0.6583  1.1681
 2808TIP3    H232620   1.839   3.395  18.373  0.6938  3.9006 -1.0378
 2809TIP3   OH232621   3.566   0.375  17.867  0.1771  0.5996  0.2874
 2809TIP3    H132622   3.566   0.424  17.949 -0.3088  0.1687  0.5477
 2809TIP3    H232623   3.616   0.296  17.885 -1.2195 -0.2485  0.6430
 2810TIP3   OH232624   5.066   5.715  19.234 -0.4607  0.2522 -0.5075
 2810TIP3    H132625   4.987   5.747  19.191 -0.4616 -0.9396 -1.4358
 2810TIP3    H232626   5.131   5.710  19.164  0.5664  1.5530  0.3094
 2811TIP3   OH232627   2.958   1.054  20.691 -0.0410  0.5235 -0.1592
 2811TIP3    H132628   2.943   0.966  20.726 -2.1068  1.7996  2.4814
 2811TIP3    H232629   2.874   1.080  20.654  1.1223  0.6738 -2.9747
 2812TIP3   OH232630   5.653   4.888  19.382  0.2889 -0.0240 -0.4749
 2812TIP3    H132631   5.576   4.834  19.401  1.3729 -1.1581  0.9053
 2812TIP3    H232632   5.703   4.888  19.463  1.2193  1.5996 -1.0090
 2813TIP3   OH232633   2.850   4.670  19.792 -0.2224  0.9890  0.0027
 2813TIP3    H132634   2.924   4.723  19.764 -0.7836  0.4328 -2.9124
 2813TIP3    H232635   2.777   4.699  19.736 -1.2875 -0.8205  0.3496
 2814TIP3   OH232636   4.628   0.719  16.717 -0.4848 -0.1263 -0.3783
 2814TIP3    H132637   4.697   0.699  16.780  0.0792  1.2146 -0.5337
 2814TIP3    H232638   4.646   0.663  16.642 -0.9549 -1.4804  0.4809
 2815TIP3   OH232639   4.004   0.413  16.603 -0.6156 -0.1256  0.6708
 2815TIP3    H132640   3.983   0.489  16.656  0.4920 -0.8106  2.1441
 2815TIP3    H232641   3.934   0.350  16.622 -0.6217 -0.1033  0.7202
 2816TIP3   OH232642   0.114   6.150  18.099  0.7128  0.4708 -0.5589
 2816TIP3    H132643   0.199   6.177  18.132  0.8800  0.8528 -1.2881
 2816TIP3    H232644   0.060   6.229  18.104  1.0435  0.8272 -2.1716
 2817TIP3   OH232645   1.118   4.041  19.757  0.0672  0.2315  0.1041
 2817TIP3    H132646   1.084   3.982  19.824  1.5801 -1.0503 -0.1792
 2817TIP3    H232647   1.164   4.109  19.807  1.5985 -0.9775  0.4151
 2818TIP3   OH232648   6.420   5.589  19.895 -0.5718 -0.0432 -0.0270
 2818TIP3    H132649   6.457   5.526  19.958  2.1396 -0.4597 -1.8481
 2818TIP3    H232650   6.445   5.554  19.809 -3.1089  1.1190 -1.3439
 2819TIP3   OH232651   6.298   2.912  20.182 -0.0762  0.0121  0.2008
 2819TIP3    H132652   6.271   2.990  20.135 -0.4144  1.4134  2.5231
 2819TIP3    H232653   6.370   2.942  20.238  1.2840 -1.8936 -0.4204
 2820TIP3   OH232654   6.289   0.859  20.525 -0.7036  0.4941  0.5383
 2820TIP3    H132655   6.203   0.828  20.496 -1.0443  0.9814  0.9981
 2820TIP3    H232656   6.307   0.934  20.469 -0.7206  0.5818  0.6512
 2821TIP3   OH232657   1.988   5.048  17.925 -0.3301 -0.0451  0.1616
 2821TIP3    H132658   2.084   5.050  17.933 -0.3536  2.5480  0.5593
 2821TIP3    H232659   1.971   5.071  17.834 -0.5367  2.2610  0.7081
 2822TIP3   OH232660   0.589   3.776  17.849  1.0584  0.3084  0.1047
 2822TIP3    H132661   0.550   3.694  17.820  1.3876 -0.3833  1.4889
 2822TIP3    H232662   0.564   3.841  17.783  1.4893 -1.0614 -1.4743
 2823TIP3   OH232663   4.961   6.223  18.895 -0.0276  0.1976 -0.4203
 2823TIP3    H132664   4.896   6.157  18.869  0.0893  0.4245 -1.3480
 2823TIP3    H232665   5.012   6.239  18.815  0.3433  0.9572 -0.0449
 2824TIP3   OH232666   4.989   4.267  20.448  0.0008 -0.1556 -0.1292
 2824TIP3    H132667   4.922   4.328  20.479  0.1870 -0.3467  0.6935
 2824TIP3    H232668   4.966   4.250  20.357 -1.1100 -0.2456  0.1421
 2825TIP3   OH232669   2.191   5.248  18.315  0.3958  0.1924  0.1493
 2825TIP3    H132670   2.127   5.274  18.249 -0.0685 -1.6365 -0.1712
 2825TIP3    H232671   2.213   5.330  18.360 -0.6667  1.1777 -1.0303
 2826TIP3   OH232672   2.095   5.274  19.813  0.2298  0.8895 -0.4349
 2826TIP3    H132673   2.054   5.333  19.750  0.0042  3.0365  1.5549
 2826TIP3    H232674   2.046   5.288  19.894  1.4959 -0.5413  0.6479
 2827TIP3   OH232675   1.145   3.811  20.472  0.1550  0.0760 -0.2527
 2827TIP3    H132676   1.090   3.763  20.535  1.7656 -1.1819  0.2956
 2827TIP3    H232677   1.176   3.743  20.412  0.1150  0.9665 -1.2987
 2828TIP3   OH232678   0.631   1.510  17.629 -0.1415 -0.1386 -0.2744
 2828TIP3    H132679   0.597   1.559  17.554  3.6371  0.5617 -1.7172
 2828TIP3    H232680   0.623   1.418  17.603  2.0478  0.1150 -2.1130
 2829TIP3   OH232681   2.146   4.675  17.340  0.5294 -0.0307  0.1908
 2829TIP3    H132682   2.113   4.763  17.359 -2.4166 -0.7635 -0.8519
 2829TIP3    H232683   2.168   4.677  17.247 -0.1095 -0.4887  0.0152
 2830TIP3   OH232684   2.418   1.396  18.519  0.0205 -0.2471 -0.0261
 2830TIP3    H132685   2.445   1.473  18.470  0.9072 -1.0645 -0.8771
 2830TIP3    H232686   2.385   1.336  18.452 -2.3669  0.0414  0.7902
 2831TIP3   OH232687   6.317   1.277  20.096  0.3444 -0.1160 -0.0206
 2831TIP3    H132688   6.366   1.301  20.018  0.5363  0.4302  0.2591
 2831TIP3    H232689   6.233   1.323  20.087  1.2083  1.8519  1.1510
 2832TIP3   OH232690   4.424   3.131  20.533 -0.8348  0.3600  0.5525
 2832TIP3    H132691   4.402   3.042  20.560  0.0237 -0.0582 -0.0739
 2832TIP3    H232692   4.351   3.157  20.477  0.6948 -1.5095 -2.6138
 2833TIP3   OH232693   5.656   0.206  19.970 -0.4044 -0.3592 -0.0198
 2833TIP3    H132694   5.719   0.147  19.929 -0.5094  0.4370 -1.3945
 2833TIP3    H232695   5.701   0.239  20.047  0.8527  0.1119 -0.9196
 2834TIP3   OH232696   2.208   2.435  20.229  0.5684  0.5798  0.0205
 2834TIP3    H132697   2.202   2.393  20.315 -0.7606  2.8283  1.1162
 2834TIP3    H232698   2.289   2.486  20.233  0.6462  0.4751 -0.1889
 2835TIP3   OH232699   1.525   6.680  19.981  0.4053  0.1138 -0.7154
 2835TIP3    H132700   1.588   6.625  19.935  0.0007 -0.9140 -0.0837
 2835TIP3    H232701   1.509   6.753  19.922  0.8443 -0.5267 -1.6475
 2836TIP3   OH232702   4.165   1.403  19.758 -0.3979 -0.0156 -0.4794
 2836TIP3    H132703   4.242   1.449  19.723  0.0063  0.3716  0.8655
 2836TIP3    H232704   4.099   1.472  19.768 -1.4869 -0.5805 -3.0144
 2837TIP3   OH232705   0.339   2.801  17.535 -0.0984 -0.2609  0.9795
 2837TIP3    H132706   0.431   2.821  17.518  0.4836 -2.6922  0.9687
 2837TIP3    H232707   0.293   2.883  17.514  2.0599  1.1316  1.3538
 2838TIP3   OH232708   3.774   6.095  16.988 -0.2927 -0.6067 -0.1751
 2838TIP3    H132709   3.793   6.008  17.024 -0.8645 -0.7353 -0.1735
 2838TIP3    H232710   3.805   6.092  16.898 -2.9713 -1.8462 -1.1735
 2839TIP3   OH232711   5.318   4.385  20.401 -0.0741  0.2127 -0.1885
 2839TIP3    H132712   5.398   4.332  20.398  0.7711  1.4547 -1.0484
 2839TIP3    H232713   5.258   4.337  20.458  1.6195 -0.3035  1.2328
 2840TIP3   OH232714   1.319   0.533  17.934  0.0226 -0.1592 -0.6551
 2840TIP3    H132715   1.406   0.501  17.909  0.0968  0.3037 -1.0147
 2840TIP3    H232716   1.262   0.457  17.924  0.4370 -0.5476 -0.1182
 2841TIP3   OH232717   3.762   4.686  17.772  0.2606  0.0123  0.3591
 2841TIP3    H132718   3.847   4.704  17.732  0.3198 -2.2237 -0.7047
 2841TIP3    H232719   3.698   4.727  17.713  0.5446  0.6593  0.5001
 2842TIP3   OH232720   2.866   5.271  18.462 -0.2888  0.2134 -0.2961
 2842TIP3    H132721   2.826   5.357  18.454 -2.4763 -0.7929 -1.0740
 2842TIP3    H232722   2.899   5.251  18.374 -0.4092 -0.0277 -0.2869
 2843TIP3   OH232723   4.288   3.163  18.099 -0.0497  0.1141  0.0305
 2843TIP3    H132724   4.363   3.208  18.136  0.4129  0.2892 -1.0890
 2843TIP3    H232725   4.316   3.072  18.091 -0.3435 -0.0339  0.5922
 2844TIP3   OH232726   2.122   5.748  20.677 -0.1339  0.4580 -0.3726
 2844TIP3    H132727   2.060   5.740  20.604  0.4062 -0.8243 -0.7332
 2844TIP3    H232728   2.191   5.685  20.656  0.5103  0.7478  0.7908
 2845TIP3   OH232729   0.103   3.224  18.784 -0.1444 -0.5049 -0.6960
 2845TIP3    H132730   0.132   3.188  18.700  1.4343 -1.0041  0.0249
 2845TIP3    H232731   0.035   3.288  18.761 -0.9161 -1.8171 -2.2132
 2846TIP3   OH232732   2.584   6.273  19.112  0.0842 -0.2216  0.4998
 2846TIP3    H132733   2.669   6.255  19.151  0.4475  1.5541  0.6204
 2846TIP3    H232734   2.598   6.265  19.018  0.2198 -0.5606  0.5491
 2847TIP3   OH232735   5.033   3.621  17.536 -0.5773  0.5226 -0.0134
 2847TIP3    H132736   5.104   3.561  17.562 -1.2190 -0.5764 -0.7064
 2847TIP3    H232737   5.053   3.644  17.446 -1.4823 -0.4068 -0.4739
 2848TIP3   OH232738   0.044   1.638  19.948  0.2886  0.1584 -0.0089
 2848TIP3    H132739   0.115   1.644  19.884 -0.2497 -2.0444 -0.9246
 2848TIP3    H232740   0.072   1.569  20.008 -1.1943 -1.0600 -0.6482
 2849TIP3   OH232741   2.035   1.871  17.885 -0.5935  0.4476  0.1647
 2849TIP3    H132742   2.044   1.838  17.795  2.3081 -0.2696  0.6270
 2849TIP3    H232743   1.983   1.951  17.876  1.2233  1.4699 -2.4400
 2850TIP3   OH232744   5.407   5.899  18.026 -0.4029 -0.5021  0.3285
 2850TIP3    H132745   5.404   5.847  18.107 -1.8694  0.4817  0.9483
 2850TIP3    H232746   5.493   5.941  18.027 -0.1699 -0.9879  1.0639
 2851TIP3   OH232747   3.970   4.817  18.267  0.1083  0.1036  0.2635
 2851TIP3    H132748   3.896   4.769  18.303 -1.6614  1.5956 -1.1956
 2851TIP3    H232749   4.009   4.758  18.203 -0.3695 -0.3808  0.4146
 2852TIP3   OH232750   5.916   5.708  19.469 -0.3408 -0.3379  0.1948
 2852TIP3    H132751   5.996   5.728  19.518  0.6764 -0.5545 -1.2937
 2852TIP3    H232752   5.920   5.614  19.452 -0.1624 -0.1330 -1.0673
 2853TIP3   OH232753   3.269   4.222  18.179  0.8184 -0.3111  0.5582
 2853TIP3    H132754   3.203   4.265  18.124  0.2456 -1.1477  0.5853
 2853TIP3    H232755   3.270   4.274  18.259 -0.0689 -0.4992  0.7005
 2854TIP3   OH232756   1.638   1.569  18.887  0.4158 -0.2117 -0.1906
 2854TIP3    H132757   1.700   1.527  18.946  0.0766  0.8104  0.9140
 2854TIP3    H232758   1.571   1.606  18.944 -0.0059  0.6756 -1.2239
 2855TIP3   OH232759   6.506   0.484  17.217 -0.4200  0.0260 -0.5036
 2855TIP3    H132760   6.523   0.392  17.194  0.3483  0.0381 -0.0048
 2855TIP3    H232761   6.474   0.522  17.135  1.8049 -0.0528 -1.5140
 2856TIP3   OH232762   5.429   5.602  19.556 -0.5321 -0.1250 -0.2967
 2856TIP3    H132763   5.370   5.531  19.581  0.1312 -0.8607 -0.7771
 2856TIP3    H232764   5.392   5.636  19.475  0.0716 -1.0678 -0.9971
 2857TIP3   OH232765   0.644   2.252  18.392  0.0845 -0.1678  0.4025
 2857TIP3    H132766   0.645   2.157  18.405 -3.6469 -0.4407  0.0348
 2857TIP3    H232767   0.677   2.288  18.475  0.7471 -1.7775  0.8794
 2858TIP3   OH232768   4.467   2.430  20.838  0.1708 -0.2192 -0.3487
 2858TIP3    H132769   4.449   2.515  20.798  1.9993  0.3998  0.0508
 2858TIP3    H232770   4.383   2.402  20.873 -1.1408  0.0111 -3.0298
 2859TIP3   OH232771   3.654   4.004  19.346  0.3132 -0.8483  0.1515
 2859TIP3    H132772   3.565   3.972  19.332 -0.8275  2.5122 -1.3159
 2859TIP3    H232773   3.652   4.045  19.432 -0.7392  2.2585 -1.2070
 2860TIP3   OH232774   4.760   4.745  18.632  0.4078  0.1215 -0.0034
 2860TIP3    H132775   4.763   4.836  18.664 -0.2916  0.8511 -1.8606
 2860TIP3    H232776   4.667   4.723  18.632  0.4228  0.0158 -1.1270
 2861TIP3   OH232777   5.348   5.769  19.813  0.3638  0.0847 -0.1165
 2861TIP3    H132778   5.385   5.752  19.726 -1.9648  1.5451 -1.5142
 2861TIP3    H232779   5.284   5.838  19.798  0.6625  1.1971  3.0114
 2862TIP3   OH232780   6.239   6.551  18.843 -0.4867 -0.5913  0.3977
 2862TIP3    H132781   6.296   6.508  18.906  2.1617 -0.1953 -1.5838
 2862TIP3    H232782   6.261   6.644  18.851 -0.5120 -0.4793 -0.7002
 2863TIP3   OH232783   2.269   4.732  17.080 -0.4768  0.3199  0.3435
 2863TIP3    H132784   2.284   4.767  16.992  2.3060  1.2247  1.0891
 2863TIP3    H232785   2.286   4.639  17.072 -1.3558  0.1943 -0.2688
 2864TIP3   OH232786   1.647   3.697  19.184 -0.6262  0.1210  0.5595
 2864TIP3    H132787   1.694   3.768  19.141  0.2793 -0.8950 -0.1936
 2864TIP3    H232788   1.680   3.698  19.274 -0.5444  0.5784  0.5295
 2865TIP3   OH232789   0.789   4.010  18.866 -0.4989 -0.1207  0.1094
 2865TIP3    H132790   0.760   3.942  18.927 -1.1098 -0.9380 -1.0528
 2865TIP3    H232791   0.709   4.044  18.827 -0.1032 -1.9709 -2.6736
 2866TIP3   OH232792   1.782   2.514  20.495  0.0538 -0.0866 -0.6510
 2866TIP3    H132793   1.726   2.446  20.459 -0.5038  0.7100 -1.2994
 2866TIP3    H232794   1.842   2.536  20.424  0.0483  0.2985 -0.5397
 2867TIP3   OH232795   5.811   5.862  19.259 -0.4380  0.5814  0.2536
 2867TIP3    H132796   5.745   5.926  19.287 -0.8676  0.0343  0.4977
 2867TIP3    H232797   5.814   5.797  19.329 -1.3030 -0.6425 -0.7932
 2868TIP3   OH232798   3.380   6.540  18.947 -0.2803 -0.4365  0.3206
 2868TIP3    H132799   3.362   6.498  19.031 -0.6962  1.1791  1.0716
 2868TIP3    H232800   3.301   6.525  18.895  0.2576 -2.0580 -0.0732
 2869TIP3   OH232801   5.699   4.292  19.945 -0.7111  0.2540  0.1555
 2869TIP3    H132802   5.771   4.321  20.001 -0.3749  0.8231 -0.5548
 2869TIP3    H232803   5.631   4.263  20.006 -0.1045  0.2513  0.8410
 2870TIP3   OH232804   6.005   3.941  18.984  0.4884 -0.0553 -0.0071
 2870TIP3    H132805   5.974   4.014  19.038  1.7044  0.1879  0.3935
 2870TIP3    H232806   6.067   3.981  18.924  1.8468 -0.8624  0.7973
 2871TIP3   OH232807   6.326   5.088  19.463  0.2570  1.1252 -0.8142
 2871TIP3    H132808   6.356   5.095  19.372  0.1642  1.4198 -0.8240
 2871TIP3    H232809   6.236   5.055  19.455 -0.0800  2.0194 -0.8807
 2872TIP3   OH232810   2.147   4.291  17.001  0.2157  0.4645 -0.0540
 2872TIP3    H132811   2.128   4.300  17.095  1.9176 -1.0448  0.5103
 2872TIP3    H232812   2.062   4.272  16.961 -0.3653 -0.1110  1.3776
 2873TIP3   OH232813   1.391   5.566  19.928  0.1966 -0.2639 -0.0255
 2873TIP3    H132814   1.411   5.590  20.018  0.5211 -0.0454 -0.1506
 2873TIP3    H232815   1.444   5.626  19.875  1.0651 -1.2848 -0.3580
 2874TIP3   OH232816   0.899   5.440  18.277 -0.3093  0.0737 -0.2502
 2874TIP3    H132817   0.885   5.518  18.330  0.2814 -0.3704  0.5884
 2874TIP3    H232818   0.917   5.371  18.341  2.5418 -0.0534 -1.0666
 2875TIP3   OH232819   5.904   2.984  18.132  0.3757  0.3813 -0.2764
 2875TIP3    H132820   5.907   2.919  18.062 -1.7787 -0.1097  0.0450
 2875TIP3    H232821   5.980   3.040  18.115  1.8217 -1.6952 -1.0385
 2876TIP3   OH232822   2.054   3.119  19.426 -0.1788 -0.0928 -0.3919
 2876TIP3    H132823   1.972   3.074  19.449  1.0066 -2.4994 -0.5040
 2876TIP3    H232824   2.082   3.077  19.344  0.1565  2.1270 -1.4725
 2877TIP3   OH232825   2.476   1.284  17.051 -0.6663  0.2667 -0.0226
 2877TIP3    H132826   2.563   1.324  17.058 -0.6348 -0.1196  2.3546
 2877TIP3    H232827   2.490   1.209  16.992  0.4050  0.6825 -0.3338
 2878TIP3   OH232828   4.537   5.235  16.856  0.4879 -0.3654 -0.2266
 2878TIP3    H132829   4.530   5.287  16.776 -0.8242  1.6942  1.1258
 2878TIP3    H232830   4.468   5.269  16.913  1.4107 -1.6987  1.8211
 2879TIP3   OH232831   0.268   0.778  19.960  0.2712  0.1777  0.2819
 2879TIP3    H132832   0.330   0.841  19.997 -0.9971  2.6788 -1.5487
 2879TIP3    H232833   0.183   0.809  19.989 -0.3709 -0.9860 -0.3041
 2880TIP3   OH232834   1.519   6.209  19.889  0.2480 -0.2586  0.2183
 2880TIP3    H132835   1.459   6.145  19.927 -0.2159 -0.5912 -1.0299
 2880TIP3    H232836   1.517   6.191  19.795 -0.3187  1.9305 -0.2458
 2881TIP3   OH232837   0.563   0.441  17.822 -0.3246  0.0186 -0.6051
 2881TIP3    H132838   0.560   0.360  17.771  0.0467 -0.1927 -0.2946
 2881TIP3    H232839   0.650   0.477  17.806 -0.1279 -0.1598  0.0484
 2882TIP3   OH232840   3.437   3.323  19.618  0.3404 -0.2101 -1.1041
 2882TIP3    H132841   3.462   3.404  19.663 -0.9009  0.9957 -2.4642
 2882TIP3    H232842   3.349   3.340  19.585 -0.1564 -2.3291 -1.0105
 2883TIP3   OH232843   3.912   3.201  18.679 -0.1234  0.1759  0.0373
 2883TIP3    H132844   3.822   3.175  18.659 -0.3749  0.7010  0.4775
 2883TIP3    H232845   3.959   3.189  18.596 -0.5205 -0.4050 -0.1149
 2884TIP3   OH232846   1.161   2.429  18.261  0.2846 -0.4572  0.0779
 2884TIP3    H132847   1.147   2.336  18.282  1.2195 -0.2058  2.0742
 2884TIP3    H232848   1.236   2.429  18.201 -0.1701 -1.0225 -0.5027
 2885TIP3   OH232849   4.941   4.330  20.933  0.1879  0.3559  0.0387
 2885TIP3    H132850   4.911   4.389  21.002  0.3443 -0.4598  0.8285
 2885TIP3    H232851   4.865   4.316  20.877  0.4360  2.1686 -0.8242
 2886TIP3   OH232852   4.962   3.871  19.306 -0.4684 -0.1060  0.3697
 2886TIP3    H132853   5.048   3.908  19.326  0.0625 -1.4539  0.7089
 2886TIP3    H232854   4.907   3.947  19.286  1.0257  0.7355 -0.7756
 2887TIP3   OH232855   1.971   1.575  19.782 -0.2827 -0.0738  0.2748
 2887TIP3    H132856   1.925   1.658  19.792 -0.2538 -0.1227  0.8550
 2887TIP3    H232857   1.902   1.509  19.783 -0.2416 -0.1183  0.7542
 2888TIP3   OH232858   4.803   4.650  18.387  0.5223  0.4027  0.1889
 2888TIP3    H132859   4.766   4.660  18.475 -0.9458  0.1358 -0.3615
 2888TIP3    H232860   4.792   4.557  18.367  0.2362  0.5810 -0.5287
 2889TIP3   OH232861   3.564   4.582  20.853 -0.6886 -0.0002 -0.2301
 2889TIP3    H132862   3.521   4.506  20.814 -1.3146 -0.8945  2.0280
 2889TIP3    H232863   3.510   4.656  20.825 -1.4834 -0.6689 -0.5291
 2890TIP3   OH232864   2.377   1.745  19.046  0.3389 -0.5079  0.3374
 2890TIP3    H132865   2.330   1.714  18.968  0.2641  1.0411 -0.2509
 2890TIP3    H232866   2.459   1.780  19.012  0.1297  0.5450  0.9053
 2891TIP3   OH232867   5.708   5.579  17.932  0.0826 -0.0140 -0.5267
 2891TIP3    H132868   5.723   5.670  17.905 -0.7760  0.3860  0.3091
 2891TIP3    H232869   5.631   5.552  17.883  0.0661 -0.1479 -0.4272
 2892TIP3   OH232870   4.189   6.320  17.750  0.0279 -0.2815 -0.1054
 2892TIP3    H132871   4.189   6.251  17.683  1.3266  1.7902 -2.3796
 2892TIP3    H232872   4.261   6.296  17.808  1.2900 -0.2226 -1.6005
 2893TIP3   OH232873   1.157   1.988  20.757 -0.2621  0.2601 -0.1333
 2893TIP3    H132874   1.197   2.075  20.753 -1.1242  0.6204 -1.5243
 2893TIP3    H232875   1.078   2.002  20.809  0.7939 -0.2284  1.6931
 2894TIP3   OH232876   5.918   2.046  18.467 -0.3633 -0.6550  0.2219
 2894TIP3    H132877   5.897   2.105  18.539 -0.7596 -1.6643  0.9559
 2894TIP3    H232878   6.013   2.049  18.460 -0.4488  1.3128 -0.8510
 2895TIP3   OH232879   6.050   5.937  18.596 -0.5018 -0.0212 -0.8110
 2895TIP3    H132880   6.102   5.876  18.649 -0.2459  0.6265 -0.3084
 2895TIP3    H232881   5.963   5.897  18.594 -0.6299  0.1337  0.4440
 2896TIP3   OH232882   5.682   1.376  18.236  0.1211  0.2786  0.0006
 2896TIP3    H132883   5.621   1.372  18.310  1.8970  0.6534  1.5796
 2896TIP3    H232884   5.760   1.420  18.272  1.6891 -1.0075 -1.6297
 2897TIP3   OH232885   4.196   5.013  18.285 -0.5448  0.2092 -0.2151
 2897TIP3    H132886   4.259   4.998  18.355 -0.9434  1.2229  0.3811
 2897TIP3    H232887   4.148   4.930  18.278  0.8067 -0.5636 -0.6633
 2898TIP3   OH232888   3.063   2.899  19.546  0.6827  0.5813  0.5094
 2898TIP3    H132889   3.070   2.805  19.530  0.9921  0.6126  0.4695
 2898TIP3    H232890   3.091   2.941  19.465  1.4119  0.7209  0.8253
 2899TIP3   OH232891   0.821   2.727  18.595  0.2773 -0.0753  0.3022
 2899TIP3    H132892   0.822   2.817  18.565  1.1095 -0.0941  0.2764
 2899TIP3    H232893   0.904   2.690  18.566  0.2000 -0.6840  0.8263
 2900TIP3   OH232894   4.520   5.864  17.949 -0.1085 -0.8509 -0.1727
 2900TIP3    H132895   4.542   5.930  18.014 -1.2165  1.0288 -1.6134
 2900TIP3    H232896   4.458   5.806  17.993 -0.4127  0.0552  0.6222
 2901TIP3   OH232897   1.463   5.153  17.942  0.4220  0.4581 -0.3277
 2901TIP3    H132898   1.477   5.059  17.933  0.5221  0.4795 -0.3983
 2901TIP3    H232899   1.549   5.192  17.925  0.3065  0.5828 -0.6303
 2902TIP3   OH232900   1.306   1.951  17.288  0.2394 -0.1630 -0.5769
 2902TIP3    H132901   1.394   1.929  17.256  0.4424 -0.3355  0.0882
 2902TIP3    H232902   1.320   2.021  17.351 -0.0300 -0.6103 -0.0139
 2903TIP3   OH232903   2.827   2.964  20.167 -0.1739 -0.3929 -0.2051
 2903TIP3    H132904   2.768   2.965  20.243 -0.7311 -0.7019 -0.6198
 2903TIP3    H232905   2.771   2.934  20.095  0.9867 -2.8162 -0.1911
 2904TIP3   OH232906   6.471   0.964  20.101 -0.2760 -0.0156  0.3571
 2904TIP3    H132907   6.406   1.018  20.146 -0.8412 -1.8606  1.8790
 2904TIP3    H232908   6.454   0.875  20.132  2.8890 -0.6056  0.7043
 2905TIP3   OH232909   5.897   3.561  19.766 -0.2399  0.1931 -0.0411
 2905TIP3    H132910   5.938   3.622  19.705  0.2432 -1.1715 -1.1208
 2905TIP3    H232911   5.942   3.576  19.849  0.7522  0.4151 -0.6068
 2906TIP3   OH232912   6.408   3.859  20.404  0.6871  0.4527 -0.3007
 2906TIP3    H132913   6.428   3.924  20.336 -0.2843  1.3521  0.2284
 2906TIP3    H232914   6.493   3.831  20.436  1.1601  0.2622 -1.6480
 2907TIP3   OH232915   0.100   4.836  20.400  0.2534 -0.0641 -0.6299
 2907TIP3    H132916   0.168   4.788  20.353  0.5014  0.1907 -0.5348
 2907TIP3    H232917   0.050   4.768  20.445  0.2642 -0.2763 -0.9340
 2908TIP3   OH232918   1.320   0.661  19.429 -0.8491  0.3943 -0.4605
 2908TIP3    H132919   1.312   0.566  19.429  0.9924  0.1671 -2.9253
 2908TIP3    H232920   1.230   0.692  19.416 -1.0747 -1.1636 -3.2621
 2909TIP3   OH232921   2.009   5.453  19.628  0.2683 -0.6941  0.7329
 2909TIP3    H132922   2.075   5.515  19.660  0.3318 -0.6137  0.4452
 2909TIP3    H232923   1.953   5.504  19.570 -0.2838 -0.6713  1.2724
 2910TIP3   OH232924   1.117   2.112  20.159  0.1047 -0.5386 -0.0897
 2910TIP3    H132925   1.136   2.145  20.071 -1.5437 -1.8526 -0.9888
 2910TIP3    H232926   1.027   2.139  20.176  0.1305 -1.0092  0.8665
 2911TIP3   OH232927   6.642   0.269  19.592 -0.1201 -0.0793 -0.1658
 2911TIP3    H132928   6.700   0.331  19.638 -0.9816  1.8782 -1.5842
 2911TIP3    H232929   6.572   0.252  19.654  0.2138  0.2320  0.3068
 2912TIP3   OH232930   1.502   2.316  18.342  0.4241 -0.1237 -0.0857
 2912TIP3    H132931   1.453   2.238  18.370 -0.1954  0.3539  0.1741
 2912TIP3    H232932   1.534   2.354  18.424 -0.1851  0.4882 -0.1247
 2913TIP3   OH232933   5.127   2.879  18.135 -0.1503  0.6281  0.2923
 2913TIP3    H132934   5.171   2.962  18.153  2.0764 -0.8258  2.2177
 2913TIP3    H232935   5.070   2.865  18.210  0.3556 -0.0930  0.5500
 2914TIP3   OH232936   3.961   6.509  18.936  0.2010 -0.6551 -0.0862
 2914TIP3    H132937   3.916   6.508  19.020  0.5033  0.0789  0.0961
 2914TIP3    H232938   4.034   6.448  18.946  0.9195  0.2763  0.5896
 2915TIP3   OH232939   4.317   4.503  19.664 -0.5360 -0.3614  0.2339
 2915TIP3    H132940   4.361   4.548  19.592 -2.6425  0.3255 -0.7047
 2915TIP3    H232941   4.334   4.557  19.741 -2.2923  1.6950 -0.7150
 2916TIP3   OH232942   2.857   1.798  18.797  0.3134  0.4598 -0.4496
 2916TIP3    H132943   2.846   1.793  18.702  0.0080 -1.1523 -0.3542
 2916TIP3    H232944   2.794   1.735  18.832  0.8457  0.5890  0.7994
 2917TIP3   OH232945   1.705   4.943  17.731 -0.5575 -0.7744  0.0651
 2917TIP3    H132946   1.631   4.981  17.684 -0.1316  1.1318  0.8012
 2917TIP3    H232947   1.755   4.896  17.665 -0.8436  0.4621 -1.0709
 2918TIP3   OH232948   2.378   0.844  19.247  0.0360  0.0085 -0.0326
 2918TIP3    H132949   2.444   0.812  19.308 -0.6730  0.7323  1.1643
 2918TIP3    H232950   2.357   0.932  19.279 -0.5097  0.3227 -1.2021
 2919TIP3   OH232951   3.706   2.065  18.970 -0.4934  0.3874  0.0532
 2919TIP3    H132952   3.631   2.106  18.926 -0.5152 -0.0202 -0.3058
 2919TIP3    H232953   3.715   1.980  18.925 -2.7446 -1.6898  3.1085
 2920TIP3   OH232954   3.391   5.104  19.185  0.4509  0.0900  0.0316
 2920TIP3    H132955   3.302   5.069  19.189  0.4630  0.1317  0.7422
 2920TIP3    H232956   3.445   5.028  19.162  0.4495 -0.3326  1.3565
 2921TIP3   OH232957   1.694   1.454  19.250  0.3078 -0.0727  0.4648
 2921TIP3    H132958   1.727   1.521  19.310 -1.9584 -0.6960  2.5805
 2921TIP3    H232959   1.617   1.495  19.210  0.5074 -0.4757 -0.3460
 2922TIP3   OH232960   5.443   0.847  19.775 -0.2383  0.0717 -0.2721
 2922TIP3    H132961   5.395   0.861  19.694 -0.0916  0.7143 -0.2489
 2922TIP3    H232962   5.518   0.906  19.770  0.7406 -1.1330 -0.4435
 2923TIP3   OH232963   4.514   0.612  18.104 -0.3113 -0.1229  0.7142
 2923TIP3    H132964   4.480   0.646  18.187  0.0681 -0.8780  1.1846
 2923TIP3    H232965   4.443   0.628  18.041 -0.3032  1.1464  1.0107
 2924TIP3   OH232966   0.294   3.923  17.855 -0.5154 -0.5276 -0.1313
 2924TIP3    H132967   0.315   3.833  17.881  1.7413 -0.6463 -2.0268
 2924TIP3    H232968   0.257   3.914  17.767 -0.6787  0.3669 -0.1606
 2925TIP3   OH232969   3.223   2.795  19.993 -0.4431  0.5433 -0.4413
 2925TIP3    H132970   3.133   2.774  19.969  0.1315 -0.2196 -2.0859
 2925TIP3    H232971   3.275   2.764  19.919  1.2022  0.7291  0.5952
 2926TIP3   OH232972   2.257   1.525  20.237  0.0202 -0.1622 -0.2959
 2926TIP3    H132973   2.193   1.455  20.244 -0.6224  0.5327  1.2617
 2926TIP3    H232974   2.209   1.599  20.202  0.0571  0.2226  0.4345
 2927TIP3   OH232975   5.638   4.310  21.003  0.5917 -0.2946  0.1563
 2927TIP3    H132976   5.660   4.367  21.077 -0.1794 -1.6399  1.4672
 2927TIP3    H232977   5.606   4.369  20.935  0.1586  0.8603  1.3427
 2928TIP3   OH232978   2.030   6.672  19.855  0.1444  0.4757  0.1733
 2928TIP3    H132979   2.068   6.587  19.837 -0.4567  0.2953 -0.2838
 2928TIP3    H232980   2.000   6.704  19.770  0.8239  1.3745  0.2587
 2929TIP3   OH232981   5.313   6.290  19.711  0.3161  0.3492  0.3625
 2929TIP3    H132982   5.298   6.383  19.696  1.0308  0.7758  2.0655
 2929TIP3    H232983   5.241   6.263  19.768 -0.2468 -0.3107 -0.6372
 2930TIP3   OH232984   5.278   3.645  17.953  0.1929  0.5815 -0.0272
 2930TIP3    H132985   5.280   3.552  17.975  0.4912  1.2812  3.5368
 2930TIP3    H232986   5.335   3.653  17.877  0.8056 -2.0336  0.0555
 2931TIP3   OH232987   4.915   5.119  18.447  0.3803 -0.5788  0.0717
 2931TIP3    H132988   4.954   5.044  18.401 -3.0527 -2.0477 -0.7794
 2931TIP3    H232989   4.903   5.088  18.537 -0.9081 -1.0624 -0.2461
 2932TIP3   OH232990   4.838   5.027  18.710 -0.1686 -0.0152  0.3426
 2932TIP3    H132991   4.850   5.096  18.775  1.7672  0.3900 -0.4047
 2932TIP3    H232992   4.744   5.009  18.713 -0.3819  1.0974  2.1049
 2933TIP3   OH232993   6.067   1.232  19.444 -0.0007 -0.0181  0.2420
 2933TIP3    H132994   6.150   1.242  19.490  0.2188  1.0709 -0.3705
 2933TIP3    H232995   6.084   1.266  19.357 -1.4014  1.3291  0.4569
 2934TIP3   OH232996   2.353   1.056  18.489 -0.2133 -0.3610  0.0015
 2934TIP3    H132997   2.436   1.080  18.447 -0.0158 -0.0295  0.5678
 2934TIP3    H232998   2.377   1.034  18.579 -0.7521 -0.1519  0.2023
 2935TIP3   OH232999   6.402   1.027  18.649 -0.0410  0.6199 -0.3638
 2935TIP3    H133000   6.391   1.121  18.633 -1.3536  0.8676  1.7107
 2935TIP3    H233001   6.458   1.023  18.726  0.2016 -0.3330 -0.5840
 2936TIP3   OH233002   4.363   0.739  18.290 -0.2909 -0.1426 -0.4563
 2936TIP3    H133003   4.386   0.775  18.376 -1.1516 -0.1962 -0.1967
 2936TIP3    H233004   4.275   0.772  18.272 -0.3466 -0.5938 -1.0588
 2937TIP3   OH233005   4.777   2.186  19.429 -0.1547  0.0674  0.0662
 2937TIP3    H133006   4.693   2.230  19.443 -0.5912 -0.5913 -0.4032
 2937TIP3    H233007   4.842   2.255  19.437 -0.6929  0.4813  1.0406
 2938TIP3   OH233008   1.602   5.122  19.634 -0.1068 -0.2189  0.6303
 2938TIP3    H133009   1.561   5.111  19.548 -0.2860 -1.4642  0.8528
 2938TIP3    H233010   1.683   5.170  19.617 -0.1998 -0.3587 -0.2106
 2939TIP3   OH233011   0.223   1.169  20.082  0.1580 -0.2647  0.3369
 2939TIP3    H133012   0.200   1.120  20.161  0.3102  0.1033  0.6112
 2939TIP3    H233013   0.150   1.154  20.022  0.3772 -1.1412  0.2717
 2940TIP3   OH233014   1.715   0.421  18.422 -0.2620  0.1790 -0.1473
 2940TIP3    H133015   1.704   0.504  18.375  1.3130  0.0690 -0.7660
 2940TIP3    H233016   1.631   0.407  18.465 -2.0411 -0.0098 -3.3870
 2941TIP3   OH233017   6.657   3.452  18.813  0.3910 -0.1578 -0.2580
 2941TIP3    H133018   6.589   3.444  18.880  1.9482 -1.3069  1.2843
 2941TIP3    H233019   6.629   3.393  18.743 -1.4371  1.3143 -0.8615
 2942TIP3   OH233020   4.270   0.905  17.566 -0.1430 -0.4526  0.0852
 2942TIP3    H133021   4.182   0.941  17.559  0.5460  1.1408 -1.1557
 2942TIP3    H233022   4.299   0.928  17.655 -0.6402 -0.1384  0.1680
 2943TIP3   OH233023   1.109   1.985  18.064 -0.3434 -0.5261  0.6666
 2943TIP3    H133024   1.048   1.931  18.013  0.6176 -1.1607  0.1519
 2943TIP3    H233025   1.178   2.007  18.002 -0.1770  0.4034  1.1718
 2944TIP3   OH233026   5.267   6.564  19.275 -0.2659  0.0348 -0.0015
 2944TIP3    H133027   5.237   6.611  19.197  3.4100  0.9108 -1.0759
 2944TIP3    H233028   5.335   6.505  19.244 -0.9796 -2.0862  2.1500
 2945TIP3   OH233029   5.468   3.094  18.075  0.3105  0.1916 -0.1662
 2945TIP3    H133030   5.464   3.026  18.008  2.1772 -1.8825  1.6741
 2945TIP3    H233031   5.380   3.130  18.078  0.1359  0.3507 -3.6427
 2946TIP3   OH233032   3.332   2.825  19.282  0.2916  0.0211  0.1131
 2946TIP3    H133033   3.269   2.758  19.256 -2.3101  2.6073 -0.7970
 2946TIP3    H233034   3.413   2.801  19.237  0.3768 -3.8541  1.9185
 2947TIP3   OH233035   6.579   6.309  17.763 -0.3934  0.6441  0.5291
 2947TIP3    H133036   6.496   6.288  17.807 -0.9302 -0.5768 -0.9568
 2947TIP3    H233037   6.553   6.331  17.673  0.8858  0.2320  0.0402
 2948TIP3   OH233038   1.375   6.248  18.465  0.1729  0.5048 -0.3357
 2948TIP3    H133039   1.326   6.202  18.397 -0.0968 -0.7467  0.6833
 2948TIP3    H233040   1.463   6.210  18.462 -0.3149 -0.8590  1.1681
 2949TIP3   OH233041   3.705   1.362  20.745 -0.8703 -0.0814  0.3404
 2949TIP3    H133042   3.692   1.304  20.820  0.0040  0.1252  0.6720
 2949TIP3    H233043   3.723   1.448  20.783 -2.5085  0.5193 -0.1524
 2950TIP3   OH233044   3.213   1.629  19.711  0.6448  0.1453 -0.4646
 2950TIP3    H133045   3.126   1.592  19.727 -0.0051  2.1373  1.1321
 2950TIP3    H233046   3.266   1.597  19.784  0.3950  1.3669  0.2671
 2951TIP3   OH233047   6.347   1.277  18.734  0.2374 -0.1969  0.0060
 2951TIP3    H133048   6.254   1.300  18.726  0.4764  0.6503 -0.3718
 2951TIP3    H233049   6.361   1.269  18.829 -0.0229  0.5031  0.1102
 2952TIP3   OH233050   4.880   5.089  20.796 -0.4757  0.3419 -0.0469
 2952TIP3    H133051   4.878   5.007  20.747 -1.4771  0.2168  0.1838
 2952TIP3    H233052   4.788   5.106  20.818 -0.2565  1.4311  0.0637
 2953TIP3   OH233053   3.172   1.523  20.549  0.1327 -0.3087  0.0277
 2953TIP3    H133054   3.118   1.569  20.485  0.9271  1.3656  0.5014
 2953TIP3    H233055   3.172   1.432  20.520  0.0674  0.3036 -2.0529
 2954TIP3   OH233056   6.155   5.731  17.869 -0.5761 -0.0557  0.0242
 2954TIP3    H133057   6.119   5.782  17.796  0.8498  0.2922 -0.4580
 2954TIP3    H233058   6.086   5.668  17.889 -1.6032  0.8193 -0.6213
 2955TIP3   OH233059   4.698   0.286  20.395  0.1796  0.2981  0.3560
 2955TIP3    H133060   4.707   0.264  20.487 -1.5022  0.3394  0.5719
 2955TIP3    H233061   4.650   0.369  20.395  1.4850  1.0854 -0.5396
 2956TIP3   OH233062   6.630   4.011  18.667 -0.3586 -0.5084  0.0238
 2956TIP3    H133063   6.603   4.084  18.612  0.7530  0.3755  0.5970
 2956TIP3    H233064   6.686   3.957  18.611  0.9345  0.4970  0.3039
 2957TIP3   OH233065   4.576   2.885  17.808  0.1115  0.3053 -1.0254
 2957TIP3    H133066   4.497   2.836  17.828 -0.6169  1.2280 -1.5553
 2957TIP3    H233067   4.625   2.829  17.748  2.1908 -2.3948  2.7450
 2958TIP3   OH233068   1.869   5.643  19.876  0.8830 -0.8359 -0.4634
 2958TIP3    H133069   1.859   5.697  19.798  0.2751  1.2912  0.9820
 2958TIP3    H233070   1.962   5.621  19.879  0.6233 -2.5678 -2.7175
 2959TIP3   OH233071   4.296   2.149  20.307  0.2130  0.2350 -0.2008
 2959TIP3    H133072   4.316   2.170  20.398  0.9253  0.4387 -0.3938
 2959TIP3    H233073   4.330   2.061  20.294 -0.5198 -0.0675 -0.0791
 2960TIP3   OH233074   6.420   0.716  20.243  0.1316 -0.2066  0.3135
 2960TIP3    H133075   6.453   0.637  20.201 -0.9264 -1.9692  2.5562
 2960TIP3    H233076   6.439   0.704  20.336 -0.2407  2.1062  0.7655
 2961TIP3   OH233077   4.970   1.400  18.648  0.5081  0.8071 -0.2077
 2961TIP3    H133078   4.968   1.351  18.566 -1.4038  1.0518 -0.3487
 2961TIP3    H233079   4.913   1.352  18.707  1.1060  1.1608  0.6847
 2962TIP3   OH233080   4.970   5.687  20.808 -0.1028  0.5245 -0.0230
 2962TIP3    H133081   4.932   5.742  20.876 -0.5195 -0.8932  0.9416
 2962TIP3    H233082   4.978   5.744  20.732 -3.5627  1.0955 -0.0904
 2963TIP3   OH233083   1.581   1.833  18.784  0.2449 -0.7229  0.6810
 2963TIP3    H133084   1.504   1.803  18.736 -0.3055  0.0874  1.0285
 2963TIP3    H233085   1.615   1.755  18.828  0.7854 -1.4874 -1.0248
 2964TIP3   OH233086   2.469   0.106  17.022 -0.0707  0.5531 -0.3324
 2964TIP3    H133087   2.468   0.067  16.935  0.4401  1.4042 -0.7256
 2964TIP3    H233088   2.561   0.108  17.047 -0.3308 -1.4225  1.0480
 2965TIP3   OH233089   3.270   1.996  19.905  0.9759 -0.3763  0.6100
 2965TIP3    H133090   3.202   2.031  19.847  2.4937  0.3959 -0.7587
 2965TIP3    H233091   3.231   1.915  19.940 -1.0841  0.6200  0.8001
 2966TIP3   OH233092   6.734   3.194  20.321  0.2169  0.0493 -0.1223
 2966TIP3    H133093   6.787   3.270  20.347 -2.0498  1.0379  2.0788
 2966TIP3    H233094   6.674   3.228  20.255  0.4110 -0.3201 -0.4917
 2967TIP3   OH233095   5.654   5.440  20.419 -0.4666  0.2290  0.6506
 2967TIP3    H133096   5.710   5.383  20.471 -2.2612 -0.3729  2.0161
 2967TIP3    H233097   5.587   5.470  20.480 -0.4702  2.5934 -0.4053
 2968TIP3   OH233098   4.908   1.909  18.343  0.3088 -0.3933  0.7277
 2968TIP3    H133099   4.852   1.859  18.283  1.0552 -0.1401 -0.1987
 2968TIP3    H233100   4.923   1.850  18.417  0.1714 -1.0758  0.2171
 2969TIP3   OH233101   6.521   2.466  18.673  0.0784 -0.4525  0.3760
 2969TIP3    H133102   6.575   2.477  18.751 -1.0998 -2.0570  1.4871
 2969TIP3    H233103   6.440   2.513  18.693  0.1698  0.0111 -0.3264
 2970TIP3   OH233104   6.583   2.828  19.367  0.0235 -0.1993  0.2510
 2970TIP3    H133105   6.562   2.918  19.390 -1.8428 -0.3899 -0.5096
 2970TIP3    H233106   6.581   2.826  19.272 -3.7501 -1.7253  0.1677
 2971TIP3   OH233107   0.684   1.353  17.900 -1.1194  0.3593  0.3896
 2971TIP3    H133108   0.765   1.304  17.915 -0.1457  1.7404 -0.1740
 2971TIP3    H233109   0.686   1.375  17.807 -1.5575  1.3920  0.6047
 2972TIP3   OH233110   4.306   4.905  20.821 -0.3136  0.1663 -0.0531
 2972TIP3    H133111   4.378   4.856  20.782 -0.9103 -0.5533 -0.2793
 2972TIP3    H233112   4.246   4.837  20.855  0.4865  0.7288  2.7642
 2973TIP3   OH233113   4.268   0.455  16.768 -0.0206  0.2973 -0.0058
 2973TIP3    H133114   4.263   0.411  16.683 -1.6056 -0.7182  0.5667
 2973TIP3    H233115   4.180   0.492  16.780  0.4125  1.0834  0.8534
 2974TIP3   OH233116   4.484   0.957  18.139 -0.9112 -0.1233 -0.2427
 2974TIP3    H133117   4.527   0.954  18.054 -0.3879 -0.2775  0.0222
 2974TIP3    H233118   4.507   0.874  18.181  1.0255  1.0003  1.0760
 2975TIP3   OH233119   6.317   6.360  18.420 -0.1588  0.8264  0.2989
 2975TIP3    H133120   6.337   6.374  18.512  1.3187 -0.4808  0.2327
 2975TIP3    H233121   6.241   6.303  18.419 -0.3453  1.0665  0.6863
 2976TIP3   OH233122   3.156   5.915  19.446 -0.1822  0.1782  0.1909
 2976TIP3    H133123   3.130   5.865  19.523  1.0150 -1.4131 -0.3722
 2976TIP3    H233124   3.250   5.896  19.436 -0.2520  0.5785 -1.4871
 2977TIP3   OH233125   1.345   3.808  19.279  0.0243  0.1442 -0.6923
 2977TIP3    H133126   1.362   3.724  19.321  1.2810  0.6088 -0.2098
 2977TIP3    H233127   1.256   3.831  19.305 -0.0247 -0.6467 -0.1480
 2978TIP3   OH233128   0.809   5.749  18.374  0.0094  0.4988 -0.2847
 2978TIP3    H133129   0.782   5.841  18.380 -0.4185  0.3998 -0.6705
 2978TIP3    H233130   0.887   5.743  18.430  0.3148  1.1981 -0.6352
 2979TIP3   OH233131   4.598   5.838  18.877  0.4560 -0.2753  0.5775
 2979TIP3    H133132   4.599   5.852  18.782 -0.8542  0.3903  0.6327
 2979TIP3    H233133   4.542   5.761  18.889  0.2623 -0.0968  0.8293
 2980TIP3   OH233134   2.709   1.109  19.432  0.1169 -0.3693  0.2800
 2980TIP3    H133135   2.639   1.062  19.387 -0.1239 -0.2788  0.5607
 2980TIP3    H233136   2.720   1.190  19.383  0.1789 -0.4821  0.1036
 2981TIP3   OH233137   4.747   6.526  17.775  0.3863 -0.3630  0.1499
 2981TIP3    H133138   4.678   6.590  17.794  0.8507  0.2134 -0.0619
 2981TIP3    H233139   4.800   6.567  17.706  1.9448 -0.0350  1.4800
 2982TIP3   OH233140   4.941   2.403  17.906  0.2765  0.0197  0.3284
 2982TIP3    H133141   4.877   2.342  17.869 -0.8025  1.0093  0.4752
 2982TIP3    H233142   4.975   2.451  17.830 -0.1085  0.3629  0.3693
 2983TIP3   OH233143   0.155   3.329  19.885  0.4952  0.0139  0.4224
 2983TIP3    H133144   0.086   3.356  19.945  0.5840  2.1079 -0.3188
 2983TIP3    H233145   0.236   3.345  19.934  0.5633  1.6282 -0.1309
 2984TIP3   OH233146   2.650   6.146  17.637 -0.0510  0.2821  0.2480
 2984TIP3    H133147   2.649   6.124  17.544 -0.5735 -0.9386  0.5213
 2984TIP3    H233148   2.567   6.193  17.651  0.0002  0.4135  0.1213
 2985TIP3   OH233149   3.992   1.491  18.728  0.2646  0.3730 -0.0152
 2985TIP3    H133150   4.012   1.448  18.644  3.2437 -0.2321  0.8804
 2985TIP3    H233151   4.029   1.579  18.719 -4.1320  2.4162 -1.1295
 2986TIP3   OH233152   4.122   5.615  18.478  0.1209 -0.2226 -0.8302
 2986TIP3    H133153   4.139   5.531  18.436  1.0502  0.4045 -1.7609
 2986TIP3    H233154   4.051   5.654  18.427 -1.1053 -0.9076  0.3000
 2987TIP3   OH233155   6.189   2.662  20.657  0.1648  0.1311 -0.4893
 2987TIP3    H133156   6.118   2.601  20.639 -0.7595  1.0869 -0.2004
 2987TIP3    H233157   6.190   2.720  20.581  1.6848 -0.8031 -1.2249
 2988TIP3   OH233158   3.248   0.140  18.788  0.3013  0.2450 -0.4983
 2988TIP3    H133159   3.234   0.231  18.762 -1.1439  0.2145  0.1207
 2988TIP3    H233160   3.211   0.089  18.716 -2.7173  0.1692  0.9531
 2989TIP3   OH233161   3.464   5.538  20.862  0.3259  0.4382 -0.5289
 2989TIP3    H133162   3.559   5.546  20.864  0.3261  1.1520 -2.1503
 2989TIP3    H233163   3.431   5.625  20.886  0.0755  0.3534 -0.5556
 2990TIP3   OH233164   1.814   5.577  19.478  0.3213  0.2371  1.0781
 2990TIP3    H133165   1.767   5.653  19.446  0.7926  0.8120  1.6971
 2990TIP3    H233166   1.907   5.602  19.472  0.9896 -2.2133 -3.6878
 2991TIP3   OH233167   4.351   3.803  17.626  0.0593  0.0365 -0.1975
 2991TIP3    H133168   4.297   3.753  17.565 -0.1377  1.9519 -1.6956
 2991TIP3    H233169   4.423   3.836  17.572  0.7980  0.4243  0.9915
 2992TIP3   OH233170   4.606   2.095  18.735 -0.6559  0.6269 -0.4957
 2992TIP3    H133171   4.676   2.151  18.768 -0.3066  0.2287 -0.5500
 2992TIP3    H233172   4.643   2.006  18.737 -1.1829  0.4022 -0.4511
 2993TIP3   OH233173   0.953   3.077  20.539 -0.0860  0.0994 -0.3892
 2993TIP3    H133174   1.030   3.129  20.561  0.8833 -0.6533 -1.8597
 2993TIP3    H233175   0.952   3.005  20.602  1.9355 -1.3398 -1.8868
 2994TIP3   OH233176   5.172   3.413  19.208  0.1784  0.2155 -0.6098
 2994TIP3    H133177   5.186   3.507  19.222  0.8220  0.4142 -2.3009
 2994TIP3    H233178   5.101   3.410  19.143 -0.2870 -0.5102 -0.0829
 2995TIP3   OH233179   1.635   6.096  17.662 -0.0663  0.3782  0.2902
 2995TIP3    H133180   1.594   6.090  17.575  0.0782  0.6804  0.1990
 2995TIP3    H233181   1.625   6.008  17.699  0.4123  0.0716 -0.2813
 2996TIP3   OH233182   0.151   3.088  19.311 -0.5952 -0.1917  0.7658
 2996TIP3    H133183   0.056   3.076  19.318 -0.7693 -0.4424 -1.3384
 2996TIP3    H233184   0.162   3.176  19.276 -0.2016 -0.9331 -1.0930
 2997TIP3   OH233185   4.413   4.555  19.407 -0.2821  0.1539 -0.4719
 2997TIP3    H133186   4.330   4.513  19.384  0.5486 -1.0771 -1.4271
 2997TIP3    H233187   4.469   4.482  19.435  0.5844  0.9020 -0.2120
 2998TIP3   OH233188   2.427   5.111  19.546  0.0528 -0.4995  0.0187
 2998TIP3    H133189   2.443   5.171  19.618  0.6475 -0.0444 -0.4809
 2998TIP3    H233190   2.492   5.135  19.480 -0.1839 -1.2065 -0.4858
 2999TIP3   OH233191   3.784   0.973  20.185 -0.0432  0.4286  0.1091
 2999TIP3    H133192   3.716   1.035  20.158 -1.5693 -1.7041 -1.1887
 2999TIP3    H233193   3.755   0.942  20.271 -0.8829 -0.6598 -0.5494
 3000TIP3   OH233194   4.016   6.230  19.046  0.9179 -0.2061  0.7475
 3000TIP3    H133195   3.929   6.258  19.076  1.4519  0.8498  1.3765
 3000TIP3    H233196   4.002   6.202  18.956 -0.5391 -2.4029  1.5401
 3001TIP3   OH233197   6.612   6.611  19.188  0.4054  0.2001 -0.4940
 3001TIP3    H133198   6.641   6.679  19.248 -0.8139  1.4269 -1.2509
 3001TIP3    H233199   6.585   6.539  19.246  1.7237  0.3257  0.3074
 3002TIP3   OH233200   3.334   2.201  20.433 -0.2064 -0.2770 -0.3075
 3002TIP3    H133201   3.351   2.107  20.440  1.6229 -0.3311 -3.6567
 3002TIP3    H233202   3.408   2.235  20.383 -1.1311  2.8808  0.2722
 3003TIP3   OH233203   1.405   1.962  17.610 -0.0294 -0.1122  0.0854
 3003TIP3    H133204   1.340   2.033  17.609 -0.9533 -0.8827  1.4764
 3003TIP3    H233205   1.450   1.969  17.526 -3.7516 -1.2218 -2.2558
 3004TIP3   OH233206   0.751   0.412  18.162  0.2628 -0.4508 -0.4073
 3004TIP3    H133207   0.823   0.458  18.206 -0.2415  0.8756 -0.9264
 3004TIP3    H233208   0.724   0.471  18.091  0.2389 -1.9846 -1.7443
 3005TIP3   OH233209   3.101   1.603  18.053 -0.3386  0.2016  0.2382
 3005TIP3    H133210   3.181   1.597  18.105  0.2559 -1.8005 -0.7870
 3005TIP3    H233211   3.053   1.522  18.074 -0.3465 -0.3806 -1.8394
 3006TIP3   OH233212   1.882   5.392  19.980 -0.5684  0.6411  0.6329
 3006TIP3    H133213   1.819   5.328  19.946 -1.4592  2.0024 -0.4181
 3006TIP3    H233214   1.843   5.477  19.958  1.2233  1.5347  0.7492
 3007TIP3   OH233215   0.877   2.398  20.447  0.4229 -0.0028 -0.2714
 3007TIP3    H133216   0.782   2.384  20.455  0.5411  0.0627  1.7074
 3007TIP3    H233217   0.885   2.473  20.389 -0.7577  0.1433 -0.2700
 3008TIP3   OH233218   2.901   5.925  17.080  0.2014  0.3918 -0.0684
 3008TIP3    H133219   2.878   6.002  17.028  1.0885 -1.1618 -2.9212
 3008TIP3    H233220   2.818   5.880  17.095 -0.0383  0.7633 -0.2744
 3009TIP3   OH233221   4.950   5.808  17.442 -0.4205 -0.7089 -0.3704
 3009TIP3    H133222   5.039   5.771  17.444 -0.0287  0.2225  1.1545
 3009TIP3    H233223   4.902   5.759  17.509 -0.8177 -0.6123 -0.5804
 3010TIP3   OH233224   3.098   3.975  20.315  0.3318 -0.5847 -0.5436
 3010TIP3    H133225   3.064   4.027  20.242 -2.7486 -0.8059  0.6250
 3010TIP3    H233226   3.122   3.891  20.275  2.1730  0.4678 -1.8427
 3011TIP3   OH233227   3.702   4.467  18.232  0.5149 -0.0604  0.1637
 3011TIP3    H133228   3.691   4.374  18.216  0.0556  0.0937 -0.4579
 3011TIP3    H233229   3.719   4.474  18.327 -0.5312 -0.6803  0.4048
 3012TIP3   OH233230   0.804   1.899  20.334  0.2686 -0.1013 -0.3916
 3012TIP3    H133231   0.848   1.869  20.414 -0.8254  1.3309  0.8154
 3012TIP3    H233232   0.787   1.820  20.285  0.1688 -1.1385  1.2308
 3013TIP3   OH233233   1.840   5.308  20.790  0.0285 -0.5609  0.4179
 3013TIP3    H133234   1.852   5.215  20.771  2.0995 -0.2619  0.0543
 3013TIP3    H233235   1.927   5.340  20.812 -0.7844  1.1325  1.4036
 3014TIP3   OH233236   2.992   0.418  20.057 -0.0983 -0.2014 -0.3151
 3014TIP3    H133237   2.988   0.513  20.068  0.1838 -0.1795 -0.3871
 3014TIP3    H233238   2.986   0.384  20.146 -0.6664 -0.1329 -0.3273
 3015TIP3   OH233239   5.750   2.297  20.493  0.0122 -0.6048 -0.2299
 3015TIP3    H133240   5.764   2.373  20.436  0.2277 -1.3834 -1.2529
 3015TIP3    H233241   5.656   2.281  20.487 -0.4897  1.0271  1.9441
 3016TIP3   OH233242   2.091   3.813  19.571  0.3213 -0.0159 -0.3131
 3016TIP3    H133243   2.117   3.735  19.619 -1.1601  0.1771  0.8434
 3016TIP3    H233244   2.044   3.781  19.494 -0.7392 -0.2759  0.4292
 3017TIP3   OH233245   3.102   0.749  18.449 -0.2043 -0.1153 -0.4210
 3017TIP3    H133246   3.025   0.786  18.406  0.6566  0.9698 -1.0602
 3017TIP3    H233247   3.149   0.824  18.485  1.4774 -0.5584 -1.5646
 3018TIP3   OH233248   0.002   5.026  17.980 -0.3034  0.0347 -0.2699
 3018TIP3    H133249  -0.066   4.962  18.001 -0.2037 -0.4395 -1.3120
 3018TIP3    H233250   0.058   4.982  17.915  3.4203 -1.1570  3.3161
 3019TIP3   OH233251   3.364   3.797  19.807  0.1174 -0.1929  0.4590
 3019TIP3    H133252   3.335   3.868  19.863  0.0232  0.4648 -0.4083
 3019TIP3    H233253   3.460   3.795  19.817  0.0809 -0.2172  0.7998
 3020TIP3   OH233254   1.852   2.082  18.849  0.7142 -0.1941  0.1080
 3020TIP3    H133255   1.912   2.136  18.797  0.8235 -1.4912 -1.1941
 3020TIP3    H233256   1.766   2.098  18.811 -0.2559  3.0641  3.1135
 3021TIP3   OH233257   0.895   3.291  19.473  0.4532 -0.8588  0.4661
 3021TIP3    H133258   0.830   3.357  19.448  0.8280 -1.5407 -2.7930
 3021TIP3    H233259   0.911   3.307  19.566 -1.4166  1.8900  0.4388
 3022TIP3   OH233260   4.403   3.425  19.710  0.2427  0.2202 -0.0065
 3022TIP3    H133261   4.451   3.480  19.647  0.7864  0.4089  0.5553
 3022TIP3    H233262   4.418   3.468  19.795  1.7010 -1.4468  0.6339
 3023TIP3   OH233263   0.530   1.089  19.413  0.0844 -0.0734  0.1475
 3023TIP3    H133264   0.477   1.018  19.447 -1.4223  0.0684 -1.7627
 3023TIP3    H233265   0.556   1.060  19.326  0.2837  1.2841 -0.2662
 3024TIP3   OH233266   0.004   2.311  17.933 -0.1173  0.2789 -0.4179
 3024TIP3    H133267   0.059   2.234  17.945  0.9604  0.9019 -1.1289
 3024TIP3    H233268  -0.019   2.311  17.840 -2.0890 -0.4335  0.0185
 3025TIP3   OH233269   3.376   3.821  20.196  0.1554 -0.3367  0.7129
 3025TIP3    H133270   3.296   3.782  20.162 -1.4272  1.2938  2.2769
 3025TIP3    H233271   3.357   3.915  20.198  1.5193 -0.0507  2.5165
 3026TIP3   OH233272   2.055   5.142  18.907 -0.3146  0.1673  0.3473
 3026TIP3    H133273   2.023   5.066  18.956  1.7507 -1.4976 -0.7363
 3026TIP3    H233274   1.994   5.150  18.833 -1.6042  0.7565  1.4340
 3027TIP3   OH233275   5.663   0.801  19.277 -0.1962 -0.2860 -0.1578
 3027TIP3    H133276   5.672   0.726  19.217  0.4687 -0.7477  0.5067
 3027TIP3    H233277   5.569   0.807  19.292 -0.1964 -1.6946  0.6322
 3028TIP3   OH233278   4.514   1.872  18.178 -0.3463 -0.5682  0.0238
 3028TIP3    H133279   4.489   1.825  18.257  2.7276 -2.4880  0.0054
 3028TIP3    H233280   4.467   1.828  18.107 -1.4281 -0.2260  0.4963
 3029TIP3   OH233281   1.387   1.968  19.084 -0.1225 -0.1715 -0.3396
 3029TIP3    H133282   1.365   1.900  19.147  1.7721 -1.0624 -0.5661
 3029TIP3    H233283   1.341   1.942  19.004  0.0874 -0.8472 -0.2471
 3030TIP3   OH233284   5.660   5.782  17.668  0.2574 -0.2035  0.5034
 3030TIP3    H133285   5.590   5.724  17.638  0.7243 -0.9618  0.8315
 3030TIP3    H233286   5.616   5.864  17.691 -0.3245 -0.1954 -0.6035
 3031TIP3   OH233287   5.791   1.155  17.647  0.4171 -0.0824 -0.2886
 3031TIP3    H133288   5.774   1.072  17.603 -0.8292 -0.1787  0.3518
 3031TIP3    H233289   5.713   1.208  17.630  0.0267 -0.0207  1.5387
 3032TIP3   OH233290   3.784   6.255  19.393  0.4938 -0.0111 -0.2342
 3032TIP3    H133291   3.802   6.162  19.407  1.2800 -0.1999 -2.1812
 3032TIP3    H233292   3.690   6.258  19.373  0.0871 -0.1364  1.5457
 3033TIP3   OH233293   4.163   0.955  17.202  0.2894 -0.3895  0.1096
 3033TIP3    H133294   4.115   0.995  17.275  0.0974  1.9411 -1.1814
 3033TIP3    H233295   4.114   0.876  17.181 -0.2744 -0.5190  1.7888
 3034TIP3   OH233296   5.176   6.044  20.427 -0.0011  0.1762 -0.0400
 3034TIP3    H133297   5.225   6.003  20.498 -1.0036  1.0582  1.1996
 3034TIP3    H233298   5.229   6.118  20.400  0.9757 -0.8721 -1.0907
 3035TIP3   OH233299   3.437   0.194  17.695  0.0477  0.0716 -0.8107
 3035TIP3    H133300   3.476   0.273  17.731  2.4141 -0.9477 -0.9411
 3035TIP3    H233301   3.358   0.224  17.651  0.1678  2.1463  0.2747
 3036TIP3   OH233302   6.082   4.796  17.770  0.6462  0.1022  0.0770
 3036TIP3    H133303   6.135   4.813  17.691  1.4893 -2.0046  0.1219
 3036TIP3    H233304   5.993   4.785  17.737  0.7249  0.7129 -0.3754
 3037TIP3   OH233305   2.221   1.643  18.654  0.5019  0.1738  0.1833
 3037TIP3    H133306   2.312   1.621  18.632  0.3805  0.0038 -0.1463
 3037TIP3    H233307   2.169   1.573  18.614  0.0699  1.3135 -1.3406
 3038TIP3   OH233308   1.666   1.763  17.272  0.6364 -0.1040 -0.1742
 3038TIP3    H133309   1.625   1.848  17.254 -0.3560 -0.4796  0.2556
 3038TIP3    H233310   1.703   1.736  17.188 -0.5457 -0.0428 -0.7247
 3039TIP3   OH233311   2.434   2.865  18.574 -0.3560  0.2153  0.1383
 3039TIP3    H133312   2.513   2.826  18.537  0.7360  2.4055  0.0706
 3039TIP3    H233313   2.442   2.851  18.668 -0.6820 -0.9312  0.0119
 3040TIP3   OH233314   0.821   3.651  20.169  0.0921  0.0601  0.4983
 3040TIP3    H133315   0.776   3.587  20.225  0.4692  1.6430  2.7236
 3040TIP3    H233316   0.912   3.621  20.167  0.2444  0.4175  1.4383
 3041TIP3   OH233317   2.203   0.719  19.083  0.0524  0.4831  0.3591
 3041TIP3    H133318   2.254   0.647  19.045 -0.3833  0.3124  0.0973
 3041TIP3    H233319   2.263   0.760  19.145 -0.5405 -1.8648  2.6953
 3042TIP3   OH233320   2.196   5.526  19.291 -0.2484  0.1042  0.4487
 3042TIP3    H133321   2.284   5.519  19.254 -0.0450  1.8324  0.5385
 3042TIP3    H233322   2.141   5.476  19.230  1.0763 -3.2767  1.7636
 3043TIP3   OH233323   1.467   6.417  17.275  0.1138 -0.2192 -0.5844
 3043TIP3    H133324   1.372   6.432  17.281 -0.0749 -1.6085  0.4745
 3043TIP3    H233325   1.475   6.330  17.236  0.9741  0.0400 -1.0041
 3044TIP3   OH233326   1.589   0.125  20.615 -0.0449 -0.3005 -0.0870
 3044TIP3    H133327   1.585   0.143  20.521 -0.1293 -0.1717 -0.0607
 3044TIP3    H233328   1.672   0.164  20.643  0.4777 -1.2377 -0.2886
 3045TIP3   OH233329   0.367   0.035  19.210  0.4312 -0.0197 -0.0208
 3045TIP3    H133330   0.316   0.099  19.161 -0.9154 -1.7750 -1.0489
 3045TIP3    H233331   0.414  -0.015  19.143 -0.1170 -1.3713  0.5570
 3046TIP3   OH233332   0.908   2.567  19.835  0.2107 -0.1021  0.3027
 3046TIP3    H133333   0.925   2.521  19.917 -0.2535 -1.0595 -0.1276
 3046TIP3    H233334   0.824   2.610  19.848 -0.4206 -1.1937 -0.0582
 3047TIP3   OH233335   5.228   2.679  17.658  0.2309 -0.1154  0.8034
 3047TIP3    H133336   5.205   2.739  17.587  0.9618 -1.4355 -0.6119
 3047TIP3    H233337   5.230   2.734  17.736  0.1702  1.5549 -0.3133
 3048TIP3   OH233338   1.678   0.207  17.713  0.3484  0.1901 -0.3450
 3048TIP3    H133339   1.773   0.203  17.721  0.2786 -3.5095  0.5980
 3048TIP3    H233340   1.661   0.199  17.619  1.0144 -1.5815 -0.3485
 3049TIP3   OH233341   4.336   4.125  20.521  0.0627  0.0386  0.1347
 3049TIP3    H133342   4.263   4.098  20.577 -0.3401  0.8532  0.0123
 3049TIP3    H233343   4.414   4.094  20.567 -0.3841 -2.3932 -0.5644
 3050TIP3   OH233344   4.916   6.296  20.636  0.2570  0.1005 -0.0554
 3050TIP3    H133345   4.834   6.320  20.680  0.5325 -1.1399  1.1923
 3050TIP3    H233346   4.919   6.354  20.560 -1.8863  0.0348 -0.2688
 3051TIP3   OH233347   2.517   5.505  17.930 -0.0894 -0.1928  0.0905
 3051TIP3    H133348   2.487   5.435  17.987  0.3469  0.2288  0.8574
 3051TIP3    H233349   2.569   5.462  17.862  0.8931 -0.5437  1.0389
 3052TIP3   OH233350   0.987   3.803  19.045 -0.0542 -0.0342 -0.0315
 3052TIP3    H133351   1.073   3.835  19.018 -0.4519  0.6086 -0.5676
 3052TIP3    H233352   0.952   3.872  19.101 -0.0726 -0.4601  0.4913
 3053TIP3   OH233353   1.078   4.338  17.469  0.2610 -0.1395 -0.3473
 3053TIP3    H133354   1.018   4.299  17.532  1.5187 -1.8181 -0.1251
 3053TIP3    H233355   1.113   4.264  17.419  2.3421  0.7276 -0.2945
 3054TIP3   OH233356   5.074   0.288  20.575  0.2066 -0.2651 -0.6033
 3054TIP3    H133357   5.024   0.362  20.541 -0.9280 -1.8691 -2.6712
 3054TIP3    H233358   5.007   0.228  20.608  1.0533 -0.7802  0.2221
 3055TIP3   OH233359   6.495   5.310  20.555  0.1946  0.4383  0.1365
 3055TIP3    H133360   6.522   5.382  20.499 -0.5432 -0.4515 -1.4466
 3055TIP3    H233361   6.577   5.276  20.592  0.7859  0.6055 -0.9871
 3056TIP3   OH233362   3.021   4.246  19.707  0.3982  0.3847 -0.3133
 3056TIP3    H133363   2.932   4.278  19.691 -0.2681 -1.9989 -1.9185
 3056TIP3    H233364   3.073   4.284  19.636  0.2252  0.1430 -0.5686
 3057TIP3   OH233365   1.275   4.710  19.395  0.4930  0.9376 -0.3831
 3057TIP3    H133366   1.339   4.719  19.324  0.6773 -0.0789 -0.3648
 3057TIP3    H233367   1.295   4.625  19.435 -0.0285  1.1975  0.4727
 3058TIP3   OH233368   1.302   5.221  20.058 -0.2935 -0.3715  0.1109
 3058TIP3    H133369   1.234   5.289  20.063 -1.3928 -1.4861  1.5245
 3058TIP3    H233370   1.348   5.238  19.976 -1.1803  1.4544 -0.0613
 3059TIP3   OH233371   3.870   6.003  19.463 -0.3151 -0.2517 -0.2670
 3059TIP3    H133372   3.831   5.917  19.446 -0.0985 -0.1087 -1.5618
 3059TIP3    H233373   3.907   5.995  19.551  0.8802 -1.9495 -0.8702
 3060TIP3   OH233374   2.106   5.522  21.027 -0.2045  0.1621  0.0220
 3060TIP3    H133375   2.096   5.447  21.086  1.1888  0.1253  0.2339
 3060TIP3    H233376   2.102   5.483  20.939 -1.4850  0.1177  0.0763
 3061TIP3   OH233377   3.771   3.178  17.483 -0.2774 -0.1515  0.6110
 3061TIP3    H133378   3.860   3.144  17.471  0.5570  1.9462  0.3813
 3061TIP3    H233379   3.723   3.149  17.406  1.1036  1.2637 -0.8523
 3062TIP3   OH233380   2.454   0.596  20.128 -0.2529 -0.1212  0.4436
 3062TIP3    H133381   2.361   0.601  20.108  0.1832  1.0508 -1.6084
 3062TIP3    H233382   2.477   0.683  20.161  0.2775 -0.1244  0.1002
 3063TIP3   OH233383   2.944   0.441  19.467 -0.1803  0.7944  0.0711
 3063TIP3    H133384   3.018   0.387  19.495 -1.3134 -1.2051 -0.5047
 3063TIP3    H233385   2.982   0.506  19.408  1.0538 -0.6786 -0.8357
 3064TIP3   OH233386   2.259   0.171  17.870 -0.3155  0.0056 -0.0616
 3064TIP3    H133387   2.168   0.141  17.865 -0.4880  0.5357 -0.2330
 3064TIP3    H233388   2.272   0.219  17.788  1.1996 -2.9297 -1.7350
 3065TIP3   OH233389   0.055   0.552  20.751 -0.2864  0.3380  0.3427
 3065TIP3    H133390   0.022   0.613  20.817 -0.7630  0.3729  0.0731
 3065TIP3    H233391  -0.010   0.554  20.681 -0.2848 -0.4329  0.3043
 3066TIP3   OH233392   6.730   5.976  19.488  0.3367 -0.0127 -0.1963
 3066TIP3    H133393   6.645   5.997  19.450  0.8135  0.1451 -1.2018
 3066TIP3    H233394   6.727   5.881  19.502  0.8101 -0.4138 -2.3980
 3067TIP3   OH233395   0.215   4.004  19.203  0.1527  0.2729  0.0746
 3067TIP3    H133396   0.175   3.920  19.179  2.5094 -1.0697  0.4973
 3067TIP3    H233397   0.142   4.064  19.212 -1.6331 -1.7349 -0.2580
 3068TIP3   OH233398   3.298   6.699  20.497 -0.2458  0.5406 -0.0118
 3068TIP3    H133399   3.255   6.646  20.429  0.8778  0.4116 -0.6323
 3068TIP3    H233400   3.233   6.702  20.568 -1.1360  0.0365 -0.7736
 3069TIP3   OH233401   4.871   4.151  19.689 -0.6329 -0.9794 -0.2690
 3069TIP3    H133402   4.840   4.221  19.632  0.0490 -0.4856 -0.0533
 3069TIP3    H233403   4.795   4.095  19.703 -1.1408 -0.3738 -0.5850
 3070TIP3   OH233404   1.826   4.078  20.229  0.4549 -0.4904  0.2474
 3070TIP3    H133405   1.754   4.082  20.291  1.3250 -0.5105  1.3054
 3070TIP3    H233406   1.788   4.101  20.145 -0.6195  0.2408  0.9167
 3071TIP3   OH233407   3.792   4.842  19.358 -0.3392  0.2884 -0.8269
 3071TIP3    H133408   3.747   4.839  19.443 -0.7170  0.9083 -0.9992
 3071TIP3    H233409   3.868   4.785  19.369 -0.0545  0.8287  0.1239
 3072TIP3   OH233410   1.706   6.160  20.760 -0.2042 -0.4032  0.0198
 3072TIP3    H133411   1.791   6.120  20.780 -0.7664 -1.6861 -0.0780
 3072TIP3    H233412   1.642   6.101  20.800 -1.0915  0.1112 -0.6180
 3073TIP3   OH233413   2.905   5.592  18.919 -0.1742 -0.3974  0.1961
 3073TIP3    H133414   2.903   5.504  18.883 -0.2152 -0.4088  0.2260
 3073TIP3    H233415   2.981   5.593  18.977  1.2214  0.2778 -1.5470
 3074TIP3   OH233416   3.486   4.223  19.834 -0.6137 -0.2097  0.8563
 3074TIP3    H133417   3.393   4.202  19.827 -0.2157 -1.6368 -1.1736
 3074TIP3    H233418   3.517   4.170  19.908 -1.1963 -0.6162  0.8164
 3075TIP3   OH233419   5.390   5.134  20.921  0.3209  0.6361  0.1379
 3075TIP3    H133420   5.302   5.169  20.933  1.0978  2.3955  1.0879
 3075TIP3    H233421   5.436   5.201  20.870  1.0762 -0.3519 -0.5295
 3076TIP3   OH233422   2.155   2.733  19.594 -0.2988 -0.0337 -0.2834
 3076TIP3    H133423   2.089   2.682  19.642 -1.7395  1.1925 -0.8483
 3076TIP3    H233424   2.125   2.824  19.603  2.1612  0.7572  0.6853
 3077TIP3   OH233425   4.008   5.822  20.752 -0.0546  0.2213  0.0253
 3077TIP3    H133426   3.914   5.837  20.764 -0.2139 -0.1339 -0.7019
 3077TIP3    H233427   4.012   5.751  20.688  0.6922 -1.1845  1.5780
 3078TIP3   OH233428   2.360   4.183  18.022 -0.4684  0.1922  0.1968
 3078TIP3    H133429   2.444   4.157  17.984 -0.6331 -1.6151  0.9650
 3078TIP3    H233430   2.301   4.111  18.001 -1.2933  0.4901  1.3877
 3079TIP3   OH233431   0.878   1.493  20.574  0.9846 -0.4549 -0.8690
 3079TIP3    H133432   0.872   1.502  20.479 -2.1022  1.0988 -0.6790
 3079TIP3    H233433   0.862   1.400  20.590  0.4376 -0.5515 -1.8635
 3080TIP3   OH233434   0.431   4.372  19.768  0.0764  0.3185  1.3691
 3080TIP3    H133435   0.459   4.439  19.705  1.5399  0.7714  2.4436
 3080TIP3    H233436   0.338   4.390  19.782 -0.7900 -0.9144 -1.9399
 3081TIP3   OH233437   4.346   0.989  20.582 -0.1305  0.1434  0.1296
 3081TIP3    H133438   4.333   0.925  20.653  1.7129 -0.2599  0.1533
 3081TIP3    H233439   4.376   1.068  20.627  0.4757  0.0688 -0.1310
 3082TIP3   OH233440   5.964   1.162  20.375  0.3636 -0.2989  0.2674
 3082TIP3    H133441   5.927   1.156  20.463 -0.3547 -0.1942 -0.0199
 3082TIP3    H233442   5.889   1.178  20.319  0.9036  0.3280 -0.2875
 3083TIP3   OH233443   5.980   2.243  20.153  0.4033 -0.1702 -0.0355
 3083TIP3    H133444   6.069   2.268  20.129  0.0413  1.0674 -0.1464
 3083TIP3    H233445   5.982   2.235  20.248  0.2163  1.6631  0.1499
 3084TIP3   OH233446   4.201   0.085  20.255 -0.3123  0.1347 -0.5918
 3084TIP3    H133447   4.282   0.130  20.231 -0.5702  1.0435  0.1585
 3084TIP3    H233448   4.228   0.013  20.311  0.0151  0.1034 -0.7912
 3085TIP3   OH233449   3.996   1.624  17.640  0.1274  0.1966 -0.4197
 3085TIP3    H133450   4.077   1.674  17.635  0.4063 -0.0919  0.7652
 3085TIP3    H233451   3.978   1.597  17.550  0.9509  0.8714 -0.7975
 3086TIP3   OH233452   3.948   4.771  17.526  0.3203 -0.0466 -0.1550
 3086TIP3    H133453   3.979   4.797  17.439  1.3251 -0.3914  0.0859
 3086TIP3    H233454   3.881   4.706  17.509 -1.2931  1.6736 -0.7221
 3087TIP3   OH233455   3.518   0.800  19.050  0.0511 -0.3107 -0.1824
 3087TIP3    H133456   3.574   0.731  19.013  0.4899 -0.3801  0.5812
 3087TIP3    H233457   3.528   0.874  18.990  2.6556  0.4199  1.0114
 3088TIP3   OH233458   5.377   5.571  20.313 -0.6223 -0.0735 -0.4210
 3088TIP3    H133459   5.367   5.666  20.320  1.2444  0.1197  0.1961
 3088TIP3    H233460   5.435   5.549  20.386  0.1349 -1.4965 -1.4367
 3089TIP3   OH233461   5.893   5.975  18.229 -0.1034 -0.3454  0.0256
 3089TIP3    H133462   5.876   6.066  18.205  0.5843  0.0246  0.9205
 3089TIP3    H233463   5.829   5.955  18.297 -0.7214 -0.7631 -0.6639
 3090TIP3   OH233464   0.456   0.910  18.509 -0.1914  0.1896  0.2914
 3090TIP3    H133465   0.388   0.964  18.467 -1.0696  0.2795  1.7626
 3090TIP3    H233466   0.483   0.848  18.441 -1.8659  0.0556 -0.2936
 3091TIP3   OH233467   3.506   5.520  16.510  0.0480 -0.1459  0.5535
 3091TIP3    H133468   3.471   5.587  16.568  0.1883 -0.0456  0.5241
 3091TIP3    H233469   3.441   5.450  16.511 -0.0218 -0.0781  0.7108
 3092TIP3   OH233470   3.557   1.792  20.791  0.6408  0.1058  0.1963
 3092TIP3    H133471   3.473   1.749  20.775  0.4880  0.5529 -0.2373
 3092TIP3    H233472   3.560   1.863  20.727  0.0178  1.9930  2.1492
 3093TIP3   OH233473   0.553   3.957  20.538 -0.6782 -0.3102  0.1470
 3093TIP3    H133474   0.517   4.030  20.589 -1.8145  0.2650 -1.3899
 3093TIP3    H233475   0.635   3.991  20.501  0.2270 -0.7800  1.6410
 3094TIP3   OH233476   5.291   1.917  17.800 -0.2773 -0.0370 -0.6901
 3094TIP3    H133477   5.334   1.835  17.775 -0.9686 -0.2703 -1.1539
 3094TIP3    H233478   5.269   1.906  17.892  0.0283 -0.1968 -0.6353
 3095TIP3   OH233479   4.101   0.241  20.547 -0.0454 -0.5023  0.2870
 3095TIP3    H133480   4.017   0.221  20.507  0.7675 -3.2524 -0.2635
 3095TIP3    H233481   4.080   0.263  20.638 -1.5304  1.6578 -0.4970
 3096TIP3   OH233482   4.355   3.636  18.629  0.2461  0.0222 -0.0274
 3096TIP3    H133483   4.339   3.694  18.554 -0.9441 -0.9213 -0.5509
 3096TIP3    H233484   4.395   3.557  18.590 -0.6726 -0.6021  0.2526
 3097TIP3   OH233485   1.987   4.101  19.259 -0.2323  0.3401 -0.3102
 3097TIP3    H133486   2.061   4.044  19.236 -0.9106 -0.7105  0.0524
 3097TIP3    H233487   1.975   4.088  19.353 -0.1971  1.3549 -0.1465
 3098TIP3   OH233488   4.993   3.826  18.043  0.9682 -0.0274 -0.3603
 3098TIP3    H133489   5.021   3.744  18.002 -0.1570 -0.6280  0.0140
 3098TIP3    H233490   5.049   3.835  18.121  0.9126 -0.5866 -0.2534
 3099TIP3   OH233491   1.919   5.040  19.733 -0.2246 -0.3976  0.0579
 3099TIP3    H133492   1.847   4.980  19.752 -0.0185 -0.5566  0.3399
 3099TIP3    H233493   1.964   5.051  19.817 -0.7826  0.8415  0.2211
 3100TIP3   OH233494   0.360   6.427  18.330  0.0664  0.4824 -0.3357
 3100TIP3    H133495   0.292   6.456  18.270  0.0023 -0.1370 -0.5673
 3100TIP3    H233496   0.316   6.364  18.387  0.2793  0.6054 -0.0299
 3101TIP3   OH233497   0.313   1.547  19.841  0.1256 -0.8152 -0.1783
 3101TIP3    H133498   0.350   1.472  19.797  0.0577 -1.1978  0.4044
 3101TIP3    H233499   0.336   1.622  19.786 -0.9071 -1.4006 -1.4348
 3102TIP3   OH233500   1.040   6.585  19.554 -0.1054  0.5285  0.3789
 3102TIP3    H133501   1.016   6.630  19.634 -0.5199 -0.9332  1.1120
 3102TIP3    H233502   0.957   6.573  19.507 -0.1674 -0.3812  0.6973
 3103TIP3   OH233503   4.044   3.382  20.584 -0.5838 -0.6717 -0.2950
 3103TIP3    H133504   4.019   3.292  20.564 -0.8582 -0.3709 -1.3754
 3103TIP3    H233505   4.123   3.397  20.531 -0.5647 -0.2648 -0.1564
 3104TIP3   OH233506   1.173   4.196  19.157  0.1157 -0.3682 -0.8073
 3104TIP3    H133507   1.150   4.262  19.222  2.5377 -2.2687  2.3041
 3104TIP3    H233508   1.098   4.136  19.156 -1.2206  1.2158 -2.1557
 3105TIP3   OH233509   2.655   1.381  19.985 -0.0799  0.5441  0.0852
 3105TIP3    H133510   2.666   1.305  19.928  0.1806  0.6415  0.0005
 3105TIP3    H233511   2.617   1.448  19.929  0.0706  0.6043  0.0553
 3106TIP3   OH233512   2.518   1.541  19.794 -0.0373 -1.0965  0.4852
 3106TIP3    H133513   2.503   1.504  19.707  0.2192  0.9173 -0.4719
 3106TIP3    H233514   2.433   1.534  19.838 -0.3478 -1.5194 -0.1614
 3107TIP3   OH233515   0.959   0.456  18.552  0.9119  0.2079  0.2123
 3107TIP3    H133516   0.868   0.435  18.576  0.5149  0.1906 -1.2140
 3107TIP3    H233517   1.005   0.373  18.559  0.8519  0.2264  1.0014
 3108TIP3   OH233518   4.253   1.083  19.388  0.0892 -0.3943 -0.2055
 3108TIP3    H133519   4.186   1.016  19.405 -0.1663  0.4431  2.5988
 3108TIP3    H233520   4.336   1.035  19.392 -0.1950 -1.1313 -1.9890
 3109TIP3   OH233521   5.897   2.123  20.609  0.0039 -0.2903 -0.2434
 3109TIP3    H133522   5.832   2.057  20.634 -2.0343  1.6089 -0.1302
 3109TIP3    H233523   5.845   2.203  20.598  2.3640  1.3242 -0.2414
 3110TIP3   OH233524   3.960   6.012  18.176 -0.5356  0.0135 -0.4784
 3110TIP3    H133525   3.918   6.052  18.251  0.0723 -0.3705  0.0754
 3110TIP3    H233526   3.913   6.047  18.100 -1.1739  0.3686  0.0798
 3111TIP3   OH233527   0.715   6.467  18.705  0.4491 -0.6579  0.0720
 3111TIP3    H133528   0.743   6.545  18.753 -1.6625  0.5060 -0.4648
 3111TIP3    H233529   0.643   6.431  18.757  1.7532 -2.6385  0.6065
 3112TIP3   OH233530   1.882   2.144  19.826 -0.5153  0.4587 -0.0402
 3112TIP3    H133531   1.835   2.166  19.907 -0.5484  0.1317  0.0285
 3112TIP3    H233532   1.972   2.171  19.843 -0.5662  0.5940  0.0245
 3113TIP3   OH233533   0.823   2.333  20.006 -0.1007  0.4892 -0.1521
 3113TIP3    H133534   0.792   2.276  19.935  0.7194  0.6859 -0.6823
 3113TIP3    H233535   0.820   2.277  20.084 -2.3998  0.6955 -0.0204
 3114TIP3   OH233536   4.150   5.483  19.594  0.1224  0.1351 -0.0609
 3114TIP3    H133537   4.170   5.419  19.525 -0.7902 -1.5780  1.1976
 3114TIP3    H233538   4.085   5.540  19.555 -0.2525 -0.6987 -0.6989
 3115TIP3   OH233539   3.275   6.625  20.112  0.0437 -0.3769  0.1500
 3115TIP3    H133540   3.351   6.651  20.060 -0.7626  0.0596 -0.8452
 3115TIP3    H233541   3.217   6.701  20.109 -0.3430 -0.6216  1.0933
 3116TIP3   OH233542   2.163   4.465  19.143  0.3064 -0.0373  0.6022
 3116TIP3    H133543   2.127   4.415  19.069 -0.9721  0.4479  0.8730
 3116TIP3    H233544   2.257   4.469  19.125  0.0405 -0.0084 -0.9666
 3117TIP3   OH233545   1.069   4.467  17.990  0.2508 -0.3713 -0.0132
 3117TIP3    H133546   1.092   4.384  18.032 -0.0241 -0.8734 -0.8255
 3117TIP3    H233547   1.019   4.441  17.912  0.9330  0.5228 -0.7643
 3118TIP3   OH233548   5.543   6.341  19.869 -0.5682  0.0732 -0.1791
 3118TIP3    H133549   5.602   6.406  19.832 -1.0446  2.5994  3.0295
 3118TIP3    H233550   5.464   6.347  19.816  0.2770  0.3132 -1.4408
 3119TIP3   OH233551   5.890   3.389  20.192  0.1426  0.1774  0.2918
 3119TIP3    H133552   5.804   3.391  20.234  0.1786 -0.8165  0.4416
 3119TIP3    H233553   5.946   3.441  20.249 -0.0192 -0.4151  0.9995
 3120TIP3   OH233554   0.408   1.321  19.751 -0.4519 -0.3833  0.1687
 3120TIP3    H133555   0.471   1.320  19.679  0.2567  0.5726  0.7564
 3120TIP3    H233556   0.436   1.250  19.809 -0.5073 -0.5932 -0.0612
 3121TIP3   OH233557   0.275   2.435  17.745  0.6626  0.2863  0.3245
 3121TIP3    H133558   0.225   2.407  17.822  0.4662 -1.0541 -0.2524
 3121TIP3    H233559   0.366   2.420  17.769  0.6141  0.0988  0.4004
 3122TIP3   OH233560   5.474   1.575  20.804 -0.1470 -0.0811  0.6629
 3122TIP3    H133561   5.415   1.551  20.875  1.1781 -0.1891  1.7853
 3122TIP3    H233562   5.528   1.645  20.841  0.4774 -0.0374 -0.2940
 3123TIP3   OH233563   4.784   4.046  18.999  0.0050 -0.2810 -0.0639
 3123TIP3    H133564   4.688   4.042  18.989 -0.0633  2.1186 -1.1646
 3123TIP3    H233565   4.798   4.113  19.066  0.9396 -1.3669  0.8695
 3124TIP3   OH233566   2.044   3.576  20.532  0.0149 -0.3415 -0.1567
 3124TIP3    H133567   2.053   3.651  20.474  0.6828 -0.1231  0.2179
 3124TIP3    H233568   2.123   3.578  20.587 -0.8830 -0.1845  1.1798
 3125TIP3   OH233569   3.622   3.432  19.108  0.2591  0.2275 -0.0509
 3125TIP3    H133570   3.688   3.486  19.065  0.0545  0.4346 -0.1036
 3125TIP3    H233571   3.570   3.494  19.160  0.8656 -0.0885  0.9520
 3126TIP3   OH233572   5.092   4.658  20.736 -0.5363  0.3121  0.5558
 3126TIP3    H133573   5.126   4.570  20.754 -0.4994  0.1704 -0.1887
 3126TIP3    H233574   5.165   4.704  20.696 -0.0573  1.1845  2.3510
 3127TIP3   OH233575   3.928   6.058  20.466  0.6368 -0.4109  0.2019
 3127TIP3    H133576   3.872   6.129  20.498  1.4931 -0.1189  1.1094
 3127TIP3    H233577   3.983   6.099  20.399  1.1609 -0.1890  0.7561
 3128TIP3   OH233578   1.953   2.839  20.409  0.0734 -0.7116 -0.1392
 3128TIP3    H133579   2.003   2.883  20.478  0.0224 -1.5168  0.4237
 3128TIP3    H233580   1.897   2.908  20.373  1.4345  0.1563 -0.6643
 3129TIP3   OH233581   4.792   4.182  20.246  0.5018  0.0360 -0.5514
 3129TIP3    H133582   4.796   4.104  20.191  3.7123  0.1242 -0.6032
 3129TIP3    H233583   4.770   4.149  20.333  2.4071 -1.0762 -0.4360
 3130TIP3   OH233584   3.820   1.319  18.307  0.2363  0.0747 -0.2315
 3130TIP3    H133585   3.738   1.364  18.289 -1.2176 -1.9680  0.8826
 3130TIP3    H233586   3.834   1.264  18.230 -0.1480 -0.5422  0.1345
 3131TIP3   OH233587   1.365   1.860  19.876 -0.2160  0.0429 -0.4255
 3131TIP3    H133588   1.343   1.875  19.784  3.8302  1.2911 -1.4013
 3131TIP3    H233589   1.401   1.771  19.877 -2.7389 -1.0492  0.6220
 3132TIP3   OH233590   6.214   0.493  19.992 -0.4804  0.0767  0.3779
 3132TIP3    H133591   6.173   0.413  20.024  1.2731  0.1815  3.2884
 3132TIP3    H233592   6.307   0.482  20.011  0.0419  2.1651 -0.5912
 3133TIP3   OH233593   3.777   3.292  20.687  0.1306  0.7853 -0.4898
 3133TIP3    H133594   3.747   3.230  20.621  0.8865 -0.7807  0.5710
 3133TIP3    H233595   3.864   3.319  20.657  0.1242  0.7321 -0.5552
 3134TIP3   OH233596   6.116   3.510  18.714  0.4499 -0.3028  0.3209
 3134TIP3    H133597   6.087   3.561  18.639  1.3180 -0.4694 -0.1360
 3134TIP3    H233598   6.049   3.441  18.723 -0.2306  0.3548  0.3774
 3135TIP3   OH233599   3.748   5.376  18.099 -0.1385 -0.1306 -0.0522
 3135TIP3    H133600   3.738   5.292  18.144  0.2810 -0.4217 -0.4978
 3135TIP3    H233601   3.674   5.380  18.038 -0.6591  0.2265  0.5793
 3136TIP3   OH233602   0.869   5.555  19.144  0.1146  0.1356 -0.4226
 3136TIP3    H133603   0.845   5.462  19.140 -0.0897  0.2058 -0.9138
 3136TIP3    H233604   0.869   5.575  19.237  2.0672 -0.8465 -0.1646
 3137TIP3   OH233605   0.772   2.992  20.092  0.0102 -0.0821  0.0413
 3137TIP3    H133606   0.783   3.024  20.182  0.4831  0.1292 -0.0887
 3137TIP3    H233607   0.855   3.013  20.049  0.0494 -0.8302 -0.2525
 3138TIP3   OH233608   2.434   2.981  19.740 -0.0491  0.3920  0.1164
 3138TIP3    H133609   2.345   3.015  19.727 -0.1782  0.7288  1.7529
 3138TIP3    H233610   2.427   2.888  19.717 -0.4771  0.7163 -1.1295
 3139TIP3   OH233611   4.937   2.386  19.162 -0.2560  0.1055 -0.2513
 3139TIP3    H133612   5.010   2.372  19.222  2.5473  1.9780 -2.8941
 3139TIP3    H233613   4.892   2.464  19.196  0.2652  0.1737  0.2850
 3140TIP3   OH233614   1.949   2.358  19.548 -0.5651  0.2604 -0.6015
 3140TIP3    H133615   1.937   2.264  19.560 -1.2493  0.6211  2.0043
 3140TIP3    H233616   2.006   2.365  19.471  0.1255 -2.2985 -0.4006
 3141TIP3   OH233617   4.390   5.365  19.729  0.4891  0.6746 -0.0403
 3141TIP3    H133618   4.384   5.284  19.780  1.2045  0.2665 -0.5778
 3141TIP3    H233619   4.310   5.366  19.677  0.1528  0.6663  0.4736
 3142TIP3   OH233620   5.065   4.664  18.234 -0.5748 -0.0873 -0.3279
 3142TIP3    H133621   5.028   4.617  18.309 -0.0674  0.0435  0.0056
 3142TIP3    H233622   5.156   4.637  18.231  0.3969  2.5321  1.2781
 3143TIP3   OH233623   1.475   6.120  18.178 -0.1969 -0.5330 -0.3324
 3143TIP3    H133624   1.475   6.114  18.082  1.0991  1.5434 -0.5423
 3143TIP3    H233625   1.523   6.201  18.196 -2.5320  0.4485  2.0102
 3144TIP3   OH233626   2.490   1.819  18.622 -0.3457 -0.4806 -0.2823
 3144TIP3    H133627   2.497   1.832  18.716 -2.2791 -1.5035  0.0276
 3144TIP3    H233628   2.448   1.899  18.590 -1.7381 -1.0715  0.0434
 3145TIP3   OH233629   3.225   4.605  19.150  0.7609 -0.5895 -1.0169
 3145TIP3    H133630   3.308   4.573  19.114  1.4803 -0.5242  0.5380
 3145TIP3    H233631   3.185   4.528  19.189  1.4499 -0.1152  0.7395
 3146TIP3   OH233632   2.091   4.131  20.307 -0.1074  0.1010  0.3195
 3146TIP3    H133633   2.128   4.078  20.236  0.0188  1.4269 -0.6427
 3146TIP3    H233634   1.997   4.122  20.297 -0.1529  1.9235 -1.3635
 3147TIP3   OH233635   5.401   1.905  20.507 -0.6774  0.6586 -0.3158
 3147TIP3    H133636   5.429   1.813  20.508  2.0692  1.3700 -1.2158
 3147TIP3    H233637   5.444   1.943  20.583 -1.0162  1.3970 -0.4891
 3148TIP3   OH233638   5.653   5.037  17.898  0.0496  0.0484  0.3955
 3148TIP3    H133639   5.618   5.014  17.812  0.5327  0.0473  0.1942
 3148TIP3    H233640   5.746   5.015  17.892 -0.2475 -1.7188  1.5343
 3149TIP3   OH233641   5.190   3.167  20.204 -0.7288 -0.3395 -0.5989
 3149TIP3    H133642   5.186   3.250  20.251  0.2099 -0.2505 -0.6577
 3149TIP3    H233643   5.204   3.192  20.113  0.2590 -0.5621 -0.5206
 3150TIP3   OH233644   3.292   0.629  19.110  0.6034  0.0486 -0.1405
 3150TIP3    H133645   3.347   0.706  19.095 -0.2500  0.4623 -1.3240
 3150TIP3    H233646   3.260   0.605  19.023  0.0913 -1.0761  0.3352
 3151TIP3   OH233647   3.844   5.546  17.442 -0.3317 -0.0451  0.1003
 3151TIP3    H133648   3.815   5.582  17.358 -1.6252 -0.9217  0.1571
 3151TIP3    H233649   3.827   5.616  17.505 -0.8378  0.0263 -0.1171
 3152TIP3   OH233650   6.418   4.173  18.488 -0.1237 -0.4522 -0.7705
 3152TIP3    H133651   6.429   4.266  18.511  0.4775 -0.6832 -0.0847
 3152TIP3    H233652   6.325   4.164  18.471 -0.7197 -0.3140  1.9790
 3153TIP3   OH233653   4.114   3.478  19.725 -0.4200 -0.0806  0.0722
 3153TIP3    H133654   4.090   3.413  19.659 -1.6048  0.1460  0.2584
 3153TIP3    H233655   4.208   3.491  19.713 -0.8674  1.3419 -2.8603
 3154TIP3   OH233656   3.561   6.265  20.328  0.1591 -0.1373 -0.0296
 3154TIP3    H133657   3.488   6.302  20.277  0.4476  1.7069  0.7883
 3154TIP3    H233658   3.634   6.324  20.311  0.2842  0.5286  2.3903
 3155TIP3   OH233659   4.778   2.626  19.329  0.4875  0.0576  0.1633
 3155TIP3    H133660   4.752   2.696  19.269  0.1456  0.9310  1.2837
 3155TIP3    H233661   4.844   2.666  19.385  1.1560 -0.8884  0.0658
 3156TIP3   OH233662   6.502   2.586  19.283  0.3456 -0.0752  0.3080
 3156TIP3    H133663   6.444   2.549  19.349  0.5167  0.5344  0.8095
 3156TIP3    H233664   6.548   2.657  19.328  0.3609  0.4431 -0.5089
 3157TIP3   OH233665   3.279   3.495  20.068  0.2918 -0.1459 -0.3397
 3157TIP3    H133666   3.217   3.443  20.120  1.2772 -0.6610  0.3674
 3157TIP3    H233667   3.273   3.459  19.980  2.1205 -2.6533  0.4577
 3158TIP3   OH233668   1.466   6.516  18.409  0.1698  0.0680  1.0223
 3158TIP3    H133669   1.533   6.448  18.414  0.6807  0.0691 -2.7392
 3158TIP3    H233670   1.383   6.469  18.419  0.5881 -0.7177  0.8757
 3159TIP3   OH233671   2.026   5.379  18.590  0.0803  0.4427 -0.4999
 3159TIP3    H133672   2.110   5.420  18.567  0.1342  0.9181  0.5077
 3159TIP3    H233673   1.972   5.452  18.622  0.2828 -0.2793  1.6266
 3160TIP3   OH233674   5.118   3.606  20.343  0.0391 -0.1654 -0.2162
 3160TIP3    H133675   5.030   3.642  20.335  0.1468 -0.1489 -1.5906
 3160TIP3    H233676   5.135   3.566  20.258  1.5365  0.2549 -0.1411
 3161TIP3   OH233677   1.362   5.714  19.584  0.1376  0.0445  0.1031
 3161TIP3    H133678   1.385   5.754  19.500 -1.2008  1.8653  0.5461
 3161TIP3    H233679   1.439   5.729  19.639  1.4792 -2.1475 -1.0479
 3162TIP3   OH233680   3.494   0.781  18.384  0.0006 -0.1046 -0.3124
 3162TIP3    H133681   3.449   0.812  18.463  0.3499  0.5438 -0.3565
 3162TIP3    H233682   3.570   0.734  18.418 -1.0436 -1.8112 -0.2171
 3163TIP3   OH233683   1.033   5.917  18.257  0.2979  0.2032  0.1643
 3163TIP3    H133684   1.051   5.885  18.168  0.4718 -1.2301  0.6889
 3163TIP3    H233685   0.940   5.940  18.256  0.5418  1.2467 -0.6763
 3164TIP3   OH233686   1.118   0.180  18.827 -0.0169 -0.7052  0.1397
 3164TIP3    H133687   1.062   0.189  18.750 -0.3407 -2.4561  0.1438
 3164TIP3    H233688   1.059   0.151  18.897  0.8432 -2.5374  0.1531
 3165TIP3   OH233689   4.156   3.099  18.470 -0.2668  0.3509 -0.5874
 3165TIP3    H133690   4.245   3.113  18.439 -0.5679 -0.4196 -1.8410
 3165TIP3    H233691   4.167   3.061  18.558  0.6393  0.1037 -0.7991
 3166TIP3   OH233692   6.191   1.833  20.229  1.0938  0.1030 -0.6384
 3166TIP3    H133693   6.132   1.840  20.304 -0.6799 -1.0671 -1.8352
 3166TIP3    H233694   6.232   1.919  20.222  0.2458  0.6645  0.8090
 3167TIP3   OH233695   1.993   3.784  18.757 -0.6210  0.8530  0.1456
 3167TIP3    H133696   1.904   3.806  18.731 -1.1815 -1.8500 -0.5141
 3167TIP3    H233697   2.048   3.846  18.710 -2.0826  1.9782 -0.1453
 3168TIP3   OH233698   6.044   3.768  19.367  0.0882  0.9992 -0.2695
 3168TIP3    H133699   5.998   3.732  19.291  0.2991 -1.3421  0.6168
 3168TIP3    H233700   5.974   3.798  19.426 -0.2428 -0.3725  0.0631
 3169TIP3   OH233701   3.065   3.119  18.967  0.0649 -0.0233 -0.6843
 3169TIP3    H133702   3.139   3.072  18.929  0.3050  0.2621 -0.5783
 3169TIP3    H233703   3.023   3.056  19.024  0.6845  0.0357 -0.1476
 3170TIP3   OH233704   3.126   5.255  19.423 -0.1045 -0.0518 -0.2157
 3170TIP3    H133705   3.065   5.198  19.377  2.5931 -1.6377 -2.1341
 3170TIP3    H233706   3.136   5.331  19.365 -0.1100  0.1076 -0.0094
 3171TIP3   OH233707   0.178   0.206  18.167  0.2333  0.5018  0.0976
 3171TIP3    H133708   0.145   0.218  18.078 -0.4971 -2.7474 -0.1896
 3171TIP3    H233709   0.271   0.228  18.161  0.2696  0.0389 -1.5713
 3172TIP3   OH233710   3.793   5.545  19.068 -0.0208 -0.2771 -0.2639
 3172TIP3    H133711   3.788   5.451  19.049 -1.8289 -0.5035  1.0647
 3172TIP3    H233712   3.721   5.583  19.018  0.2655  0.3096 -0.2329
 3173TIP3   OH233713   1.853   2.589  18.822  0.6648  0.2183 -0.3906
 3173TIP3    H133714   1.860   2.584  18.727  0.5057  0.3662 -0.4108
 3173TIP3    H233715   1.942   2.573  18.854  0.6609 -0.1269 -0.5513
 3174TIP3   OH233716   4.161   2.539  19.430 -0.0445 -0.5976  0.7120
 3174TIP3    H133717   4.147   2.614  19.488 -1.4930 -0.2401 -0.0709
 3174TIP3    H233718   4.247   2.554  19.391 -1.0860  1.6858 -0.8975
 3175TIP3   OH233719   5.932   3.855  20.428 -0.4954  0.4164 -0.7289
 3175TIP3    H133720   6.006   3.828  20.482 -0.4695  2.0164  0.1095
 3175TIP3    H233721   5.919   3.947  20.450  0.2563  1.5450 -4.3238
 3176TIP3   OH233722   4.428   0.984  17.026  0.0630 -0.3224  0.3434
 3176TIP3    H133723   4.347   0.971  17.075  0.1126  0.4825  0.6670
 3176TIP3    H233724   4.428   0.915  16.960 -1.6983  0.6289 -0.7329
 3177TIP3   OH233725   2.124   5.489  20.349  0.1276 -1.0330  0.6137
 3177TIP3    H133726   2.091   5.556  20.409  2.7157 -0.9102  2.0783
 3177TIP3    H233727   2.049   5.432  20.333 -1.1199 -0.0826  2.6310
 3178TIP3   OH233728   4.481   0.871  19.107  1.0836 -0.1025  0.3169
 3178TIP3    H133729   4.537   0.881  19.030  1.0088  0.3421  0.3189
 3178TIP3    H233730   4.431   0.952  19.111  0.5866 -0.4146  0.4363
 3179TIP3   OH233731   4.610   2.452  19.981  0.1015  0.0260  0.2389
 3179TIP3    H133732   4.570   2.516  19.923 -0.1321  1.1336  1.5609
 3179TIP3    H233733   4.640   2.503  20.056  1.7531 -1.1329  0.4309
 3180TIP3   OH233734   1.654   5.482  20.080  0.2225  0.1872  0.5814
 3180TIP3    H133735   1.583   5.529  20.125 -2.3879 -1.1364 -1.7778
 3180TIP3    H233736   1.631   5.390  20.089  1.2017 -0.2460 -0.9062
 3181TIP3   OH233737   6.256   5.301  20.455  0.2093  0.0427  0.1996
 3181TIP3    H133738   6.340   5.281  20.496  0.0954 -0.6830  0.0959
 3181TIP3    H233739   6.267   5.389  20.419  0.5761  0.3617  1.0743
 3182TIP3   OH233740   4.728   2.686  18.330 -0.4022 -0.3813 -0.2048
 3182TIP3    H133741   4.657   2.660  18.389  1.1011 -1.1154  1.3701
 3182TIP3    H233742   4.761   2.604  18.295  0.0569 -0.0901 -0.4648
 3183TIP3   OH233743   0.071   1.539  18.892 -0.1865  0.0979  0.1868
 3183TIP3    H133744   0.032   1.452  18.890 -0.3797  0.1858  0.0893
 3183TIP3    H233745   0.117   1.543  18.975  0.0102 -0.1783  0.0947
 3184TIP3   OH233746   3.886   0.220  18.803  0.0392 -0.5030  0.8609
 3184TIP3    H133747   3.882   0.128  18.777  0.2923 -0.2992  0.0746
 3184TIP3    H233748   3.832   0.225  18.882 -1.8921 -0.8815 -0.3799
 3185TIP3   OH233749   2.674   1.604  18.862 -0.4575  0.1757  0.5214
 3185TIP3    H133750   2.584   1.582  18.886 -1.3339 -0.1646 -2.7063
 3185TIP3    H233751   2.698   1.539  18.797  0.9550  2.1631 -1.0610
 3186TIP3   OH233752   5.194   4.658  17.084 -0.2150  0.0683 -0.5519
 3186TIP3    H133753   5.184   4.563  17.077  1.8792 -0.4626  1.9869
 3186TIP3    H233754   5.282   4.676  17.050 -1.0194  1.3027 -2.0918
 3187TIP3   OH233755   0.357   3.786  20.497  0.3823  0.5434 -0.2005
 3187TIP3    H133756   0.335   3.700  20.532  1.4606  0.6579  0.8118
 3187TIP3    H233757   0.434   3.814  20.546  0.3521  1.8828 -0.8466
 3188TIP3   OH233758   2.202   6.487  18.101  0.3551 -0.5730 -0.3833
 3188TIP3    H133759   2.236   6.543  18.032  0.8672  0.8673  0.9770
 3188TIP3    H233760   2.206   6.541  18.180  0.8531 -2.5276  0.9938
 3189TIP3   OH233761   4.401   0.308  17.244  0.2603  0.1690  0.4990
 3189TIP3    H133762   4.381   0.390  17.199 -0.4417  0.5881  1.5246
 3189TIP3    H233763   4.452   0.257  17.181 -0.7661  0.6754 -0.7900
 3190TIP3   OH233764   2.431   0.097  20.729 -0.3958  0.4466  0.4019
 3190TIP3    H133765   2.430   0.139  20.643  1.6235  2.8289  1.4080
 3190TIP3    H233766   2.501   0.032  20.724 -1.1315 -0.3367 -0.0806
 3191TIP3   OH233767   3.960   0.077  20.098 -0.1416  0.8949  0.4234
 3191TIP3    H133768   4.043   0.051  20.138  0.3129  0.4999 -0.7284
 3191TIP3    H233769   3.925   0.145  20.156  1.1349  1.2862  0.7619
 3192TIP3   OH233770   3.764   6.456  17.107  0.6200  0.6400  0.1818
 3192TIP3    H133771   3.833   6.518  17.083 -0.5340  1.9282  0.0665
 3192TIP3    H233772   3.685   6.510  17.114 -0.7554 -1.0595 -1.4733
 3193TIP3   OH233773   4.414   2.657  20.678  0.3006 -0.0514  0.0905
 3193TIP3    H133774   4.350   2.724  20.656 -0.7800 -0.5562  1.4610
 3193TIP3    H233775   4.436   2.616  20.595 -0.3887  0.8189 -0.5394
 3194TIP3   OH233776   5.533   5.505  18.599  0.0457 -0.1278 -0.4218
 3194TIP3    H133777   5.557   5.456  18.520 -1.8226 -0.2745 -0.9350
 3194TIP3    H233778   5.506   5.437  18.661  0.5514  0.0594  0.0096
 3195TIP3   OH233779   4.929   3.167  18.928 -0.2807  0.1988 -0.3219
 3195TIP3    H133780   4.903   3.076  18.911 -0.5432  0.1015  0.5825
 3195TIP3    H233781   4.975   3.164  19.011  0.9382  0.6913 -0.9568
 3196TIP3   OH233782   1.442   6.028  19.681  0.0531  0.2384  0.4310
 3196TIP3    H133783   1.473   5.938  19.692 -1.7040 -0.3558  0.9097
 3196TIP3    H233784   1.385   6.024  19.604 -3.4783 -0.1430  2.8339
 3197TIP3   OH233785   4.042   2.817  18.830  0.0704 -0.2337 -0.2341
 3197TIP3    H133786   3.952   2.844  18.809  0.0537  1.2542  1.4435
 3197TIP3    H233787   4.074   2.775  18.751 -2.3079 -1.3575 -0.6842
 3198TIP3   OH233788   4.633   4.401  19.497 -0.0355  0.4753 -0.6840
 3198TIP3    H133789   4.649   4.434  19.585  0.7821  1.2817 -1.1173
 3198TIP3    H233790   4.717   4.409  19.452 -0.3776 -0.1550 -1.4664
 3199TIP3   OH233791   3.866   1.858  18.837  0.0949 -0.7502  0.0006
 3199TIP3    H133792   3.948   1.855  18.787 -0.6628  1.4033 -1.5376
 3199TIP3    H233793   3.803   1.814  18.781 -0.0694 -1.3257  0.6299
 3200TIP3   OH233794   3.046   5.794  17.887 -0.0873  0.1826  0.2191
 3200TIP3    H133795   3.076   5.826  17.973 -0.1442 -0.2692  0.4096
 3200TIP3    H233796   3.096   5.847  17.824 -0.1302  0.6002  0.5244
 3201TIP3   OH233797   1.613   1.390  18.197  0.1998 -0.2539 -0.0334
 3201TIP3    H133798   1.547   1.421  18.259  1.7061  0.5725  1.2655
 3201TIP3    H233799   1.618   1.458  18.130 -3.1086 -2.2139 -2.5906
 3202TIP3   OH233800   5.553   4.644  19.377  0.1047  0.0378  0.0196
 3202TIP3    H133801   5.516   4.568  19.422 -2.2371 -0.6117 -2.6711
 3202TIP3    H233802   5.524   4.634  19.286 -0.4822  4.2645 -0.4532
 3203TIP3   OH233803   6.521   1.385  18.482  0.2630 -0.4374  0.3667
 3203TIP3    H133804   6.455   1.442  18.442  1.1181  0.9771  0.9010
 3203TIP3    H233805   6.473   1.339  18.552 -1.2595 -2.9878 -2.1444
 3204TIP3   OH233806   0.129   3.837  20.111 -0.5658 -0.6857 -0.7781
 3204TIP3    H133807   0.199   3.777  20.087  0.1466  0.8525 -2.8516
 3204TIP3    H233808   0.169   3.897  20.175 -0.3623 -0.5893 -0.9944
 3205TIP3   OH233809   0.931   0.828  18.053  0.1393  0.5093  0.0927
 3205TIP3    H133810   0.867   0.758  18.064  0.0451  0.4598 -0.6842
 3205TIP3    H233811   0.886   0.893  17.999  0.5896  0.6829 -0.0798
 3206TIP3   OH233812   6.189   2.311  19.276 -0.2823 -0.0315 -0.1031
 3206TIP3    H133813   6.257   2.283  19.214 -0.8319  1.7720 -1.5990
 3206TIP3    H233814   6.233   2.311  19.361  1.4869  0.6706 -0.9688
 3207TIP3   OH233815   0.334   0.224  20.181 -0.0151  0.3564  0.6115
 3207TIP3    H133816   0.242   0.210  20.159 -0.1210 -1.9510  2.2317
 3207TIP3    H233817   0.333   0.257  20.271  0.7367  1.8075  0.1314
 3208TIP3   OH233818   4.767   6.369  18.457 -0.1293 -0.6972  0.5280
 3208TIP3    H133819   4.718   6.309  18.513  0.8138 -2.0387 -0.0272
 3208TIP3    H233820   4.809   6.430  18.517 -0.7623 -0.8705  1.1442
 3209TIP3   OH233821   3.138   5.153  17.828  0.1276  0.0752 -0.3429
 3209TIP3    H133822   3.043   5.150  17.821  0.0639 -1.8619  0.4710
 3209TIP3    H233823   3.169   5.098  17.755  0.6059  0.4616 -0.4338
 3210TIP3   OH233824   3.512   1.326  19.525 -0.8340  0.4532 -0.4026
 3210TIP3    H133825   3.508   1.231  19.519  1.0412  0.2419  0.8715
 3210TIP3    H233826   3.559   1.343  19.606 -2.2347  2.5196  0.0541
 3211TIP3   OH233827   3.380   5.663  18.508  0.7426  0.3589 -0.8222
 3211TIP3    H133828   3.343   5.741  18.467 -1.5462  1.1336  2.3148
 3211TIP3    H233829   3.330   5.590  18.470 -1.2184  1.0300  0.3073
 3212TIP3   OH233830   5.481   5.260  17.685 -0.2577  0.2737 -0.5049
 3212TIP3    H133831   5.407   5.219  17.731  1.2456 -1.1649  0.7761
 3212TIP3    H233832   5.533   5.186  17.653 -0.0765  1.2657 -2.6137
 3213TIP3   OH233833   0.748   6.687  18.902  0.0133 -0.2996 -0.2770
 3213TIP3    H133834   0.827   6.646  18.938  0.1996 -1.4983 -1.9440
 3213TIP3    H233835   0.767   6.780  18.901  1.7358 -0.6222 -1.3424
 3214TIP3   OH233836   5.732   6.400  18.787 -0.4040 -0.3158 -0.2457
 3214TIP3    H133837   5.674   6.418  18.861  1.8995  0.5828  1.4725
 3214TIP3    H233838   5.754   6.308  18.795 -1.4476 -0.6371 -0.8516
 3215TIP3   OH233839   6.277   1.234  20.780 -0.1903 -0.3846  0.4665
 3215TIP3    H133840   6.347   1.174  20.753 -0.3566 -0.2169 -0.3678
 3215TIP3    H233841   6.303   1.262  20.867  2.3047  1.8773 -0.8553
 3216TIP3   OH233842   1.621   2.098  19.125  0.4651 -0.3503 -0.3700
 3216TIP3    H133843   1.541   2.054  19.094 -0.8382  1.0502  0.8518
 3216TIP3    H233844   1.677   2.027  19.154 -0.6705 -1.3327 -0.4942
 3217TIP3   OH233845   2.916   5.013  18.946  0.0857  0.0354  0.6089
 3217TIP3    H133846   2.955   4.943  18.894  0.6280  0.6464  0.1696
 3217TIP3    H233847   2.838   4.974  18.986 -0.1724 -0.5429 -0.4250
 3218TIP3   OH233848   3.189   0.689  20.111  0.5349  0.1544  0.1668
 3218TIP3    H133849   3.266   0.737  20.142  2.1218 -1.3962 -1.1291
 3218TIP3    H233850   3.195   0.604  20.155 -1.8981  0.8211  1.9831
 3219TIP3   OH233851   2.933   4.269  17.180 -0.5618  0.4469 -0.2243
 3219TIP3    H133852   2.949   4.364  17.175 -1.0677  0.5245 -0.5118
 3219TIP3    H233853   2.860   4.255  17.119 -0.0192 -0.2360 -0.7325
 3220TIP3   OH233854   4.422   3.148  18.422 -0.0296  0.6634 -0.3549
 3220TIP3    H133855   4.473   3.091  18.365  1.1522  1.7728 -0.4424
 3220TIP3    H233856   4.468   3.147  18.506  0.1598  1.6649 -0.4305
 3221TIP3   OH233857   0.918   2.988  18.938  0.0990 -0.1927  0.5047
 3221TIP3    H133858   0.843   3.048  18.931  0.7954  0.6489 -0.0096
 3221TIP3    H233859   0.944   2.994  19.030 -0.5650 -0.6254  0.7282
 3222TIP3   OH233860   2.837   5.636  19.893 -0.7038 -0.1293 -0.0328
 3222TIP3    H133861   2.773   5.598  19.953 -0.4374 -0.4113  0.0742
 3222TIP3    H233862   2.784   5.689  19.833 -1.0908 -0.7398 -0.2448
 3223TIP3   OH233863   6.679   4.827  20.084 -0.4675  0.1437  0.3576
 3223TIP3    H133864   6.684   4.745  20.035  0.8339  1.0379 -1.0769
 3223TIP3    H233865   6.731   4.811  20.163  1.1601  0.0779 -0.6882
 3224TIP3   OH233866   4.987   3.634  17.832 -0.2471 -0.3264  0.3086
 3224TIP3    H133867   4.933   3.562  17.865  1.9473 -1.7126  1.0477
 3224TIP3    H233868   5.014   3.606  17.744 -1.7751  1.0046 -0.6636
 3225TIP3   OH233869   2.359   4.697  18.846  0.4397 -0.2934  0.1610
 3225TIP3    H133870   2.370   4.669  18.937  1.2705  0.2409  0.2312
 3225TIP3    H233871   2.412   4.636  18.795  0.3218 -0.3207  0.0682
 3226TIP3   OH233872   5.991   0.678  19.874  0.3681 -0.0791  0.5784
 3226TIP3    H133873   5.911   0.633  19.903 -0.4566  1.1195  0.2494
 3226TIP3    H233874   5.959   0.748  19.816  1.7294 -0.1625 -0.3110
 3227TIP3   OH233875   3.341   3.075  17.911  0.0236  0.5522 -0.0561
 3227TIP3    H133876   3.376   2.990  17.938  0.6552  0.5627 -0.8167
 3227TIP3    H233877   3.355   3.078  17.816 -0.7699  1.1496 -0.1681
 3228TIP3   OH233878   5.831   2.519  20.350 -0.2371 -0.5709  0.5475
 3228TIP3    H133879   5.829   2.492  20.258 -0.7580 -0.1965  0.4454
 3228TIP3    H233880   5.769   2.592  20.355  0.3560 -0.0858  1.0369
 3229TIP3   OH233881   2.297   1.331  18.757  0.0063  0.4741  0.3276
 3229TIP3    H133882   2.322   1.342  18.665  1.6715 -0.5913  0.6040
 3229TIP3    H233883   2.204   1.353  18.759  0.0455  1.0115 -1.5132
 3230TIP3   OH233884   6.697   1.815  18.859 -0.3621  0.2777  0.4010
 3230TIP3    H133885   6.694   1.723  18.886 -2.0639  0.4645  1.0022
 3230TIP3    H233886   6.655   1.862  18.931 -0.5509  1.3882 -0.4128
 3231TIP3   OH233887   2.945   0.859  18.868  0.5804 -0.3317  0.5177
 3231TIP3    H133888   2.863   0.896  18.900  0.5478  1.0882 -1.0567
 3231TIP3    H233889   2.996   0.841  18.947 -1.6108 -2.2651  1.5892
 3232TIP3   OH233890   4.658   0.823  18.861  0.3356 -0.3419 -0.0993
 3232TIP3    H133891   4.749   0.833  18.836  1.0443 -1.7154  1.7137
 3232TIP3    H233892   4.634   0.734  18.833 -0.4322 -0.0117 -0.5270
 3233TIP3   OH233893   3.571   6.374  19.963  0.0315 -0.1514 -0.0404
 3233TIP3    H133894   3.595   6.459  19.927  0.9117 -0.2734  0.2439
 3233TIP3    H233895   3.643   6.316  19.940  0.8442 -0.1423  2.2060
 3234TIP3   OH233896   0.638   0.414  20.607  0.0571  0.6865 -0.3468
 3234TIP3    H133897   0.701   0.483  20.629  0.0264 -0.1602  2.8233
 3234TIP3    H233898   0.553   0.458  20.611  0.1695  0.9537 -0.7290
 3235TIP3   OH233899   3.789   3.728  19.263  0.5373  0.2693 -0.1440
 3235TIP3    H133900   3.712   3.783  19.246  0.2771  0.3301  1.1614
 3235TIP3    H233901   3.818   3.701  19.176  0.0649  1.6365 -0.7559
 3236TIP3   OH233902   0.238   4.057  17.587  0.0026 -0.2866  0.5207
 3236TIP3    H133903   0.142   4.051  17.588 -0.0689 -0.4663 -1.8177
 3236TIP3    H233904   0.256   4.150  17.577  0.0635 -0.2864  0.6320
 3237TIP3   OH233905   4.192   0.529  17.050  0.0336 -0.3393 -0.3002
 3237TIP3    H133906   4.139   0.509  17.127  1.7617 -0.3906  0.9131
 3237TIP3    H233907   4.267   0.578  17.083  0.2563  0.6667 -2.1156
 3238TIP3   OH233908   1.929   6.134  18.148  0.3913 -0.8296  0.1121
 3238TIP3    H133909   1.924   6.130  18.244 -0.1775 -3.0305  0.0577
 3238TIP3    H233910   2.018   6.108  18.127  0.3653 -0.8632  0.0410
 3239TIP3   OH233911   0.250   2.447  20.004 -0.0237  0.1700  0.8101
 3239TIP3    H133912   0.165   2.419  19.968  0.0026  0.5030  0.4770
 3239TIP3    H233913   0.315   2.398  19.954  0.0309  0.9534  0.0858
 3240TIP3   OH233914   3.468   1.609  20.256  0.4138 -0.0768 -0.4208
 3240TIP3    H133915   3.540   1.546  20.257  3.0501  2.7097  0.2791
 3240TIP3    H233916   3.494   1.674  20.191 -0.7527  1.8115  0.9096
 3241TIP3   OH233917   2.285   5.681  17.916  0.0697  0.2058  0.4320
 3241TIP3    H133918   2.320   5.770  17.918 -0.9360  0.7294 -1.8491
 3241TIP3    H233919   2.362   5.625  17.903  0.3972  1.1581 -2.4352
 3242TIP3   OH233920   0.052   6.523  19.775 -0.2696  0.1267 -0.4746
 3242TIP3    H133921   0.049   6.577  19.696 -0.2883  0.3105 -0.3477
 3242TIP3    H233922  -0.023   6.464  19.768  0.1227 -0.3365 -0.9344
 3243TIP3   OH233923   4.810   1.437  19.949  0.1598 -0.0717  0.0175
 3243TIP3    H133924   4.802   1.523  19.991  2.1630 -0.8744  2.3450
 3243TIP3    H233925   4.850   1.455  19.864  0.1799  1.3441  0.3044
 3244TIP3   OH233926   1.727   5.254  17.851  0.3699  0.0135  0.7443
 3244TIP3    H133927   1.698   5.258  17.760 -2.2799 -0.3784  1.4759
 3244TIP3    H233928   1.767   5.339  17.868  1.1626 -0.0127 -0.8424
 3245TIP3   OH233929   0.203   3.965  20.364 -0.4786  0.1204  0.1333
 3245TIP3    H133930   0.222   4.037  20.424 -0.4701  1.0959 -1.0109
 3245TIP3    H233931   0.261   3.894  20.392 -0.4705  0.5465  1.2583
 3246TIP3   OH233932   4.395   0.923  18.501  0.1491 -0.9556  0.1258
 3246TIP3    H133933   4.442   0.986  18.445  0.6948 -2.0207 -0.6467
 3246TIP3    H233934   4.303   0.948  18.492  0.2567 -0.9128 -1.0319
 3247TIP3   OH233935   1.904   5.151  18.678 -0.2002 -0.5951  0.6725
 3247TIP3    H133936   1.826   5.193  18.715 -0.0880 -1.7216  2.3093
 3247TIP3    H233937   1.960   5.223  18.652 -0.8266  0.2593  1.6146
 3248TIP3   OH233938   5.888   3.892  19.875 -0.6426 -0.3209  0.2359
 3248TIP3    H133939   5.884   3.839  19.954 -1.2552  0.2228  0.5816
 3248TIP3    H233940   5.972   3.937  19.879 -0.4632 -0.6671  0.3311
 3249TIP3   OH233941   6.480   2.140  20.440 -0.0760  0.3259 -0.2069
 3249TIP3    H133942   6.420   2.213  20.456 -0.8324 -0.4355  0.4824
 3249TIP3    H233943   6.567   2.180  20.442 -0.5330  1.4286 -1.1250
 3250TIP3   OH233944   4.932   2.908  17.402 -0.3952 -0.2591 -0.7547
 3250TIP3    H133945   5.025   2.894  17.417 -0.3823  0.3250 -0.2421
 3250TIP3    H233946   4.893   2.821  17.411 -0.4047 -0.0265  2.9814
 3251TIP3   OH233947   3.802   5.051  18.398  0.2636 -0.2878 -0.4108
 3251TIP3    H133948   3.878   5.000  18.373  0.8783  0.1459  0.5155
 3251TIP3    H233949   3.781   5.023  18.487 -0.1104  0.2210 -0.3266
 3252TIP3   OH233950   5.684   0.024  19.284 -0.2110 -0.5098  0.3376
 3252TIP3    H133951   5.724   0.084  19.348  0.5096  0.5057 -1.0239
 3252TIP3    H233952   5.620  -0.026  19.335  1.6060 -1.0432  2.2660
 3253TIP3   OH233953   2.083   2.384  19.287  0.1893  0.3241 -0.5014
 3253TIP3    H133954   2.161   2.430  19.257  0.0193  0.4778 -0.7065
 3253TIP3    H233955   2.069   2.315  19.222  0.4718 -0.0466 -0.1701
 3254TIP3   OH233956   5.637   3.847  18.477  0.1451 -0.5977  0.0212
 3254TIP3    H133957   5.633   3.871  18.569  1.5237  1.0272 -0.3076
 3254TIP3    H233958   5.637   3.751  18.477 -1.3123 -0.6515  1.5993
 3255TIP3   OH233959   1.843   3.105  20.251  0.5142 -0.1204 -0.0733
 3255TIP3    H133960   1.923   3.075  20.207  1.0938 -0.0521  0.8919
 3255TIP3    H233961   1.855   3.200  20.258  0.6076 -0.1739  0.5513
 3256TIP3   OH233962   0.891   4.366  20.433 -0.1492  0.1429  0.2865
 3256TIP3    H133963   0.919   4.378  20.342 -1.8985  1.6351 -0.1108
 3256TIP3    H233964   0.970   4.385  20.485  0.6097  0.2720 -0.8852
 3257TIP3   OH233965   1.662   2.432  18.553  0.1656 -0.8733  0.0877
 3257TIP3    H133966   1.654   2.454  18.646  2.1911 -0.1237  0.1245
 3257TIP3    H233967   1.741   2.477  18.524 -1.6792  0.9527 -2.6349
 3258TIP3   OH233968   1.352   2.792  20.317  0.0077 -0.4481 -0.1930
 3258TIP3    H133969   1.270   2.747  20.297  0.1524 -1.1165  0.6524
 3258TIP3    H233970   1.361   2.859  20.249 -1.6860  0.2417  0.2151
 3259TIP3   OH233971   1.256   4.892  18.677  0.7290  0.1717  0.5192
 3259TIP3    H133972   1.218   4.805  18.685  0.6065  0.0321 -1.2818
 3259TIP3    H233973   1.183   4.951  18.696 -0.5286 -0.0992 -2.7716
 3260TIP3   OH233974   4.779   0.677  17.615  0.0401 -0.1626 -0.0515
 3260TIP3    H133975   4.857   0.723  17.582 -0.6609  0.8678 -0.2930
 3260TIP3    H233976   4.797   0.665  17.709  0.1586  0.7534  0.0490
 3261TIP3   OH233977   0.511   2.802  20.203 -0.4624  0.2627  0.3972
 3261TIP3    H133978   0.450   2.866  20.164  0.4053  1.8607  1.5402
 3261TIP3    H233979   0.507   2.820  20.297 -0.4823 -1.6870  0.8121
 3262TIP3   OH233980   4.213   6.614  18.532  0.7584  0.3882  0.0654
 3262TIP3    H133981   4.181   6.643  18.618  1.3678 -0.6470  0.6556
 3262TIP3    H233982   4.300   6.653  18.526  0.6513  0.5945 -0.1635
 3263TIP3   OH233983   1.264   4.236  20.207  0.3185  0.1255  0.1524
 3263TIP3    H133984   1.290   4.156  20.254  1.1094  0.7521  0.8108
 3263TIP3    H233985   1.260   4.303  20.275 -0.9050  0.5299 -0.3078
 3264TIP3   OH233986   6.026   4.894  20.095 -0.0756 -0.2267  0.2329
 3264TIP3    H133987   6.044   4.801  20.113 -0.4854 -0.0757  1.4976
 3264TIP3    H233988   6.104   4.940  20.127  0.6588 -0.1967 -1.4736
 3265TIP3   OH233989   1.378   1.864  19.579 -0.2313  0.5049 -0.6839
 3265TIP3    H133990   1.408   1.780  19.543 -1.2341 -0.3053  0.2703
 3265TIP3    H233991   1.334   1.907  19.506  0.7132  0.4363 -1.3158
 3266TIP3   OH233992   6.445   4.770  17.569 -0.2833  0.3801  0.0249
 3266TIP3    H133993   6.535   4.738  17.572 -0.5266 -0.3652 -0.1887
 3266TIP3    H233994   6.392   4.690  17.568 -0.9681  0.8148  0.7746
 3267TIP3   OH233995   6.545   4.762  19.802  0.1202 -0.4637 -0.0880
 3267TIP3    H133996   6.612   4.820  19.765  0.3773 -0.3347  0.5695
 3267TIP3    H233997   6.552   4.682  19.750  0.0918 -0.0865 -0.6854
 3268TIP3   OH233998   2.695   0.194  18.245 -0.2342  0.0348 -0.2418
 3268TIP3    H133999   2.637   0.257  18.288 -0.3047  0.3277 -0.7567
 3268TIP3    H234000   2.780   0.237  18.241  0.5000 -1.0453  2.0430
 3269TIP3   OH234001   1.851   0.748  18.041  0.2935  0.1116 -0.3200
 3269TIP3    H134002   1.862   0.832  17.997 -0.1391  0.4681  0.2322
 3269TIP3    H234003   1.773   0.760  18.097 -0.2654 -0.9131 -0.8441
 3270TIP3   OH234004   0.036   3.933  19.855 -0.6259 -0.2525 -0.3205
 3270TIP3    H134005   0.120   3.896  19.830  0.1069  1.2578 -0.1500
 3270TIP3    H234006   0.038   3.934  19.951  0.0159  1.6331 -0.3268
 3271TIP3   OH234007   4.594   3.551  20.821 -0.4541  0.5436 -0.2286
 3271TIP3    H134008   4.587   3.461  20.789  0.2863 -0.2362  1.6509
 3271TIP3    H234009   4.504   3.577  20.842 -0.6521  0.2118 -0.6487
 3272TIP3   OH234010   4.183   1.686  20.644  0.2383  0.1686 -0.2943
 3272TIP3    H134011   4.231   1.654  20.720  1.7327 -0.2243 -1.3656
 3272TIP3    H234012   4.092   1.659  20.661  0.6355 -0.4324  1.0592
 3273TIP3   OH234013   3.649   5.561  18.820  0.1946  0.3905  0.0670
 3273TIP3    H134014   3.589   5.497  18.859 -1.2400  1.4486 -0.3302
 3273TIP3    H234015   3.719   5.507  18.782 -1.2898 -1.0244 -0.8261
 3274TIP3   OH234016   3.590   6.225  17.337  0.0058 -0.0648 -0.5729
 3274TIP3    H134017   3.590   6.196  17.429  0.5138 -1.1481 -0.8981
 3274TIP3    H234018   3.500   6.254  17.322 -0.2185 -0.3539  0.1262
 3275TIP3   OH234019   0.584   6.126  18.380 -0.1215  0.3271  0.0286
 3275TIP3    H134020   0.537   6.133  18.463 -0.7653  0.4803 -0.3483
 3275TIP3    H234021   0.517   6.138  18.313  0.0874 -1.5277 -0.5566
 3276TIP3   OH234022   5.224   4.202  20.614 -0.1405  0.6083 -0.0886
 3276TIP3    H134023   5.159   4.198  20.544  0.5318 -0.0560 -0.6885
 3276TIP3    H234024   5.217   4.118  20.659 -1.4972  1.5212  1.5269
 3277TIP3   OH234025   4.913   0.806  18.331 -0.3183 -0.2150  0.7712
 3277TIP3    H134026   4.852   0.775  18.399 -2.0217  0.2637 -0.4557
 3277TIP3    H234027   4.896   0.900  18.325  0.2432 -0.1485  0.1174
 3278TIP3   OH234028   2.393   5.307  19.750  0.4035  0.1914 -0.3441
 3278TIP3    H134029   2.316   5.357  19.722  0.4424 -0.0923 -0.9656
 3278TIP3    H234030   2.377   5.289  19.843  0.8797  2.2603  0.1901
 3279TIP3   OH234031   4.328   4.726  19.903  0.3869 -0.1477 -0.0346
 3279TIP3    H134032   4.235   4.735  19.923  0.3563  0.3835 -0.3868
 3279TIP3    H234033   4.370   4.706  19.987  0.1800  1.3628  0.4618
 3280TIP3   OH234034   1.624   6.023  18.879 -0.2134  0.0202  0.3016
 3280TIP3    H134035   1.599   6.082  18.951  0.4897  2.4137 -1.3129
 3280TIP3    H234036   1.555   6.035  18.813  0.6404  0.0401 -0.6042
 3281TIP3   OH234037   4.021   5.070  16.925 -0.4892 -0.0399  0.1843
 3281TIP3    H134038   3.940   5.030  16.958  0.8396 -2.7888  0.4087
 3281TIP3    H234039   4.047   5.132  16.993 -0.5782 -1.7340  1.8271
 3282TIP3   OH234040   5.289   5.777  17.814  0.1696 -0.3823 -0.2622
 3282TIP3    H134041   5.324   5.837  17.879 -0.6750  0.4751 -0.5850
 3282TIP3    H234042   5.310   5.818  17.730 -1.5981  0.1563 -0.4639
 3283TIP3   OH234043   4.432   4.189  19.470  0.1363  0.3581  0.2315
 3283TIP3    H134044   4.418   4.186  19.564 -1.2942 -0.3298  0.0207
 3283TIP3    H234045   4.519   4.228  19.460  1.9834 -2.8773  1.9353
 3284TIP3   OH234046   1.908   5.829  19.636 -0.8731 -0.3087  0.1331
 3284TIP3    H134047   1.975   5.776  19.593 -2.1125 -0.6577 -1.4627
 3284TIP3    H234048   1.954   5.907  19.666  0.3999 -0.9236 -0.1773
 3285TIP3   OH234049   0.056   1.509  20.305  0.0897 -0.1852 -0.4058
 3285TIP3    H134050   0.117   1.497  20.232  1.1891 -0.3703  0.5093
 3285TIP3    H234051   0.058   1.603  20.323 -1.1351  0.0572 -1.3790
 3286TIP3   OH234052   1.414   0.706  17.702 -0.5496 -0.3509  0.2412
 3286TIP3    H134053   1.493   0.665  17.738  1.0361  1.9499 -0.3920
 3286TIP3    H234054   1.382   0.644  17.636 -0.7291 -2.4123  2.1443
 3287TIP3   OH234055   2.876   6.466  18.532  0.0979  0.1500 -0.4078
 3287TIP3    H134056   2.812   6.416  18.583  0.5518 -0.4177 -0.3831
 3287TIP3    H234057   2.952   6.409  18.526  0.4764  0.6756 -0.7418
 3288TIP3   OH234058   4.409   3.854  19.033  0.0783 -0.0480  0.1903
 3288TIP3    H134059   4.335   3.810  18.993  0.1605  0.2603 -0.3091
 3288TIP3    H234060   4.372   3.898  19.110  0.0765 -1.3238  0.9405
 3289TIP3   OH234061   5.827   4.386  19.591  0.3019 -0.1698  0.5257
 3289TIP3    H134062   5.815   4.375  19.685  2.2688  1.0242  0.9674
 3289TIP3    H234063   5.838   4.480  19.578 -0.3581 -0.2612 -0.9713
 3290TIP3   OH234064   4.933   1.586  20.584  0.2352  0.2234 -0.1318
 3290TIP3    H134065   4.971   1.504  20.614  0.9599  0.5099 -0.2554
 3290TIP3    H234066   4.901   1.628  20.664  1.5574  0.6781  0.1796
 3291TIP3   OH234067   4.545   2.042  19.581  0.6341  0.4539  0.5373
 3291TIP3    H134068   4.599   1.966  19.603  1.6305  1.1983  0.7617
 3291TIP3    H234069   4.572   2.109  19.644 -2.1132  0.2372  2.1218
 3292TIP3   OH234070   2.300   0.261  17.622  0.2016  0.4508 -0.0412
 3292TIP3    H134071   2.234   0.230  17.559 -0.5337  0.6830  0.6061
 3292TIP3    H234072   2.318   0.351  17.595 -0.1281  0.5571  0.0929
 3293TIP3   OH234073   5.932   6.581  20.386  0.3506  0.3022  0.3457
 3293TIP3    H134074   5.939   6.520  20.314  1.5658  0.5764  0.2146
 3293TIP3    H234075   5.927   6.526  20.464 -0.9727  0.0071  0.0871
 3294TIP3   OH234076   6.537   2.157  18.109 -0.4009 -0.0241 -0.1293
 3294TIP3    H134077   6.447   2.127  18.125 -0.6133 -0.0338 -1.2642
 3294TIP3    H234078   6.550   2.145  18.015  0.3651  1.1705 -0.1898
 3295TIP3   OH234079   3.556   3.794  18.877  0.2721 -0.0674  0.0870
 3295TIP3    H134080   3.563   3.868  18.937  0.2246  0.7590 -0.9037
 3295TIP3    H234081   3.629   3.736  18.901 -0.7145 -0.6014  2.0343
 3296TIP3   OH234082   6.660   4.401  18.252 -0.4484  0.0578 -0.1733
 3296TIP3    H134083   6.750   4.368  18.244 -1.0598 -1.4662 -1.1872
 3296TIP3    H234084   6.628   4.363  18.334  0.2616  1.8226  0.9983
 3297TIP3   OH234085   1.063   1.975  18.661 -0.4571 -0.6490 -0.3764
 3297TIP3    H134086   1.155   2.000  18.650 -0.8034  0.0102 -1.9495
 3297TIP3    H234087   1.051   1.970  18.756  1.2114 -0.8075 -0.1409
 3298TIP3   OH234088   6.238   2.526  18.702 -0.1322  0.1036 -0.2542
 3298TIP3    H134089   6.175   2.554  18.769 -0.6203  1.1419 -1.1058
 3298TIP3    H234090   6.230   2.593  18.634 -0.4766 -1.4995 -1.8637
 3299TIP3   OH234091   2.831   1.035  18.609 -0.2781 -0.2249  0.1196
 3299TIP3    H134092   2.795   1.064  18.693 -2.7362  0.8389 -1.2228
 3299TIP3    H234093   2.791   0.949  18.595  0.2533 -0.4714  0.0885
 3300TIP3   OH234094   4.695   5.994  18.388 -0.0168  0.1824  0.2254
 3300TIP3    H134095   4.787   6.021  18.399  0.0181  0.0170  0.3389
 3300TIP3    H234096   4.667   6.037  18.307  0.7265 -1.2632 -0.8436
 3301TIP3   OH234097   3.232   2.322  18.307  0.3599 -0.3103 -0.1236
 3301TIP3    H134098   3.152   2.272  18.320  0.6232 -0.7245 -0.0585
 3301TIP3    H234099   3.210   2.411  18.335 -0.0937 -0.4037 -0.1767
 3302TIP3   OH234100   0.167   4.343  19.256 -0.4403 -0.1749  0.1528
 3302TIP3    H134101   0.231   4.345  19.326 -0.4845 -0.5451  0.2010
 3302TIP3    H234102   0.181   4.426  19.209  0.4637 -0.5175 -0.1949
 3303TIP3   OH234103   5.760   3.885  18.083 -0.3792 -0.0299  0.7555
 3303TIP3    H134104   5.707   3.861  18.006  0.6966 -1.4551  0.4112
 3303TIP3    H234105   5.850   3.887  18.051  0.0254 -0.0005  1.8452
 3304TIP3   OH234106   5.242   3.521  19.712 -0.4264  0.1765 -0.0915
 3304TIP3    H134107   5.294   3.574  19.651 -2.3761  0.9319 -1.1820
 3304TIP3    H234108   5.179   3.475  19.656 -0.2584 -1.5666  1.0780
 3305TIP3   OH234109   0.439   6.416  17.118  0.0542  0.3297  0.5399
 3305TIP3    H134110   0.517   6.362  17.105  0.9246  1.2238  1.7621
 3305TIP3    H234111   0.447   6.486  17.053 -0.6956 -0.5556 -0.5467
 3306TIP3   OH234112   1.008   4.912  19.153  0.2554 -0.0055 -0.7658
 3306TIP3    H134113   1.077   4.973  19.178  1.3824 -1.2792 -0.6425
 3306TIP3    H234114   0.968   4.884  19.236  0.5235 -0.3134 -0.7388
 3307TIP3   OH234115   1.714   6.049  19.475  0.0504 -0.0939  0.5135
 3307TIP3    H134116   1.634   6.030  19.525  1.2566 -0.6733  2.3219
 3307TIP3    H234117   1.780   5.990  19.512  1.5598  1.0157 -0.2951
 3308TIP3   OH234118   1.681   6.300  18.332 -0.0994 -0.4843  0.2996
 3308TIP3    H134119   1.715   6.222  18.376 -1.0372 -1.2963 -0.3716
 3308TIP3    H234120   1.757   6.356  18.320  1.2628 -2.6285 -1.9797
 3309TIP3   OH234121   6.586   3.640  18.605 -0.1502 -0.2331  0.1607
 3309TIP3    H134122   6.513   3.592  18.567  1.2663 -0.7544 -2.1126
 3309TIP3    H234123   6.613   3.587  18.680 -0.0863 -1.8012 -0.9191
 3310TIP3   OH234124   5.766   2.708  17.784  0.7818  0.2647  0.1401
 3310TIP3    H134125   5.758   2.638  17.719 -2.0313  0.2655  0.3568
 3310TIP3    H234126   5.826   2.771  17.745 -0.7028  0.2064 -2.4400
 3311TIP3   OH234127   3.269   0.412  17.668  0.1661 -0.1642 -0.4854
 3311TIP3    H134128   3.308   0.453  17.591  1.8364 -0.8108 -0.0218
 3311TIP3    H234129   3.175   0.428  17.658  0.6132  2.6359 -0.9655
 3312TIP3   OH234130   2.281   4.348  17.800  0.0046  0.3128 -0.1147
 3312TIP3    H134131   2.358   4.319  17.849 -0.9483  1.5523  2.2527
 3312TIP3    H234132   2.298   4.440  17.781 -0.8338  0.5739  0.3514
 3313TIP3   OH234133   4.944   0.981  20.332 -0.4910 -0.5625  0.6957
 3313TIP3    H134134   4.850   0.997  20.335 -0.6620 -1.3673 -0.1979
 3313TIP3    H234135   4.962   0.960  20.241 -0.3197 -5.5905  1.6452
 3314TIP3   OH234136   0.005   2.037  18.701 -0.3061  0.0171  0.1832
 3314TIP3    H134137  -0.010   1.978  18.775  0.3002  2.1620  2.0859
 3314TIP3    H234138   0.017   1.978  18.626  2.6325 -2.4196  2.3462
 3315TIP3   OH234139   3.668   3.476  19.437 -0.0740  0.5434 -0.1572
 3315TIP3    H134140   3.634   3.494  19.525  0.6506  0.0761  0.2336
 3315TIP3    H234141   3.626   3.540  19.381  2.0818  3.2526  1.0900
 3316TIP3   OH234142   3.956   1.351  17.657 -0.5609 -0.3590 -0.6163
 3316TIP3    H134143   3.981   1.440  17.681 -0.8483 -0.5883  0.6467
 3316TIP3    H234144   3.996   1.336  17.572  2.0137 -0.0667  0.4483
 3317TIP3   OH234145   5.428   4.872  21.035 -0.4591  0.1001  0.2650
 3317TIP3    H134146   5.412   4.964  21.015  0.4659  0.2161 -0.0198
 3317TIP3    H234147   5.414   4.826  20.952 -0.0358  0.1139  0.1802
 3318TIP3   OH234148   3.501   5.378  17.987  0.2073 -0.0210 -0.1241
 3318TIP3    H134149   3.428   5.318  18.004 -0.3589  1.1143  1.6690
 3318TIP3    H234150   3.466   5.465  18.007  1.2454  0.8654 -1.9092
 3319TIP3   OH234151   0.768   1.285  18.714 -0.5129  0.8195  0.0907
 3319TIP3    H134152   0.857   1.294  18.748 -0.4109 -1.2758  0.5031
 3319TIP3    H234153   0.745   1.373  18.684  1.7287  1.3948 -0.1430
 3320TIP3   OH234154   2.658   1.188  19.797 -0.0586 -0.1532 -0.2856
 3320TIP3    H134155   2.563   1.180  19.798 -0.1041  0.3446 -0.1112
 3320TIP3    H234156   2.686   1.136  19.722 -0.5125  0.0855 -0.6260
 3321TIP3   OH234157   4.976   2.235  20.333 -0.1043 -0.2717 -0.0600
 3321TIP3    H134158   4.977   2.155  20.387 -1.8360 -0.6862 -0.6015
 3321TIP3    H234159   4.907   2.221  20.269  0.4716  1.1217 -1.0535
 3322TIP3   OH234160   3.093   4.492  19.543 -0.1531 -0.0660  0.2335
 3322TIP3    H134161   3.015   4.545  19.525  0.6890  1.3794  0.6762
 3322TIP3    H234162   3.113   4.450  19.460 -1.6137 -0.7781  0.2079
 3323TIP3   OH234163   3.445   5.172  20.595  0.8228 -0.2382 -0.5040
 3323TIP3    H134164   3.413   5.262  20.593 -0.0283 -0.4488  1.1977
 3323TIP3    H234165   3.527   5.174  20.545  0.2312  1.2189 -1.4568
 3324TIP3   OH234166   5.161   2.690  19.224  0.1396 -0.0024  0.2093
 3324TIP3    H134167   5.233   2.671  19.164 -0.3343 -1.8864  0.1934
 3324TIP3    H234168   5.089   2.716  19.166 -0.3816 -2.0193 -0.1239
 3325TIP3   OH234169   4.834   4.459  20.132  0.1332  0.6778  0.2447
 3325TIP3    H134170   4.802   4.371  20.154  0.1664  0.5866 -0.0749
 3325TIP3    H234171   4.797   4.515  20.200  1.5760  0.1467  1.5464
 3326TIP3   OH234172   5.242   0.044  17.791  0.0992  0.5001  0.3507
 3326TIP3    H134173   5.204   0.075  17.709  0.0129 -0.6138 -0.0412
 3326TIP3    H234174   5.337   0.045  17.775  0.1712  1.6668  0.7524
 3327TIP3   OH234175   2.145   1.141  17.541  0.2460 -0.3442  0.3844
 3327TIP3    H134176   2.175   1.160  17.452 -1.9205 -1.6318 -0.6890
 3327TIP3    H234177   2.072   1.200  17.555  0.2135 -0.5448  1.0902
 3328TIP3   OH234178   1.508   3.108  19.300  0.1660 -0.3893 -0.5235
 3328TIP3    H134179   1.448   3.172  19.262 -0.2321  0.0731  0.8140
 3328TIP3    H234180   1.531   3.049  19.228  0.3983  1.1431 -1.7418
 3329TIP3   OH234181   0.447   2.990  19.997  0.0689 -0.6455  0.0317
 3329TIP3    H134182   0.535   2.951  20.006  0.3141  0.3360  2.6507
 3329TIP3    H234183   0.444   3.022  19.907  2.4294 -0.6756 -0.1195
 3330TIP3   OH234184   4.481   1.460  20.682 -0.0363 -0.7114 -0.4014
 3330TIP3    H134185   4.548   1.506  20.631  0.3243 -0.2881  0.4455
 3330TIP3    H234186   4.427   1.416  20.616  0.3057 -0.0152 -1.1612
 3331TIP3   OH234187   5.464   4.567  18.813 -0.3071  0.0619  0.4167
 3331TIP3    H134188   5.521   4.503  18.770  1.2714  2.0932 -0.6829
 3331TIP3    H234189   5.522   4.640  18.834 -1.4355  0.0435  4.2632
 3332TIP3   OH234190   5.904   1.967  20.352 -0.0254  0.1667  0.0986
 3332TIP3    H134191   5.822   1.987  20.397  0.2731 -0.9602  1.2107
 3332TIP3    H234192   5.970   1.967  20.421  0.8405  0.6389 -0.7140
 3333TIP3   OH234193   4.983   6.600  20.747 -0.0420  0.2753 -0.8271
 3333TIP3    H134194   4.972   6.508  20.722  0.0300 -0.0533  0.3046
 3333TIP3    H234195   5.077   6.617  20.739 -0.2363  0.7013 -2.4957
 3334TIP3   OH234196   4.624   2.324  17.942 -0.2461  0.1584  0.3438
 3334TIP3    H134197   4.580   2.260  17.997  0.5472  0.7294  1.6930
 3334TIP3    H234198   4.681   2.272  17.885 -1.0164 -0.4292  0.0969
 3335TIP3   OH234199   0.251   0.813  20.532 -0.5446  0.2161 -0.6357
 3335TIP3    H134200   0.329   0.837  20.482  0.6190  0.2621  1.1052
 3335TIP3    H234201   0.217   0.896  20.565 -1.4564  0.2133 -1.5411
 3336TIP3   OH234202   3.911   0.826  19.194 -0.2234  0.1999  0.2540
 3336TIP3    H134203   3.980   0.860  19.137 -0.3143 -1.7444 -1.1094
 3336TIP3    H234204   3.833   0.876  19.170  0.3218  1.2251  0.5785
 3337TIP3   OH234205   2.560   3.858  18.128  0.5387  0.3658 -0.2304
 3337TIP3    H134206   2.538   3.893  18.042  1.6872  0.2663 -0.5770
 3337TIP3    H234207   2.619   3.785  18.110  0.4219  0.0461  0.6233
 3338TIP3   OH234208   3.221   5.674  19.999 -0.4310 -0.2622 -0.2139
 3338TIP3    H134209   3.239   5.750  19.945  2.7225 -1.4237 -0.9835
 3338TIP3    H234210   3.261   5.694  20.084  1.5096 -1.4362 -0.7910
 3339TIP3   OH234211   1.983   6.183  19.121  0.7698  0.1645 -0.7329
 3339TIP3    H134212   1.984   6.097  19.077 -1.2539 -0.5739  0.5338
 3339TIP3    H234213   2.048   6.175  19.190  0.1162 -0.6181 -0.1903
 3340TIP3   OH234214   5.562   3.152  18.495 -0.5896  0.2150  0.3075
 3340TIP3    H134215   5.467   3.145  18.489 -0.4195 -0.8939 -1.8453
 3340TIP3    H234216   5.582   3.240  18.463 -0.9540  1.2240  2.6251
 3341TIP3   OH234217   4.883   2.475  18.226  0.0829 -0.0434  0.1931
 3341TIP3    H134218   4.955   2.419  18.254 -0.7087 -0.8080  0.7786
 3341TIP3    H234219   4.852   2.435  18.145  0.5744  0.5142 -0.2647
 3342TIP3   OH234220   0.517   6.652  17.544  0.2516  0.0672 -0.2843
 3342TIP3    H134221   0.594   6.595  17.553  1.0032  0.7391 -1.9579
 3342TIP3    H234222   0.554   6.740  17.536 -0.6390  0.3531 -1.5431
 3343TIP3   OH234223   5.249   1.622  18.572  0.4515  0.4386 -0.4363
 3343TIP3    H134224   5.290   1.659  18.651 -0.3139  0.9015 -0.2408
 3343TIP3    H234225   5.318   1.570  18.532  0.1544 -1.9819  1.9125
 3344TIP3   OH234226   5.133   0.893  17.839  0.1803 -0.6031 -0.1178
 3344TIP3    H134227   5.072   0.965  17.851  1.8966  1.1843 -1.5665
 3344TIP3    H234228   5.133   0.847  17.923 -1.7724  0.3858  0.4731
 3345TIP3   OH234229   0.856   4.445  18.226 -0.0546  0.1917 -0.4974
 3345TIP3    H134230   0.893   4.451  18.314 -1.9181 -2.4521  0.5842
 3345TIP3    H234231   0.767   4.482  18.235 -0.0716  0.4185 -1.4385
 3346TIP3   OH234232   3.588   5.931  18.214 -0.0121 -0.0640  0.3943
 3346TIP3    H134233   3.664   5.899  18.264  1.2144  1.2538 -0.5512
 3346TIP3    H234234   3.595   5.886  18.130 -0.0826  0.3264  0.1803
 3347TIP3   OH234235   6.297   0.445  19.344  0.0970  0.1456  0.1841
 3347TIP3    H134236   6.313   0.503  19.269  1.4403  0.2562  0.5280
 3347TIP3    H234237   6.355   0.370  19.328 -1.1562 -0.8282  0.0651
 3348TIP3   OH234238   1.228   0.932  19.175  0.3128 -0.0840  0.4778
 3348TIP3    H134239   1.163   0.873  19.213 -1.3827  2.7773  2.4031
 3348TIP3    H234240   1.177   0.992  19.121  1.6596  0.9691  0.3176
 3349TIP3   OH234241   2.930   2.482  19.211 -0.6360 -0.0820 -0.2838
 3349TIP3    H134242   2.854   2.482  19.270 -0.0628 -0.5680  0.4766
 3349TIP3    H234243   2.950   2.389  19.199  2.2197 -0.0070  2.6988
 3350TIP3   OH234244   1.975   1.702  18.354 -0.1632 -0.4552  0.1051
 3350TIP3    H134245   2.010   1.615  18.375  1.4734 -0.1771 -1.2405
 3350TIP3    H234246   2.010   1.721  18.267  0.1556  1.8782  0.6865
 3351TIP3   OH234247   1.669   1.728  20.017  0.2754 -0.2825  0.6043
 3351TIP3    H134248   1.732   1.662  20.048 -0.1695 -1.1420 -0.2715
 3351TIP3    H234249   1.715   1.776  19.948  0.4676  0.0814  0.9803
 3352TIP3   OH234250   2.958   4.551  18.419  0.2107  0.3061 -0.0642
 3352TIP3    H134251   2.962   4.455  18.413  0.5498  0.1700  1.8354
 3352TIP3    H234252   2.864   4.571  18.417  0.0182 -0.2718  1.6889
 3353TIP3   OH234253   1.819   2.266  18.399  0.6333 -0.6218 -0.2758
 3353TIP3    H134254   1.879   2.210  18.447 -0.4047 -1.3705  0.1775
 3353TIP3    H234255   1.741   2.271  18.454  1.0768  2.2004  0.2562
 3354TIP3   OH234256   2.260   0.711  20.373  0.1792 -0.0125 -0.5129
 3354TIP3    H134257   2.190   0.646  20.370  1.0362 -0.9487 -1.2709
 3354TIP3    H234258   2.334   0.664  20.414  0.6584  0.6461 -0.6056
 3355TIP3   OH234259   6.459   4.998  20.469  0.2075  0.4909  0.1050
 3355TIP3    H134260   6.505   5.074  20.504  1.6699  0.5824 -1.7997
 3355TIP3    H234261   6.369   5.027  20.459  0.8692  2.2930 -1.2468
 3356TIP3   OH234262   2.503   2.658  20.026 -0.3367 -0.3808 -0.5072
 3356TIP3    H134263   2.420   2.683  20.067 -0.1987 -0.0640 -0.4150
 3356TIP3    H234264   2.543   2.742  20.000  0.5432 -0.4390  0.5999
 3357TIP3   OH234265   1.367   6.376  18.686 -0.3746  0.6536 -0.5107
 3357TIP3    H134266   1.406   6.334  18.763 -0.2326  0.5545 -0.6353
 3357TIP3    H234267   1.373   6.309  18.617 -1.0080  0.5423 -0.4583
 3358TIP3   OH234268   4.022   0.629  18.940  0.3184 -0.3714 -1.1216
 3358TIP3    H134269   4.085   0.691  18.977 -0.7642  0.1352 -0.0558
 3358TIP3    H234270   4.053   0.543  18.968  0.8894 -0.1850 -1.1644
 3359TIP3   OH234271   5.263   6.383  18.327  0.1237 -0.2701  0.2219
 3359TIP3    H134272   5.287   6.292  18.345 -0.8800 -0.9759 -1.7151
 3359TIP3    H234273   5.347   6.428  18.318  0.6382 -1.0741  0.7861
 3360TIP3   OH234274   6.158   4.975  19.067 -0.3021 -0.3069  0.2098
 3360TIP3    H134275   6.183   4.908  19.004 -0.2075  0.2211 -0.3189
 3360TIP3    H234276   6.164   4.932  19.152  2.5892 -0.1945  0.1655
 3361TIP3   OH234277   6.205   0.134  20.429 -0.6028  0.0672 -0.4102
 3361TIP3    H134278   6.167   0.149  20.516  1.9656 -1.1438  1.0478
 3361TIP3    H234279   6.277   0.197  20.423  1.1359 -1.8236 -0.3237
 3362TIP3   OH234280   2.970   5.770  17.339 -0.7673 -0.0569  0.4466
 3362TIP3    H134281   2.948   5.818  17.259  2.3323 -0.3995 -0.7631
 3362TIP3    H234282   2.939   5.827  17.410 -0.7946  1.7996 -0.9608
 3363TIP3   OH234283   1.080   6.091  20.172 -0.3468 -0.5203  0.1113
 3363TIP3    H134284   1.054   6.041  20.249  0.7556 -1.0331  0.1580
 3363TIP3    H234285   1.110   6.175  20.206 -1.5329 -0.0684  0.0856
 3364TIP3   OH234286   0.073   5.370  20.273  0.1166 -0.2517 -0.0840
 3364TIP3    H134287   0.097   5.286  20.312 -0.3238  0.3755  1.6526
 3364TIP3    H234288   0.127   5.376  20.194  0.9443 -1.6757  0.3281
 3365TIP3   OH234289   2.415   3.338  20.034  0.6141  0.1230 -0.6378
 3365TIP3    H134290   2.417   3.282  20.112 -0.2694 -0.0737 -0.7419
 3365TIP3    H234291   2.475   3.297  19.973  0.5000 -0.3298 -0.4507
 3366TIP3   OH234292   1.359   1.591  17.005 -0.2262  0.1945 -0.1539
 3366TIP3    H134293   1.289   1.531  16.982  0.2827 -0.6149  0.3861
 3366TIP3    H234294   1.426   1.537  17.047  0.1202  1.1658  0.6110
 3367TIP3   OH234295   5.982   5.392  19.404 -0.1082 -0.5040 -0.8815
 3367TIP3    H134296   6.077   5.388  19.414 -0.0984 -1.3855 -1.2328
 3367TIP3    H234297   5.947   5.370  19.490  0.0055 -0.2766 -0.7766
 3368TIP3   OH234298   4.223   1.071  18.176 -0.2718  0.0516  0.1474
 3368TIP3    H134299   4.316   1.051  18.164 -0.1347  0.7547 -0.0198
 3368TIP3    H234300   4.187   0.994  18.218  0.0125 -0.9930 -1.4581
 3369TIP3   OH234301   6.323   3.520  20.268  0.3207  0.4887 -0.4053
 3369TIP3    H134302   6.330   3.607  20.307 -2.2100 -0.2539  2.0139
 3369TIP3    H234303   6.385   3.467  20.318 -0.9671  0.1198  0.8551
 3370TIP3   OH234304   6.250   5.831  19.949 -0.3313 -0.1481 -0.3670
 3370TIP3    H134305   6.293   5.917  19.943  0.7517 -0.6589 -0.2197
 3370TIP3    H234306   6.319   5.769  19.925 -0.3024 -1.1750  2.1176
 3371TIP3   OH234307   3.457   0.500  19.955  0.8735 -0.0647 -0.0954
 3371TIP3    H134308   3.479   0.593  19.967 -1.3306  0.5208 -0.1504
 3371TIP3    H234309   3.395   0.500  19.882 -0.9020 -1.2923  1.3335
 3372TIP3   OH234310   5.933   6.283  19.261  0.0407 -0.2291  0.0516
 3372TIP3    H134311   6.016   6.258  19.302 -0.2235 -0.9829  0.1513
 3372TIP3    H234312   5.869   6.276  19.332 -0.1676 -0.0171 -0.1144
 3373TIP3   OH234313   2.726   0.839  18.183  0.3872 -0.2154  0.1560
 3373TIP3    H134314   2.665   0.819  18.111 -1.4116 -0.5864  1.6955
 3373TIP3    H234315   2.734   0.934  18.180 -2.1163  0.1212  1.2363
 3374TIP3   OH234316   6.674   0.075  19.902  0.5421 -0.2366  0.1842
 3374TIP3    H134317   6.655  -0.017  19.886  0.4094 -0.1232 -0.3243
 3374TIP3    H234318   6.755   0.092  19.853  2.1243 -0.7587  2.4578
 3375TIP3   OH234319   5.736   4.079  19.743 -0.0214 -0.3991 -0.0116
 3375TIP3    H134320   5.798   4.020  19.785 -0.2589 -1.2481 -0.8312
 3375TIP3    H234321   5.688   4.119  19.816 -0.2141 -1.6046  0.5380
 3376TIP3   OH234322   4.619   0.727  19.547 -0.4890  0.7984  0.2689
 3376TIP3    H134323   4.614   0.659  19.614 -1.3378  0.3200 -0.2549
 3376TIP3    H234324   4.688   0.786  19.577  1.8762 -1.4815 -0.3685
 3377TIP3   OH234325   5.952   2.816  20.208 -0.8344  0.1040 -0.0327
 3377TIP3    H134326   5.861   2.789  20.198 -1.2126  0.8862  1.1527
 3377TIP3    H234327   5.953   2.908  20.179 -0.1363 -0.2895 -1.3278
 3378TIP3   OH234328   3.067   1.984  18.610  0.0528 -0.5064  0.2969
 3378TIP3    H134329   3.131   1.928  18.566  0.6832  0.0518  0.4718
 3378TIP3    H234330   3.067   1.952  18.701 -1.0583 -1.4915 -0.0240
 3379TIP3   OH234331   0.849   2.014  18.473  0.4107 -0.0807 -0.2739
 3379TIP3    H134332   0.910   1.983  18.540 -0.1179  0.2995  0.4002
 3379TIP3    H234333   0.868   1.962  18.396  2.2808  0.7162 -0.3896
 3380TIP3   OH234334   3.447   1.440  20.707 -0.0550 -0.3270  0.3127
 3380TIP3    H134335   3.501   1.504  20.660  0.0763 -0.2645  0.5471
 3380TIP3    H234336   3.489   1.356  20.689  0.3393 -0.2383  0.7943
 3381TIP3   OH234337   2.867   6.175  17.214 -0.1502  1.0529  0.2343
 3381TIP3    H134338   2.905   6.263  17.207  1.4155  0.4090  0.1533
 3381TIP3    H234339   2.941   6.119  17.239 -1.4265 -0.0111  1.8327
 3382TIP3   OH234340   2.368   1.981  20.013  0.1337 -0.1257  0.0249
 3382TIP3    H134341   2.441   2.033  19.979  0.3288 -0.4480 -0.0541
 3382TIP3    H234342   2.382   1.979  20.107  1.5175 -2.0733 -0.1633
 3383TIP3   OH234343   2.712   3.736  19.874  0.6939  0.5812  0.9364
 3383TIP3    H134344   2.744   3.668  19.814 -0.9633 -0.2142  0.8967
 3383TIP3    H234345   2.697   3.812  19.819  1.0348  0.4807  0.7004
 3384TIP3   OH234346   5.910   3.465  19.329 -0.0797 -1.0253  0.2772
 3384TIP3    H134347   5.920   3.371  19.315  1.1989 -1.0895  1.4383
 3384TIP3    H234348   5.993   3.503  19.300 -1.4049  0.0807 -2.4496
 3385TIP3   OH234349   0.541   3.535  19.643 -0.4632  0.4625  0.3330
 3385TIP3    H134350   0.458   3.549  19.597 -0.4313  1.5347  0.5777
 3385TIP3    H234351   0.608   3.556  19.579 -0.3745 -0.1367  0.2212
 3386TIP3   OH234352   0.571   5.439  17.550  0.1327  0.0424  0.3616
 3386TIP3    H134353   0.479   5.416  17.538 -0.1603  0.7364  1.2567
 3386TIP3    H234354   0.619   5.361  17.521 -0.7636 -0.6957  0.8225
 3387TIP3   OH234355   3.400   0.059  17.165 -0.4371 -0.1929  0.1207
 3387TIP3    H134356   3.309   0.091  17.160 -0.3433 -0.0649 -1.7345
 3387TIP3    H234357   3.452   0.130  17.127  0.2036 -1.0409 -0.6176
 3388TIP3   OH234358   1.640   3.891  19.528 -0.0640 -0.1381 -0.0019
 3388TIP3    H134359   1.554   3.864  19.558  0.9926 -1.3500  2.1364
 3388TIP3    H234360   1.659   3.971  19.576 -1.1196  1.8605 -2.6555
 3389TIP3   OH234361   1.966   3.939  20.825 -0.0398  0.2384 -0.2355
 3389TIP3    H134362   1.876   3.924  20.796 -0.6014 -1.7187  2.1387
 3389TIP3    H234363   1.956   3.994  20.903  0.9267  0.7184 -0.4428
 3390TIP3   OH234364   0.111   3.789  19.103 -0.0436  0.8209 -0.1674
 3390TIP3    H134365   0.140   3.745  19.024  0.3811 -0.1907  0.5243
 3390TIP3    H234366   0.019   3.811  19.087  0.2249  1.2241 -1.1802
 3391TIP3   OH234367   1.457   0.433  19.448  0.5919 -0.3327  0.2002
 3391TIP3    H134368   1.478   0.357  19.502  1.3558 -0.5507 -0.3961
 3391TIP3    H234369   1.540   0.481  19.439  0.1683  0.4596  0.3891
 3392TIP3   OH234370   4.180   2.229  17.287  0.1310  0.3632 -0.1777
 3392TIP3    H134371   4.255   2.225  17.228 -0.1364  0.0078 -0.5003
 3392TIP3    H234372   4.105   2.204  17.233 -0.0303 -0.5779  0.4481
 3393TIP3   OH234373   5.942   3.261  19.022 -0.0138  0.2786 -0.0867
 3393TIP3    H134374   5.977   3.256  19.111 -0.0427  0.0841 -0.0862
 3393TIP3    H234375   5.906   3.174  19.005  0.3087  0.2042 -0.4181
 3394TIP3   OH234376   1.365   2.824  20.687  0.2374 -0.0390  0.2606
 3394TIP3    H134377   1.454   2.810  20.655  0.3536  0.4965  0.3483
 3394TIP3    H234378   1.361   2.917  20.711 -0.3764 -0.0322  0.1635
 3395TIP3   OH234379   2.116   6.128  18.352 -0.0674 -0.2831  0.6506
 3395TIP3    H134380   2.188   6.126  18.416 -1.2967 -0.1166  2.0813
 3395TIP3    H234381   2.156   6.166  18.273  1.5194 -0.5873  1.2609
 3396TIP3   OH234382   3.053   2.690  18.830  0.0467 -0.1698  0.6469
 3396TIP3    H134383   3.075   2.782  18.841 -2.2576  0.3897  1.1107
 3396TIP3    H234384   3.008   2.666  18.911  1.0245 -1.8604  0.7356
 3397TIP3   OH234385   4.327   1.706  18.037 -0.0478  0.1546  0.8241
 3397TIP3    H134386   4.312   1.633  18.096  1.1764 -1.0246 -0.2726
 3397TIP3    H234387   4.335   1.667  17.951  1.2077  1.5029  0.2819
 3398TIP3   OH234388   1.425   2.950  20.097  0.6017  0.2188 -0.2448
 3398TIP3    H134389   1.518   2.946  20.077  0.9654 -0.4560  1.4409
 3398TIP3    H234390   1.412   3.035  20.139 -0.1249  1.5507 -2.9373
 3399TIP3   OH234391   4.799   0.872  19.694 -0.1839 -0.0713 -0.1374
 3399TIP3    H134392   4.849   0.896  19.772 -0.3732 -1.8346  0.5744
 3399TIP3    H234393   4.713   0.911  19.707  0.4884  1.6855 -0.6475
 3400TIP3   OH234394   4.435   5.765  18.227  0.5460 -0.7230 -0.2166
 3400TIP3    H134395   4.345   5.792  18.205  0.0571 -2.2621 -0.2100
 3400TIP3    H234396   4.437   5.767  18.323  0.0087 -2.1574 -0.1507
 3401TIP3   OH234397   2.474   6.102  20.312  0.0071 -0.5479 -1.0346
 3401TIP3    H134398   2.524   6.153  20.248 -0.3247  1.2138  0.0560
 3401TIP3    H234399   2.427   6.167  20.364  1.1935 -1.7920  1.8159
 3402TIP3   OH234400   0.070   5.651  18.523 -0.7762 -0.2610 -0.0563
 3402TIP3    H134401   0.080   5.566  18.480 -2.2356 -1.6490  2.1560
 3402TIP3    H234402   0.156   5.692  18.516  0.1035 -2.1200 -0.7442
 3403TIP3   OH234403   0.023   4.188  20.202 -0.2688 -0.2898 -0.2200
 3403TIP3    H134404  -0.008   4.100  20.223  1.0145 -0.1456  2.6494
 3403TIP3    H234405  -0.049   4.227  20.151 -2.4763 -1.7633  1.6006
 3404TIP3   OH234406   2.842   3.283  19.913  0.2485 -0.0940  0.0492
 3404TIP3    H134407   2.911   3.283  19.846  0.0732  2.4018 -0.2087
 3404TIP3    H234408   2.883   3.241  19.989  0.7085 -2.2670 -1.2939
 3405TIP3   OH234409   3.656   3.199  19.388 -0.5671 -0.1576  0.4308
 3405TIP3    H134410   3.750   3.186  19.399 -0.5338  0.2504  0.6682
 3405TIP3    H234411   3.641   3.290  19.416 -1.2591 -0.6808  1.8396
 3406TIP3   OH234412   6.505   0.504  20.078 -0.0142 -0.0754  0.0800
 3406TIP3    H134413   6.545   0.548  20.002  0.2079  0.4114  0.4686
 3406TIP3    H234414   6.579   0.485  20.135  0.0394 -1.9588 -0.5542
 3407TIP3   OH234415   6.109   5.858  19.273  0.0193  0.0534 -0.1942
 3407TIP3    H134416   6.031   5.880  19.222  0.0670  0.4882 -0.0834
 3407TIP3    H234417   6.076   5.845  19.362  0.0365 -0.0104 -0.1964
 3408TIP3   OH234418   4.583   2.862  17.450 -0.5157 -0.0493 -0.3952
 3408TIP3    H134419   4.638   2.889  17.377  0.3906  1.1019  0.6763
 3408TIP3    H234420   4.644   2.832  17.517 -1.1379  1.5165  0.9278
 3409TIP3   OH234421   2.262   0.287  20.535  0.2389 -0.2146  0.3834
 3409TIP3    H134422   2.243   0.210  20.482  0.2019  0.1606 -0.1569
 3409TIP3    H234423   2.201   0.282  20.608 -0.4997 -0.1344 -0.2171
 3410TIP3   OH234424   3.173   3.202  18.069 -0.5789  0.1160  0.0858
 3410TIP3    H134425   3.098   3.201  18.010  0.6096  1.2444 -1.5635
 3410TIP3    H234426   3.239   3.149  18.024 -0.4834 -1.1848  1.6910
 3411TIP3   OH234427   4.765   3.538  17.628 -0.5990  0.6076 -0.7171
 3411TIP3    H134428   4.732   3.449  17.624  1.9136 -0.5396  1.1264
 3411TIP3    H234429   4.839   3.540  17.568  0.7608  0.6940  0.8749
 3412TIP3   OH234430   5.791   6.277  19.521 -0.0239  0.1840 -0.0081
 3412TIP3    H134431   5.827   6.287  19.609  1.0420  1.2404 -0.5367
 3412TIP3    H234432   5.716   6.335  19.518 -0.8219 -0.7897  0.5803
 3413TIP3   OH234433   5.749   0.263  17.614  0.1963 -0.5192 -0.2841
 3413TIP3    H134434   5.702   0.291  17.535  0.2540  0.6116  0.0627
 3413TIP3    H234435   5.739   0.336  17.675  0.9999 -0.9638  0.3999
 3414TIP3   OH234436   2.463   4.604  19.830  0.4030  0.7817  0.2066
 3414TIP3    H134437   2.395   4.662  19.794  0.2559  0.9338  0.7209
 3414TIP3    H234438   2.540   4.659  19.838  0.6517  0.5605 -0.5572
 3415TIP3   OH234439   1.707   5.198  19.928 -0.2219 -0.1157 -0.1474
 3415TIP3    H134440   1.644   5.220  19.859 -0.5990 -1.7047 -0.3573
 3415TIP3    H234441   1.681   5.110  19.956  1.5240 -0.5478  0.2052
 3416TIP3   OH234442   6.321   5.016  18.115  0.3834 -0.7068 -0.3999
 3416TIP3    H134443   6.260   4.950  18.147  0.9361 -0.6091  0.8930
 3416TIP3    H234444   6.292   5.033  18.025 -0.7455 -1.5303 -0.2167
 3417TIP3   OH234445   4.944   2.390  19.476  0.6181 -0.2342 -0.1011
 3417TIP3    H134446   4.930   2.484  19.489 -1.0395 -0.6671  1.8736
 3417TIP3    H234447   4.953   2.354  19.565 -1.0120 -2.1998 -0.6376
 3418TIP3   OH234448   3.876   2.374  18.951 -0.5897 -0.0242 -0.0040
 3418TIP3    H134449   3.886   2.279  18.956  1.0333  0.0021 -1.7504
 3418TIP3    H234450   3.963   2.407  18.932 -1.0679  1.8762  0.7978
 3419TIP3   OH234451   0.426   5.201  18.322 -0.7000 -0.4188 -0.5193
 3419TIP3    H134452   0.517   5.219  18.346 -0.5788 -0.7473 -0.7211
 3419TIP3    H234453   0.413   5.249  18.240 -0.0067 -2.1641 -1.7101
 3420TIP3   OH234454   5.838   1.323  20.724 -0.0530 -0.3915 -0.0658
 3420TIP3    H134455   5.848   1.358  20.812 -2.3918 -0.0910  0.1639
 3420TIP3    H234456   5.907   1.258  20.715  0.7138  0.1361  1.6803
 3421TIP3   OH234457   0.915   4.951  18.613 -0.4289  0.3109  0.2308
 3421TIP3    H134458   0.953   4.974  18.697 -0.6448 -2.5286  1.2295
 3421TIP3    H234459   0.844   5.014  18.600  0.5095  1.6722  1.4478
 3422TIP3   OH234460   0.635   5.471  18.461 -0.3543  0.5389 -0.0394
 3422TIP3    H134461   0.673   5.524  18.532 -1.2490  0.6939  0.3348
 3422TIP3    H234462   0.614   5.534  18.393  0.7170  0.3623 -0.5617
 3423TIP3   OH234463   2.582   6.537  17.843  0.1294  0.5964 -0.0462
 3423TIP3    H134464   2.503   6.571  17.883  0.4001  0.4295  0.6443
 3423TIP3    H234465   2.552   6.495  17.762 -0.7745 -1.2405  1.1749
 3424TIP3   OH234466   6.269   6.544  17.152  0.8326  0.7122 -0.6585
 3424TIP3    H134467   6.286   6.466  17.205 -0.9528  0.5934 -0.1928
 3424TIP3    H234468   6.329   6.610  17.187  1.6044 -0.1398 -0.3334
 3425TIP3   OH234469   6.627   0.141  19.104  0.4171  0.4599  0.5444
 3425TIP3    H134470   6.548   0.095  19.134 -0.0625  1.2017  0.4300
 3425TIP3    H234471   6.698   0.081  19.125 -0.3374 -1.3007 -1.4401
 3426TIP3   OH234472   2.934   5.799  19.294 -0.6610 -0.5086  0.1759
 3426TIP3    H134473   3.012   5.839  19.332 -0.3013  0.3136 -1.3156
 3426TIP3    H234474   2.873   5.789  19.367 -0.0902  1.1557  0.9148
 3427TIP3   OH234475   6.159   4.806  18.167 -0.0823  0.0907 -0.0378
 3427TIP3    H134476   6.070   4.790  18.200  0.0893  2.3291  1.7484
 3427TIP3    H234477   6.216   4.762  18.231  0.1501  1.1863  0.5266
 3428TIP3   OH234478   1.231   0.708  16.883  0.4273 -0.3049  0.5209
 3428TIP3    H134479   1.238   0.798  16.912 -1.7774 -0.0249  0.4055
 3428TIP3    H234480   1.188   0.714  16.798 -2.4506 -1.5053  1.7562
 3429TIP3   OH234481   1.392   4.042  19.119 -0.2612 -0.0441  0.1522
 3429TIP3    H134482   1.381   3.967  19.178  0.0871  0.6887  1.1805
 3429TIP3    H234483   1.317   4.098  19.139 -0.3774  0.0123 -0.4282
 3430TIP3   OH234484   3.187   1.541  20.186 -0.1638 -0.4232 -0.1533
 3430TIP3    H134485   3.133   1.592  20.247 -0.3468 -0.1475 -0.5398
 3430TIP3    H234486   3.271   1.587  20.185 -0.5977  0.4030 -1.1606
 3431TIP3   OH234487   0.497   2.209  20.543 -0.0384  0.0554  0.4122
 3431TIP3    H134488   0.533   2.272  20.482  0.1839 -2.0986 -1.8421
 3431TIP3    H234489   0.557   2.210  20.618 -0.1952  2.5888  0.5960
 3432TIP3   OH234490   0.499   0.598  18.481 -0.3543  0.5132 -0.2779
 3432TIP3    H134491   0.557   0.527  18.508  1.2485  1.0330 -2.0611
 3432TIP3    H234492   0.427   0.555  18.436 -0.4792 -0.0759  0.4825
 3433TIP3   OH234493   3.104   0.096  20.138 -0.1959  0.6061 -0.7424
 3433TIP3    H134494   3.135   0.166  20.081 -1.8506  1.3429 -0.7923
 3433TIP3    H234495   3.010   0.091  20.121 -0.0973 -1.7504 -0.8389
 3434TIP3   OH234496   5.533   1.895  19.970  0.2024  0.2629 -0.4566
 3434TIP3    H134497   5.573   1.965  20.022 -0.1334 -2.3040  3.6662
 3434TIP3    H234498   5.603   1.863  19.914  2.3309 -0.2418  2.3191
 3435TIP3   OH234499   2.080   4.161  20.685 -0.0744  0.1864 -0.2499
 3435TIP3    H134500   2.058   4.077  20.725  2.9905  0.2622  1.9450
 3435TIP3    H234501   1.998   4.191  20.645 -1.5263 -3.3236 -0.2809
 3436TIP3   OH234502   1.394   2.024  20.095  0.1187 -0.0143  0.5296
 3436TIP3    H134503   1.372   1.970  20.018 -0.6772  0.0600  0.6933
 3436TIP3    H234504   1.309   2.056  20.126  0.2412 -1.3203  2.3872
 3437TIP3   OH234505   3.368   1.225  18.878 -0.6196 -0.2016  0.0905
 3437TIP3    H134506   3.340   1.197  18.965  0.6582  2.5941  1.5208
 3437TIP3    H234507   3.334   1.314  18.869  1.9640  0.7913 -0.8645
 3438TIP3   OH234508   3.388   0.184  19.259  0.0563  0.1827 -0.1484
 3438TIP3    H134509   3.313   0.181  19.200  0.6141  0.5232 -0.8877
 3438TIP3    H234510   3.429   0.269  19.242  0.7026 -0.0649  0.1342
 3439TIP3   OH234511   3.576   1.034  18.887  0.0169 -0.1500 -0.0662
 3439TIP3    H134512   3.524   1.114  18.886 -1.1287 -0.8194  1.1251
 3439TIP3    H234513   3.628   1.040  18.967 -0.4075 -0.7686  0.2699
 3440TIP3   OH234514   0.795   5.134  17.758  0.7595 -0.2326 -0.1277
 3440TIP3    H134515   0.706   5.114  17.730  0.6519 -0.5346  0.4317
 3440TIP3    H234516   0.849   5.110  17.682  0.3253  0.4057 -0.6443
 3441TIP3   OH234517   6.660   5.796  20.010  0.0090  0.0145 -0.1874
 3441TIP3    H134518   6.637   5.776  19.919 -0.8793 -0.1938  0.0705
 3441TIP3    H234519   6.594   5.859  20.037  0.9527  0.9585 -0.0313
 3442TIP3   OH234520   5.004   4.869  18.392  0.4041  0.4650  0.6367
 3442TIP3    H134521   5.055   4.831  18.462  0.3888  0.0588  0.4270
 3442TIP3    H234522   4.926   4.813  18.384  0.2660  0.6730  0.4872
 3443TIP3   OH234523   0.429   2.518  19.208  0.4930  0.2164  0.1837
 3443TIP3    H134524   0.365   2.543  19.275  0.2971  2.4466 -0.7640
 3443TIP3    H234525   0.498   2.583  19.216  0.4827  0.5081 -1.7345
 3444TIP3   OH234526   3.442   2.459  18.590 -0.3491  0.4203 -0.0269
 3444TIP3    H134527   3.392   2.377  18.591 -0.1201  0.2264 -1.5814
 3444TIP3    H234528   3.519   2.442  18.644  0.5231 -0.9762 -1.6224
 3445TIP3   OH234529   1.272   3.591  19.799 -0.0620 -0.1069  0.1826
 3445TIP3    H134530   1.314   3.677  19.801 -1.1466  0.4701 -0.6100
 3445TIP3    H234531   1.324   3.541  19.736  0.3571  0.0837  0.3718
 3446TIP3   OH234532   2.494   2.785  19.185  0.0545  0.2115  0.0883
 3446TIP3    H134533   2.408   2.799  19.223 -0.1642  0.0033 -0.3138
 3446TIP3    H234534   2.519   2.870  19.150  0.2848  0.4176  0.7462
 3447TIP3   OH234535   4.096   6.109  20.091  0.5359 -0.4941  0.0043
 3447TIP3    H134536   4.145   6.053  20.151  0.7884  0.9149  1.1486
 3447TIP3    H234537   4.162   6.166  20.052  0.4462 -1.6684 -2.0003
 3448TIP3   OH234538   3.777   3.004  20.315  0.4618  0.4206 -0.2519
 3448TIP3    H134539   3.850   3.049  20.272  2.2196 -0.9935  1.1043
 3448TIP3    H234540   3.761   2.927  20.261  0.9553 -0.0292  0.2422
 3449TIP3   OH234541   6.116   6.100  20.471 -0.0535  0.5489 -0.2103
 3449TIP3    H134542   6.034   6.052  20.486  0.8789 -1.5625 -1.4004
 3449TIP3    H234543   6.173   6.072  20.543  1.0741 -1.6518 -1.8363
 3450TIP3   OH234544   3.117   0.875  19.097 -0.7274 -0.7197  0.1784
 3450TIP3    H134545   3.082   0.963  19.110 -1.2199 -0.9188  0.2338
 3450TIP3    H234546   3.207   0.880  19.127 -0.6216 -0.1232 -0.2094
 3451TIP3   OH234547   1.831   6.601  17.817  0.0789  0.2970 -0.0339
 3451TIP3    H134548   1.864   6.541  17.751 -0.1202 -0.1486  0.2688
 3451TIP3    H234549   1.881   6.682  17.803  1.2130 -0.3169  0.3299
 3452TIP3   OH234550   0.259   5.782  18.113  0.1715  0.3634  0.4935
 3452TIP3    H134551   0.173   5.757  18.146  0.4320  0.0919  0.9843
 3452TIP3    H234552   0.246   5.795  18.019 -0.6578  1.4758  0.7453
 3453TIP3   OH234553   0.345   3.664  20.073 -0.2761  0.8338  0.1317
 3453TIP3    H134554   0.377   3.663  19.982  0.0562  0.4720  0.2508
 3453TIP3    H234555   0.421   3.690  20.125  0.7629 -2.8641  0.7477
 3454TIP3   OH234556   5.929   6.732  19.883 -0.1953 -0.2808 -0.8891
 3454TIP3    H134557   5.936   6.810  19.938  1.8870  0.2108 -1.7417
 3454TIP3    H234558   5.995   6.672  19.917 -0.7933 -1.0960 -1.1387
 3455TIP3   OH234559   6.012   3.131  17.053  0.2183 -0.0908  0.1850
 3455TIP3    H134560   5.997   3.196  17.122  0.7431  1.4758 -1.1087
 3455TIP3    H234561   6.107   3.124  17.047  0.1949  0.3179 -0.8258
 3456TIP3   OH234562   2.293   5.863  18.240  0.4455  0.0402  0.3071
 3456TIP3    H134563   2.310   5.919  18.165 -0.0931  0.1579  0.2661
 3456TIP3    H234564   2.198   5.847  18.237  0.7340 -1.8195 -0.3577
 3457TIP3   OH234565   2.814   6.682  17.837  0.0842 -0.4722 -0.0588
 3457TIP3    H134566   2.786   6.649  17.752  0.9574 -0.2628 -0.4396
 3457TIP3    H234567   2.736   6.676  17.892 -0.5480 -0.4203 -0.9260
 3458TIP3   OH234568   4.833   2.268  18.825  0.8866 -0.5669  0.6809
 3458TIP3    H134569   4.880   2.349  18.846 -1.0335  0.6240  0.6167
 3458TIP3    H234570   4.901   2.200  18.825  2.6987  1.1487 -0.0824
 3459TIP3   OH234571   3.267   0.704  18.817  0.2212 -0.3631  0.4586
 3459TIP3    H134572   3.219   0.634  18.772  0.8651  0.3099 -1.3694
 3459TIP3    H234573   3.223   0.785  18.791  0.8398  0.0796  0.7494
 3460TIP3   OH234574   4.963   5.036  19.029  0.3243 -0.0300  0.0347
 3460TIP3    H134575   5.053   5.038  19.061  0.4746 -1.9924 -0.1311
 3460TIP3    H234576   4.971   5.002  18.940 -0.5950 -0.3336  0.0656
 3461TIP3   OH234577   0.558   5.028  19.511 -0.1308 -0.7509 -0.0782
 3461TIP3    H134578   0.653   5.020  19.514  0.0479  1.2200  1.3383
 3461TIP3    H234579   0.541   5.084  19.435 -0.1049 -0.5548  0.0598
 3462TIP3   OH234580   3.204   0.224  18.430 -0.6881  0.2060  0.5688
 3462TIP3    H134581   3.283   0.254  18.384  0.4947  0.4890  2.6360
 3462TIP3    H234582   3.147   0.301  18.431 -0.4242  0.4106  0.1886
 3463TIP3   OH234583   0.505   3.918  17.644 -0.2287 -0.6483  0.1733
 3463TIP3    H134584   0.428   3.974  17.636 -0.3310 -0.9011 -0.8187
 3463TIP3    H234585   0.557   3.938  17.566 -0.3914 -2.0861 -0.3396
 3464TIP3   OH234586   2.922   6.142  18.802 -0.7317  0.9864 -0.8299
 3464TIP3    H134587   2.954   6.067  18.851 -0.7293  1.0519 -0.7307
 3464TIP3    H234588   2.908   6.210  18.868 -1.8673  0.6935 -0.7472
 3465TIP3   OH234589   6.524   0.466  18.353 -0.4353  0.6174  0.6528
 3465TIP3    H134590   6.576   0.525  18.299 -0.6515 -0.2883 -0.5817
 3465TIP3    H234591   6.438   0.508  18.359 -0.8559  0.0369 -0.9538
 3466TIP3   OH234592   5.561   6.065  19.869 -0.1024 -0.3318 -0.6080
 3466TIP3    H134593   5.517   6.035  19.789 -1.1595  1.3366 -0.6845
 3466TIP3    H234594   5.545   6.159  19.873  1.5609 -0.0359  0.5852
 3467TIP3   OH234595   2.161   3.332  20.301 -0.0854 -0.5847  0.4985
 3467TIP3    H134596   2.160   3.344  20.206  0.7087  0.2003  0.5740
 3467TIP3    H234597   2.071   3.345  20.328 -0.0982  0.5115 -0.0083
 3468TIP3   OH234598   3.923   2.646  18.374  0.0504  0.2965  0.1464
 3468TIP3    H134599   3.907   2.652  18.469 -0.1851  1.8699  0.0317
 3468TIP3    H234600   3.965   2.728  18.351 -0.6207  0.2756 -1.2634
 3469TIP3   OH234601   3.705   0.728  18.562  0.0140 -0.5942 -0.0825
 3469TIP3    H134602   3.797   0.744  18.583  0.0222 -0.4570 -0.2190
 3469TIP3    H234603   3.666   0.699  18.645 -0.1376  0.7334  0.3430
 3470TIP3   OH234604   2.387   1.466  18.136  0.3960 -0.2192  0.0966
 3470TIP3    H134605   2.398   1.534  18.069 -0.2797  0.6431  0.8294
 3470TIP3    H234606   2.475   1.453  18.170  0.8122 -0.9376 -1.1880
 3471TIP3   OH234607   2.430   1.059  19.617  0.2637  0.7304  0.2673
 3471TIP3    H134608   2.406   1.082  19.528 -0.8377  1.4623  0.7237
 3471TIP3    H234609   2.434   0.964  19.618 -2.1034  0.5687 -0.0228
 3472TIP3   OH234610   0.667   1.123  18.102 -0.3055  0.3154 -0.5094
 3472TIP3    H134611   0.625   1.207  18.121  0.5536  0.7130 -0.3522
 3472TIP3    H234612   0.743   1.145  18.048  1.1698 -0.1032  1.2874
 3473TIP3   OH234613   3.378   3.557  18.920  0.4988  0.0916  0.1077
 3473TIP3    H134614   3.305   3.545  18.980 -0.0342  0.2750 -0.4964
 3473TIP3    H234615   3.406   3.647  18.933  1.6432 -0.4280  1.4626
 3474TIP3   OH234616   5.826   4.581  18.932  0.6581  0.2176  0.2335
 3474TIP3    H134617   5.888   4.619  18.995  1.1497  0.1747 -0.2180
 3474TIP3    H234618   5.771   4.523  18.985  0.2126  1.1798  0.8521
 3475TIP3   OH234619   4.848   3.042  19.438 -0.0068  0.5217  0.9728
 3475TIP3    H134620   4.938   3.036  19.407 -0.2236 -0.4491  0.4826
 3475TIP3    H234621   4.813   3.119  19.393 -0.0533 -0.3628 -0.5670
 3476TIP3   OH234622   1.180   6.573  18.770 -0.2817 -0.6437  0.1726
 3476TIP3    H134623   1.135   6.578  18.686  0.4796  0.8236 -0.1924
 3476TIP3    H234624   1.242   6.501  18.761 -0.6712 -0.9189 -0.2921
 3477TIP3   OH234625   3.865   3.405  17.617  0.2022 -0.3517 -0.2224
 3477TIP3    H134626   3.829   3.430  17.702 -1.9483 -0.1619 -1.1047
 3477TIP3    H234627   3.851   3.311  17.612  1.9036 -0.6526  0.2984
 3478TIP3   OH234628   2.565   3.576  19.011 -0.2632  0.0957 -0.2258
 3478TIP3    H134629   2.501   3.515  18.974  1.1720 -2.2876  0.9031
 3478TIP3    H234630   2.597   3.531  19.090  0.7526  2.4678  0.8090
 3479TIP3   OH234631   4.427   2.858  19.706  0.0330  0.5365 -0.2130
 3479TIP3    H134632   4.344   2.871  19.661 -1.3476 -0.8235  1.7421
 3479TIP3    H234633   4.481   2.808  19.645 -0.5839  1.4339 -1.5143
 3480TIP3   OH234634   2.102   0.301  19.953  0.2807 -0.4280 -0.2220
 3480TIP3    H134635   2.058   0.302  19.868 -0.8458 -2.2127  0.2921
 3480TIP3    H234636   2.032   0.320  20.017  0.3666 -2.3841  0.5291
 3481TIP3   OH234637   4.004   1.903  20.088  0.1365 -0.2212  0.3238
 3481TIP3    H134638   4.070   1.966  20.117  0.9891  0.0283 -1.9881
 3481TIP3    H234639   4.019   1.826  20.143  0.9833  0.5555  1.2264
 3482TIP3   OH234640   3.587   0.028  20.604  1.0007 -0.5854  0.3905
 3482TIP3    H134641   3.522  -0.015  20.548  1.8300 -0.7016 -0.5219
 3482TIP3    H234642   3.645   0.073  20.542  1.1545  0.4157  1.2434
 3483TIP3   OH234643   1.881   4.125  18.721  0.1451 -0.3356 -0.3609
 3483TIP3    H134644   1.813   4.181  18.685  0.2826 -0.7668 -1.3073
 3483TIP3    H234645   1.842   4.037  18.721 -0.0920 -0.2663  1.1530
 3484TIP3   OH234646   0.054   6.476  17.734  0.0384 -0.0550  0.2901
 3484TIP3    H134647   0.123   6.446  17.794 -0.8027  1.1201  1.9378
 3484TIP3    H234648  -0.018   6.415  17.749  0.7454 -1.4840 -1.6716
 3485TIP3   OH234649   3.410   1.867  19.503 -0.3056 -0.0877  0.2044
 3485TIP3    H134650   3.443   1.793  19.452 -0.8764 -0.5413  0.4796
 3485TIP3    H234651   3.354   1.827  19.569 -0.3564  0.5700  0.5680
 3486TIP3   OH234652   5.902   3.303  19.646 -0.3435 -0.4234 -0.1590
 3486TIP3    H134653   5.913   3.393  19.678  3.5381  0.7039 -3.8234
 3486TIP3    H234654   5.820   3.306  19.596  0.0054  1.2984 -0.7123
 3487TIP3   OH234655   0.333   4.349  19.463 -0.3897 -0.0146 -0.1295
 3487TIP3    H134656   0.372   4.431  19.491 -0.0346 -0.4060  0.5424
 3487TIP3    H234657   0.250   4.344  19.511 -0.3201 -0.1421 -0.0226
 3488TIP3   OH234658   2.178   1.434  19.145 -0.9187  0.5827  0.0206
 3488TIP3    H134659   2.140   1.494  19.080  0.6213  1.2284 -0.3280
 3488TIP3    H234660   2.210   1.491  19.215  0.7853  0.2400 -0.4265
 3489TIP3   OH234661   5.238   2.186  19.329 -0.3669 -0.3194  0.0464
 3489TIP3    H134662   5.238   2.278  19.304 -1.4079 -0.6124 -1.1627
 3489TIP3    H234663   5.251   2.186  19.424  2.1025  0.9336 -0.2248
 3490TIP3   OH234664   0.213   6.289  17.867 -1.0875 -0.6305  0.5017
 3490TIP3    H134665   0.233   6.195  17.873  1.8096 -0.0537  3.2821
 3490TIP3    H234666   0.258   6.318  17.788 -2.1988 -1.5790 -0.5085
 3491TIP3   OH234667   4.987   2.637  20.267 -0.1992  0.1354 -0.1723
 3491TIP3    H134668   5.026   2.550  20.252  0.6008  0.3849  0.3959
 3491TIP3    H234669   5.020   2.691  20.195  0.8501  0.4506  0.5345
 3492TIP3   OH234670   0.178   1.733  18.214  0.5465  0.4085  0.0456
 3492TIP3    H134671   0.132   1.682  18.147  1.8044  0.1161 -0.6389
 3492TIP3    H234672   0.218   1.668  18.271  0.2343  0.6533  0.5490
 3493TIP3   OH234673   3.261   4.222  17.759 -0.0438 -0.2812 -0.3358
 3493TIP3    H134674   3.182   4.265  17.728 -0.4782 -0.6614  0.2375
 3493TIP3    H234675   3.239   4.129  17.761  0.3083 -0.3607  0.1200
 3494TIP3   OH234676   1.725   5.104  20.229 -0.1075 -0.2299  0.3771
 3494TIP3    H134677   1.777   5.105  20.309  1.0728  1.4529 -0.3400
 3494TIP3    H234678   1.664   5.177  20.239 -0.4524 -0.4684  0.0512
 3495TIP3   OH234679   0.845   3.299  19.956 -0.0400  0.1715 -0.3459
 3495TIP3    H134680   0.829   3.334  20.044  0.6125  1.5879 -0.7661
 3495TIP3    H234681   0.938   3.275  19.956 -0.0322  0.1963 -0.6505
 3496TIP3   OH234682   3.839   4.041  20.379  0.2769 -0.0729  0.4925
 3496TIP3    H134683   3.924   4.014  20.346 -0.0098 -0.0950 -0.2305
 3496TIP3    H234684   3.781   3.967  20.362  0.0717  0.0056  0.8302
 3497TIP3   OH234685   4.592   1.850  20.810  0.4116 -0.3260  0.4212
 3497TIP3    H134686   4.580   1.936  20.850  1.2909  0.1351 -0.2510
 3497TIP3    H234687   4.515   1.800  20.835 -0.2216  0.7330  0.6445
 3498TIP3   OH234688   1.354   5.488  20.564  0.1091 -0.2223  0.2105
 3498TIP3    H134689   1.397   5.539  20.633 -0.5303 -1.1247  1.3206
 3498TIP3    H234690   1.288   5.547  20.529  0.7989  0.4338 -0.0187
 3499TIP3   OH234691   6.427   2.726  17.474  0.3775 -0.0147 -0.2871
 3499TIP3    H134692   6.428   2.660  17.543  1.2632 -0.3525 -0.6092
 3499TIP3    H234693   6.516   2.725  17.439 -0.0669  0.1446 -1.4470
 3500TIP3   OH234694   0.757   2.311  19.175 -0.2726 -0.2692  0.0316
 3500TIP3    H134695   0.800   2.238  19.130 -0.3860  0.4276 -1.2666
 3500TIP3    H234696   0.828   2.372  19.193 -0.0454 -1.0005  1.8233
 3501TIP3   OH234697   1.605   4.954  20.036 -0.2559  0.4371 -0.0493
 3501TIP3    H134698   1.648   4.971  20.119 -1.0068 -1.9305  0.9172
 3501TIP3    H234699   1.518   4.921  20.061 -0.7557  0.3547 -1.7903
 3502TIP3   OH234700   4.125   5.624  17.914  0.2670 -0.0282  0.3851
 3502TIP3    H134701   4.091   5.562  17.978 -3.6394 -0.0053 -1.3740
 3502TIP3    H234702   4.047   5.658  17.869  2.2051  5.1178  0.2021
 3503TIP3   OH234703   5.038   4.191  19.912  0.7630  0.0310  0.4563
 3503TIP3    H134704   5.092   4.255  19.958  1.1302 -0.5407  0.8402
 3503TIP3    H234705   4.990   4.242  19.847 -1.7822  1.3580  3.1473
 3504TIP3   OH234706   2.442   5.937  17.190  0.0285 -0.1949 -0.2576
 3504TIP3    H134707   2.434   6.032  17.193 -0.1509 -0.2463  1.3525
 3504TIP3    H234708   2.352   5.905  17.188  0.0499 -0.3506  0.7299
 3505TIP3   OH234709   0.863   2.582  20.217  0.3065 -0.0091 -0.0704
 3505TIP3    H134710   0.818   2.648  20.269  0.5371  0.1825 -0.1165
 3505TIP3    H234711   0.793   2.531  20.176  0.1143 -0.5521  0.9177
 3506TIP3   OH234712   4.815   3.215  18.373 -0.0688  0.0971 -0.3974
 3506TIP3    H134713   4.845   3.304  18.394 -0.6328  0.7869 -2.3257
 3506TIP3    H234714   4.798   3.217  18.279  0.0980 -2.1340 -0.5294
 3507TIP3   OH234715   3.307   5.204  18.021 -0.0281 -0.0903 -0.2971
 3507TIP3    H134716   3.243   5.183  17.953 -1.1077 -1.5158  1.0712
 3507TIP3    H234717   3.254   5.217  18.100  1.2948 -0.0324  0.6056
 3508TIP3   OH234718   4.972   6.625  19.970 -0.3682  0.3896 -0.1218
 3508TIP3    H134719   5.054   6.601  19.927 -1.0520 -0.8960 -0.7659
 3508TIP3    H234720   4.999   6.673  20.049  1.0121 -0.5240 -0.0089
 3509TIP3   OH234721   6.238   2.183  20.275  0.0876 -0.4834 -0.1150
 3509TIP3    H134722   6.188   2.166  20.356  0.4169  0.3046  0.2691
 3509TIP3    H234723   6.316   2.129  20.284  0.1128 -0.4172  0.0883
 3510TIP3   OH234724   4.544   3.316  18.158 -0.0028 -0.6199  0.0229
 3510TIP3    H134725   4.568   3.408  18.170 -0.2454 -0.5960  0.3485
 3510TIP3    H234726   4.624   3.268  18.180  0.5237 -0.4440 -1.3988
 3511TIP3   OH234727   1.355   3.935  20.072  0.0379 -0.3182 -0.0567
 3511TIP3    H134728   1.332   3.997  20.141  0.4067  0.5946 -0.7412
 3511TIP3    H234729   1.271   3.896  20.046 -0.2697  0.2929  0.0034
 3512TIP3   OH234730   6.133   2.709  19.413  0.3500  0.2590 -0.0446
 3512TIP3    H134731   6.154   2.754  19.495 -0.6118  0.4912  0.0958
 3512TIP3    H234732   6.037   2.708  19.411  0.3422 -1.1813 -0.3804
 3513TIP3   OH234733   4.077   5.085  20.737 -0.5400  0.2143  0.4394
 3513TIP3    H134734   4.050   5.007  20.687  1.7876 -1.0554  1.0376
 3513TIP3    H234735   4.136   5.051  20.804  2.5418  2.7336 -0.7809
 3514TIP3   OH234736   5.354   4.202  17.056 -0.3310  0.5591  0.1047
 3514TIP3    H134737   5.293   4.274  17.066 -0.1809  0.9710 -1.5492
 3514TIP3    H234738   5.318   4.131  17.109 -1.5284  1.2262  0.2009
 3515TIP3   OH234739   5.407   4.408  17.957  0.1716 -0.1342 -0.3295
 3515TIP3    H134740   5.457   4.371  18.030 -0.7595 -0.0070  0.3998
 3515TIP3    H234741   5.328   4.444  17.999 -1.1091 -1.3910 -1.5712
 3516TIP3   OH234742   3.268   6.564  18.641  0.6691  0.5870  0.2928
 3516TIP3    H134743   3.333   6.497  18.662  0.6051  0.9956  1.9134
 3516TIP3    H234744   3.218   6.576  18.722 -0.9045  0.8739 -0.6665
 3517TIP3   OH234745   5.584   1.338  18.785  0.4999 -0.3600  0.0031
 3517TIP3    H134746   5.632   1.412  18.747  0.8256 -0.4111  0.3092
 3517TIP3    H234747   5.528   1.378  18.851 -0.0629 -0.2717 -0.5117
 3518TIP3   OH234748   3.401   0.844  20.164 -0.2045  0.0792  0.4907
 3518TIP3    H134749   3.479   0.822  20.214  1.0849  0.0410 -1.4274
 3518TIP3    H234750   3.379   0.933  20.193  1.8940  0.9752 -0.4686
 3519TIP3   OH234751   6.417   5.405  19.290  0.0862 -0.4868 -0.0301
 3519TIP3    H134752   6.363   5.424  19.367 -1.8269 -2.0743 -0.8799
 3519TIP3    H234753   6.367   5.338  19.242  1.7615 -0.3741 -2.0672
 3520TIP3   OH234754   5.183   1.996  20.366  0.0506  0.1077  0.2763
 3520TIP3    H134755   5.245   1.957  20.427  2.0827  1.2771 -0.9575
 3520TIP3    H234756   5.128   2.052  20.421 -0.2382 -1.2676  1.4502
 3521TIP3   OH234757   2.748   2.853  18.820  0.4648  0.6915  0.1693
 3521TIP3    H134758   2.806   2.778  18.837 -1.0615 -0.4338  0.5645
 3521TIP3    H234759   2.789   2.898  18.746  0.9741 -1.0116 -0.6347
 3522TIP3   OH234760   4.909   5.873  17.982  0.5890 -0.3051  0.2128
 3522TIP3    H134761   4.868   5.906  17.902  0.6105  1.4491  0.8721
 3522TIP3    H234762   4.875   5.784  17.991 -1.7787  0.4628 -0.1958
 3523TIP3   OH234763   3.255   4.188  18.778 -0.7055 -0.3413 -0.7676
 3523TIP3    H134764   3.243   4.232  18.694  2.1360  2.1709 -0.0210
 3523TIP3    H234765   3.183   4.220  18.833 -0.3462  1.1017 -1.1192
 3524TIP3   OH234766   0.606   2.425  20.401 -0.5876  0.6428 -0.2123
 3524TIP3    H134767   0.583   2.501  20.454  0.0887  1.1822 -0.6790
 3524TIP3    H234768   0.585   2.451  20.311 -2.7638 -0.6505 -0.1646
 3525TIP3   OH234769   0.538   6.399  20.092 -0.0396 -0.3521  0.0930
 3525TIP3    H134770   0.615   6.344  20.084  0.2788  0.3229 -1.7874
 3525TIP3    H234771   0.568   6.476  20.140  0.0772 -0.7195  0.6278
 3526TIP3   OH234772   4.644   3.707  20.257 -0.1434 -0.5358 -0.1253
 3526TIP3    H134773   4.550   3.727  20.251  0.2634  1.1128 -2.7814
 3526TIP3    H234774   4.651   3.616  20.231 -1.0010 -0.6262 -0.0725
 3527TIP3   OH234775   1.711   0.764  19.748 -0.5934 -0.2196 -0.0729
 3527TIP3    H134776   1.687   0.856  19.758  0.7481  0.2948 -1.1983
 3527TIP3    H234777   1.632   0.721  19.715 -1.9914 -0.0076  2.6987
 3528TIP3   OH234778   4.147   1.012  19.920 -0.1450 -0.6825  0.1003
 3528TIP3    H134779   4.061   1.023  19.879  0.2480  0.8623 -0.3712
 3528TIP3    H234780   4.209   1.015  19.848  0.4618  0.7517  0.6339
 3529TIP3   OH234781   6.476   3.254  20.482  0.0993 -0.6492 -0.3009
 3529TIP3    H134782   6.484   3.177  20.426  2.0634  0.3313 -1.4752
 3529TIP3    H234783   6.525   3.322  20.436 -2.3364  1.6139  0.1932
 3530TIP3   OH234784   5.955   1.123  18.639  0.2449 -0.1905  0.0114
 3530TIP3    H134785   5.924   1.147  18.552 -1.3128 -3.2477 -0.4143
 3530TIP3    H234786   6.016   1.051  18.624  1.4542  0.4863  1.3833
 3531TIP3   OH234787   3.842   1.701  20.283  0.1284 -0.2107 -0.0695
 3531TIP3    H134788   3.917   1.653  20.249 -1.3989 -1.5598 -1.7454
 3531TIP3    H234789   3.877   1.751  20.357  2.5147 -1.2281 -0.4141
 3532TIP3   OH234790   0.904   0.030  19.202  0.1157  0.4495  0.6636
 3532TIP3    H134791   0.937   0.024  19.112  0.6951  0.0840  0.8940
 3532TIP3    H234792   0.854   0.112  19.204  1.3246  1.2076  0.4124
 3533TIP3   OH234793   2.891   2.640  20.592 -0.0257 -0.1081 -0.6975
 3533TIP3    H134794   2.902   2.563  20.647  1.5223 -0.8618 -1.9965
 3533TIP3    H234795   2.962   2.635  20.528 -0.2947  2.0287 -1.2567
 3534TIP3   OH234796   1.479   6.075  17.434 -0.2186  0.4021 -0.4461
 3534TIP3    H134797   1.473   6.134  17.359  0.2730  1.7150  0.5005
 3534TIP3    H234798   1.526   5.998  17.401 -0.2560  0.8378 -1.5415
 3535TIP3   OH234799   2.533   1.164  18.327  0.3718  0.0669 -0.0457
 3535TIP3    H134800   2.587   1.119  18.263 -0.4583  0.9603 -1.4242
 3535TIP3    H234801   2.562   1.255  18.323  0.6882  0.0470  1.2807
 3536TIP3   OH234802   1.382   0.482  17.253 -0.3568 -0.1683  0.1932
 3536TIP3    H134803   1.465   0.528  17.236 -0.7933  0.6710  0.2447
 3536TIP3    H234804   1.316   0.538  17.212 -1.0746  0.0378  1.5839
 3537TIP3   OH234805   5.472   5.002  18.729  0.3836  0.0511  0.6041
 3537TIP3    H134806   5.388   4.966  18.702  0.8076  0.3899 -1.3393
 3537TIP3    H234807   5.520   4.927  18.765  0.2203 -0.7552 -0.7988
 3538TIP3   OH234808   2.208   3.139  18.562  0.2028  0.3084 -0.7718
 3538TIP3    H134809   2.201   3.199  18.488 -1.4054  1.1553  0.0152
 3538TIP3    H234810   2.129   3.085  18.558  0.7196 -0.5090 -0.3884
 3539TIP3   OH234811   5.504   1.898  18.948  0.1503  0.0500 -0.1052
 3539TIP3    H134812   5.574   1.872  19.007  0.2720  2.1630  0.7794
 3539TIP3    H234813   5.431   1.921  19.006 -0.0610  1.2438 -0.8109
 3540TIP3   OH234814   0.507   4.377  19.017  0.4854  0.4290  0.0905
 3540TIP3    H134815   0.508   4.358  19.111  0.2705  1.2370  0.2665
 3540TIP3    H234816   0.500   4.292  18.975  0.1316  0.0875  0.8248
 3541TIP3   OH234817   3.894   4.456  20.233  0.1651  0.5896  0.2938
 3541TIP3    H134818   3.816   4.508  20.250  0.4978  1.1432  0.1682
 3541TIP3    H234819   3.912   4.411  20.316  0.1509  1.0527  0.5485
 3542TIP3   OH234820   4.506   1.922  17.775  0.2596 -0.3142  0.3075
 3542TIP3    H134821   4.527   1.936  17.682 -1.3028  0.6200  0.0496
 3542TIP3    H234822   4.506   1.827  17.786 -0.4119 -0.4790 -0.8969
 3543TIP3   OH234823   4.629   6.209  20.913  0.0373 -0.4889  0.2282
 3543TIP3    H134824   4.562   6.168  20.968 -1.1052  1.5152  0.3993
 3543TIP3    H234825   4.603   6.187  20.823  0.5655 -1.7443  0.3515
 3544TIP3   OH234826   2.601   5.251  20.690  0.4971  0.6496  0.2472
 3544TIP3    H134827   2.579   5.257  20.597 -1.7308  0.8218  0.7445
 3544TIP3    H234828   2.583   5.160  20.713  0.7726  0.6779  0.5768
 3545TIP3   OH234829   5.864   2.645  19.442 -0.9052 -0.2349 -0.3853
 3545TIP3    H134830   5.806   2.708  19.484 -1.0418 -1.3820  1.2458
 3545TIP3    H234831   5.895   2.590  19.513  0.9759 -0.6288 -1.4407
 3546TIP3   OH234832   4.832   2.708  20.480  0.7634 -0.0031 -0.6388
 3546TIP3    H134833   4.745   2.667  20.477  0.9969 -0.9322  2.1723
 3546TIP3    H234834   4.877   2.674  20.402 -1.1326 -0.0164 -1.8042
 3547TIP3   OH234835   4.070   2.390  18.537 -0.3057  0.1776  0.4326
 3547TIP3    H134836   4.031   2.459  18.590  1.3399  1.2242  0.3314
 3547TIP3    H234837   4.092   2.321  18.600  0.3245  0.8130  0.9218
 3548TIP3   OH234838   4.439   2.125  18.511 -0.1172 -0.2895 -0.1917
 3548TIP3    H134839   4.516   2.117  18.567 -1.4393  1.4545  2.1038
 3548TIP3    H234840   4.376   2.063  18.548 -1.5927  2.0366  1.5542
 3549TIP3   OH234841   5.178   3.489  20.093  0.1128  0.1068  0.0768
 3549TIP3    H134842   5.158   3.417  20.034  0.9933  0.9580 -1.3128
 3549TIP3    H234843   5.256   3.530  20.056 -0.5684  1.9995  0.6169
 3550TIP3   OH234844   6.102   2.612  17.655  0.2539 -0.2217  0.3152
 3550TIP3    H134845   6.141   2.531  17.687  0.8453 -0.5675 -1.1643
 3550TIP3    H234846   6.014   2.588  17.627  0.5641 -0.4666 -0.4864
 3551TIP3   OH234847   0.709   6.342  19.484 -0.0121  0.3292 -0.1533
 3551TIP3    H134848   0.641   6.293  19.530  0.6568 -1.4503 -0.9879
 3551TIP3    H234849   0.661   6.413  19.440 -1.4619 -1.1951 -1.1556
 3552TIP3   OH234850   3.591   0.050  16.700  0.1320 -0.0481 -0.2813
 3552TIP3    H134851   3.506   0.054  16.657  0.0760  0.2499 -0.1404
 3552TIP3    H234852   3.644  -0.005  16.642 -0.4441 -1.0566  0.1260
 3553TIP3   OH234853   0.992   6.400  19.039  0.0823  0.2056 -0.2723
 3553TIP3    H134854   0.990   6.373  19.131  1.4217  0.1600 -0.2307
 3553TIP3    H234855   0.932   6.341  18.995  0.9456 -1.1204  0.2538
 3554TIP3   OH234856   2.653   5.041  17.644  0.8656 -0.0320 -0.1814
 3554TIP3    H134857   2.597   5.053  17.567 -0.6800 -0.5049  0.8261
 3554TIP3    H234858   2.593   5.013  17.713  2.4721 -1.2762  0.7672
 3555TIP3   OH234859   0.931   2.220  18.190  0.4017 -0.5617 -0.6486
 3555TIP3    H134860   1.000   2.188  18.248 -0.3923 -1.2221 -0.0229
 3555TIP3    H234861   0.902   2.302  18.230  0.4311 -0.5838 -0.5821
 3556TIP3   OH234862   4.826   2.165  17.820  0.1814 -0.6107 -0.1247
 3556TIP3    H134863   4.828   2.092  17.881 -1.5919  0.2560  1.0523
 3556TIP3    H234864   4.804   2.125  17.736  0.6086 -1.5793  0.2043
 3557TIP3   OH234865   2.129   5.976  17.980 -0.4565 -0.2308 -0.7040
 3557TIP3    H134866   2.113   5.912  18.049  0.7937 -1.0597 -1.1527
 3557TIP3    H234867   2.080   5.942  17.905 -1.3308  0.3576 -0.4143
 3558TIP3   OH234868   2.458   0.801  19.574 -0.4468 -0.1503  0.0823
 3558TIP3    H134869   2.528   0.772  19.515 -1.4576 -0.8537 -0.8223
 3558TIP3    H234870   2.398   0.726  19.578  0.6189 -1.0097  3.7737
 3559TIP3   OH234871   0.150   1.314  18.495 -0.2900  0.1048 -0.3455
 3559TIP3    H134872   0.067   1.356  18.476 -1.0704 -0.3818  1.6886
 3559TIP3    H234873   0.131   1.252  18.566  1.4406 -1.3892 -1.0903
 3560TIP3   OH234874   3.575   2.018  20.178  0.0153  0.0731  0.0268
 3560TIP3    H134875   3.661   2.024  20.219  0.3279  1.5181 -0.7805
 3560TIP3    H234876   3.567   2.098  20.126 -2.3935  0.6594  1.1650
 3561TIP3   OH234877   5.182   0.202  18.137 -0.4214 -0.0565  0.1713
 3561TIP3    H134878   5.263   0.246  18.109  0.0460 -1.3375 -0.6039
 3561TIP3    H234879   5.163   0.239  18.223  0.2553  1.2205 -0.2073
 3562TIP3   OH234880   6.481   6.344  18.163  0.2216  0.2325  0.3931
 3562TIP3    H134881   6.575   6.354  18.148  0.0622 -1.4230 -2.4618
 3562TIP3    H234882   6.470   6.251  18.184 -0.8432  0.0903 -0.6542
 3563TIP3   OH234883   1.504   4.366  19.763  0.5713  0.3857 -0.1039
 3563TIP3    H134884   1.450   4.445  19.758  0.1930  0.1106 -0.4423
 3563TIP3    H234885   1.512   4.349  19.857 -2.3011 -1.1502 -0.0360
 3564TIP3   OH234886   5.807   3.026  19.499 -0.2719 -0.5117 -0.0337
 3564TIP3    H134887   5.733   3.017  19.559 -0.0340  1.2209  0.5938
 3564TIP3    H234888   5.882   2.995  19.550  0.0475  1.6404  0.9198
 3565TIP3   OH234889   3.951   2.000  17.718 -0.6003 -0.1587 -0.2996
 3565TIP3    H134890   3.871   2.038  17.680  1.1995  2.6364 -1.6269
 3565TIP3    H234891   4.003   1.973  17.642 -0.4624 -2.4986  0.5613
 3566TIP3   OH234892   1.744   3.946  19.012  0.1657 -0.3888  0.6895
 3566TIP3    H134893   1.734   3.938  19.107 -3.2990 -1.4767  0.3724
 3566TIP3    H234894   1.708   4.032  18.991  1.8775  0.2884  0.4154
 3567TIP3   OH234895   2.400   1.395  20.689  0.4548 -0.3795  0.2037
 3567TIP3    H134896   2.401   1.490  20.700 -0.1327 -0.0108 -2.3923
 3567TIP3    H234897   2.479   1.376  20.638  1.2869 -1.5068  1.8049
 3568TIP3   OH234898   2.175   1.732  20.627  0.4518 -0.7043  0.1055
 3568TIP3    H134899   2.255   1.782  20.640  0.5213 -0.6432 -0.5479
 3568TIP3    H234900   2.194   1.647  20.667  0.2251 -0.1266  1.4846
 3569TIP3   OH234901   4.044   1.266  18.054 -0.5857  0.1536 -0.0674
 3569TIP3    H134902   4.116   1.213  18.090 -0.9602  1.1010  2.2589
 3569TIP3    H234903   4.009   1.213  17.983  1.1558 -1.2160  0.0150
 3570TIP3   OH234904   4.575   5.473  20.395  0.5250  0.1177 -0.0375
 3570TIP3    H134905   4.564   5.553  20.447 -0.3569  0.8497 -1.2909
 3570TIP3    H234906   4.635   5.499  20.325  0.2421 -0.3282 -0.4449
 3571TIP3   OH234907   6.297   1.985  20.675  0.0399 -0.2214 -0.2299
 3571TIP3    H134908   6.348   2.066  20.671  0.0410  0.3066  4.5731
 3571TIP3    H234909   6.344   1.930  20.737 -1.2163 -3.0328 -1.5914
 3572TIP3   OH234910   5.390   1.675  17.770  0.2371 -0.0010 -0.0291
 3572TIP3    H134911   5.424   1.594  17.809  0.9624 -0.2004 -1.0189
 3572TIP3    H234912   5.453   1.696  17.701 -0.7738  0.5699 -0.7976
 3573TIP3   OH234913   3.875   3.698  18.339 -0.1853  0.1985  0.4459
 3573TIP3    H134914   3.966   3.678  18.321  0.0167 -0.8799  2.3354
 3573TIP3    H234915   3.826   3.625  18.300 -0.2863  0.8367 -0.6705
 3574TIP3   OH234916   0.547   5.731  19.592 -0.7581 -0.6031  0.0523
 3574TIP3    H134917   0.453   5.734  19.575 -0.5954  1.4988 -0.8135
 3574TIP3    H234918   0.574   5.823  19.591  1.2579 -1.1437  0.5854
 3575TIP3   OH234919   2.239   6.293  19.584 -0.2309 -0.0512  0.1704
 3575TIP3    H134920   2.274   6.234  19.651 -1.4204 -1.0628 -0.0737
 3575TIP3    H234921   2.316   6.340  19.552  0.6099 -0.8026  1.0198
 3576TIP3   OH234922   5.968   4.480  18.320  0.4360  0.1502 -0.8375
 3576TIP3    H134923   5.924   4.420  18.259 -1.4757  1.0876 -0.4659
 3576TIP3    H234924   6.051   4.502  18.277 -0.1062 -0.5311 -2.3012
 3577TIP3   OH234925   0.573   1.595  18.879  0.2000  0.8935  0.0392
 3577TIP3    H134926   0.564   1.530  18.949  1.7220  0.5984 -0.0180
 3577TIP3    H234927   0.551   1.547  18.799 -0.6560  0.9971  0.1996
 3578TIP3   OH234928   4.600   3.600  18.179 -0.0241 -0.0129  0.1326
 3578TIP3    H134929   4.640   3.669  18.127  0.0896 -0.7361 -0.7688
 3578TIP3    H234930   4.603   3.632  18.269  0.0710  1.1212 -0.2634
 3579TIP3   OH234931   1.155   4.689  18.397 -0.0593  0.3671  0.2758
 3579TIP3    H134932   1.151   4.662  18.489  0.1525 -0.7276 -0.0218
 3579TIP3    H234933   1.064   4.682  18.367 -0.0703  0.3577  0.3113
 3580TIP3   OH234934   3.470   6.521  19.690  0.4031  0.1226 -0.5455
 3580TIP3    H134935   3.391   6.568  19.665 -0.1105 -0.8077 -0.7121
 3580TIP3    H234936   3.451   6.485  19.776  1.3969  1.5541  0.3192
 3581TIP3   OH234937   0.208   5.269  17.688 -0.2100 -0.5588 -0.0636
 3581TIP3    H134938   0.245   5.181  17.695  0.5510 -0.2148  0.4286
 3581TIP3    H234939   0.123   5.256  17.647 -0.2329 -1.5534  0.2663
 3582TIP3   OH234940   2.569   2.797  18.280 -0.2309  0.0676 -0.2703
 3582TIP3    H134941   2.511   2.872  18.292  0.6912  1.0250 -1.4671
 3582TIP3    H234942   2.539   2.733  18.344 -2.5264  0.5525 -0.7572
 3583TIP3   OH234943   3.482   1.821  18.216 -0.3751  0.2438 -0.4201
 3583TIP3    H134944   3.506   1.907  18.249 -0.7341  0.0812  0.2890
 3583TIP3    H234945   3.553   1.797  18.155  1.1025 -0.0814  1.3412
 3584TIP3   OH234946   1.125   4.213  18.081  0.7163  0.1673  0.1569
 3584TIP3    H134947   1.202   4.197  18.027 -0.0074  0.3435 -0.9497
 3584TIP3    H234948   1.156   4.199  18.171  1.9225 -0.1826 -0.2902
 3585TIP3   OH234949   2.669   6.353  17.343 -0.3554 -0.7374  0.2993
 3585TIP3    H134950   2.707   6.284  17.289 -0.1185 -0.2455 -0.1633
 3585TIP3    H234951   2.645   6.422  17.282  0.8346  0.2541  0.8978
 3586TIP3   OH234952   1.221   0.199  20.006 -0.7373 -0.2703 -0.2547
 3586TIP3    H134953   1.218   0.106  20.030 -1.6467 -0.5285 -1.2515
 3586TIP3    H234954   1.246   0.244  20.086 -1.3330 -1.2926  0.5379
 3587TIP3   OH234955   6.234   1.389  17.849 -0.1053 -0.3644  0.3015
 3587TIP3    H134956   6.321   1.365  17.880  0.1293 -2.2652 -1.6010
 3587TIP3    H234957   6.175   1.327  17.891 -0.2558 -0.4950 -0.0959
 3588TIP3   OH234958   4.236   3.444  20.393  0.1446  0.0007  0.4639
 3588TIP3    H134959   4.246   3.351  20.372 -1.5399 -0.0248 -0.4466
 3588TIP3    H234960   4.323   3.473  20.417  0.6838 -1.8513  0.9043
 3589TIP3   OH234961   1.932   0.984  18.995 -0.3036  0.0625 -0.3723
 3589TIP3    H134962   1.903   1.053  18.935 -1.3027  0.4731  0.5509
 3589TIP3    H234963   1.879   0.908  18.971 -1.7517  0.6186  0.8563
 3590TIP3   OH234964   2.101   0.005  18.343  0.3765 -0.3168 -0.2630
 3590TIP3    H134965   2.033   0.031  18.280  0.6755 -0.5222 -0.6714
 3590TIP3    H234966   2.102   0.076  18.407  0.1013 -0.0859 -0.5129
 3591TIP3   OH234967   2.777   6.469  17.592 -0.4802 -0.3179  0.4943
 3591TIP3    H134968   2.837   6.397  17.614 -0.0899  0.2702  1.4356
 3591TIP3    H234969   2.721   6.433  17.523 -0.2202 -1.4882  0.8626
 3592TIP3   OH234970   3.043   3.701  19.645  0.1600 -0.5691  0.2565
 3592TIP3    H134971   2.979   3.737  19.706  0.4920  1.7279 -0.6524
 3592TIP3    H234972   2.995   3.690  19.563  0.2285 -1.6454  0.3474
 3593TIP3   OH234973   0.221   2.665  20.455 -0.2152 -0.7164  0.2914
 3593TIP3    H134974   0.150   2.608  20.484 -0.5105  0.0425  1.0916
 3593TIP3    H234975   0.177   2.734  20.405  0.0915 -0.9145 -0.2605
 3594TIP3   OH234976   2.964   3.422  19.047  0.2301  0.3625 -0.1257
 3594TIP3    H134977   2.918   3.357  19.100  0.3681 -1.4566 -2.1219
 3594TIP3    H234978   3.056   3.395  19.051  0.5066  1.2882  0.1416
 3595TIP3   OH234979   1.196   3.165  18.199  0.2355 -1.2634  0.4872
 3595TIP3    H134980   1.242   3.085  18.174  1.0240 -0.9818  1.0038
 3595TIP3    H234981   1.211   3.173  18.293  2.3337  0.8063  0.0668
 3596TIP3   OH234982   0.189   2.095  17.971 -0.1730 -0.0039  0.0311
 3596TIP3    H134983   0.213   2.174  18.019 -1.9237  1.0314 -0.7021
 3596TIP3    H234984   0.267   2.075  17.918 -0.0353  1.8306 -0.5196
 3597TIP3   OH234985   3.132   1.930  20.452  0.5915  1.0171  0.4276
 3597TIP3    H134986   3.175   1.919  20.537  0.7162 -0.1599  0.2244
 3597TIP3    H234987   3.202   1.924  20.388  0.2577 -0.1109  0.1425
 3598TIP3   OH234988   0.490   0.622  19.704  0.1776  0.4380 -0.7616
 3598TIP3    H134989   0.443   0.686  19.651  0.8990  1.7884  0.1475
 3598TIP3    H234990   0.506   0.668  19.787  0.0531 -1.2078  0.2028
 3599TIP3   OH234991   3.810   1.579  19.481 -0.3254  0.3598 -0.7112
 3599TIP3    H134992   3.792   1.523  19.556 -1.1638  2.6040  0.8621
 3599TIP3    H234993   3.897   1.614  19.497  0.1328 -0.3126 -1.6126
 3600TIP3   OH234994   0.552   1.219  18.467  0.0106 -0.7012  0.1701
 3600TIP3    H134995   0.618   1.161  18.429 -0.1151 -0.9569  0.3401
 3600TIP3    H234996   0.469   1.188  18.431 -0.0533 -0.6033  0.2333
 3601TIP3   OH234997   1.088   3.012  20.323  0.6297 -0.1005  0.2120
 3601TIP3    H134998   1.170   3.047  20.359  0.5017 -0.5073  0.9325
 3601TIP3    H234999   1.027   3.015  20.397  0.1354 -0.2554 -0.1887
 3602TIP3   OH235000   0.103   6.147  19.647 -0.2512  0.0902 -0.2867
 3602TIP3    H135001   0.097   6.074  19.586 -1.2598 -1.1362  1.1878
 3602TIP3    H235002   0.169   6.120  19.711 -0.6243  0.4749  0.2726
 3603TIP3   OH235003   3.168   6.155  17.833 -1.0081 -0.1555 -0.7300
 3603TIP3    H135004   3.090   6.184  17.882  0.4849 -1.5391  2.8336
 3603TIP3    H235005   3.230   6.227  17.844 -0.3263 -0.8772  0.4286
 3604TIP3   OH235006   3.037   0.315  20.444 -0.0951 -0.3635  0.5875
 3604TIP3    H135007   2.952   0.347  20.474 -1.3533 -1.3561 -1.6283
 3604TIP3    H235008   3.090   0.310  20.523 -2.0324  0.4604  2.0290
 3605TIP3   OH235009   1.723   1.841  19.220  0.1359  0.5190  0.1960
 3605TIP3    H135010   1.674   1.879  19.293 -0.1298 -2.6974  1.8734
 3605TIP3    H235011   1.660   1.785  19.175  0.9776  0.4542 -0.9414
 3606TIP3   OH235012   2.627   5.305  18.810  0.0057 -0.4088 -0.3957
 3606TIP3    H135013   2.563   5.351  18.756 -0.7708 -0.6487  0.3021
 3606TIP3    H235014   2.588   5.301  18.897  1.7785  1.1013  0.5489
 3607TIP3   OH235015   2.327   3.009  20.016  0.5475 -0.2677  0.3051
 3607TIP3    H135016   2.403   3.047  20.060  0.0375  0.2604  0.7421
 3607TIP3    H235017   2.357   2.992  19.927  1.1355  0.0744  0.4325
 3608TIP3   OH235018   5.642   5.800  18.371 -0.3257  0.0540 -0.0722
 3608TIP3    H135019   5.726   5.775  18.410  2.1417  5.1279 -1.1817
 3608TIP3    H235020   5.585   5.818  18.446  1.9788  2.9062  1.2065
 3609TIP3   OH235021   2.218   6.194  18.102 -0.1991 -0.1203 -0.4978
 3609TIP3    H135022   2.234   6.263  18.037 -0.7820 -0.4392 -0.9863
 3609TIP3    H235023   2.189   6.119  18.050  1.0988 -0.9732 -0.0497
 3610TIP3   OH235024   0.325   4.727  20.299  0.0074 -0.2409  0.5869
 3610TIP3    H135025   0.334   4.752  20.207  0.7531  0.8414  0.9390
 3610TIP3    H235026   0.355   4.636  20.303 -1.2698 -0.7331 -0.4545
 3611TIP3   OH235027   6.473   5.375  18.727 -0.1829  0.3774  0.9939
 3611TIP3    H135028   6.458   5.435  18.800 -1.1581 -0.2292  1.3115
 3611TIP3    H235029   6.405   5.309  18.737 -0.9392  0.8080 -1.0371
 3612TIP3   OH235030   3.087   6.333  20.866 -0.0765  0.5018  0.2925
 3612TIP3    H135031   3.178   6.353  20.887  0.1094 -0.9831  0.9884
 3612TIP3    H235032   3.072   6.246  20.901 -1.1082 -0.2379 -1.8048
 3613TIP3   OH235033   4.443   5.491  18.194 -0.4835 -0.1174  0.7815
 3613TIP3    H135034   4.503   5.468  18.265 -0.9652  0.6056  1.4440
 3613TIP3    H235035   4.435   5.586  18.199  2.3425  0.4772 -2.5827
 3614TIP3   OH235036   0.863   5.997  18.557  0.0206  0.3893  0.1651
 3614TIP3    H135037   0.833   6.086  18.540 -0.5238  0.4596  1.3707
 3614TIP3    H235038   0.805   5.964  18.626  2.1079  0.2261  1.9806
 3615TIP3   OH235039   4.562   2.146  20.156 -0.2187 -0.6987 -0.1792
 3615TIP3    H135040   4.620   2.218  20.182  2.3549 -2.5012 -0.5157
 3615TIP3    H235041   4.584   2.075  20.216 -3.4681 -0.9732  0.8652
 3616TIP3   OH235042   0.545   3.231  19.505 -0.6337  0.3508 -0.4735
 3616TIP3    H135043   0.614   3.243  19.571 -1.6497  1.3934  0.4525
 3616TIP3    H235044   0.586   3.178  19.437 -0.4362 -3.7496  2.4327
 3617TIP3   OH235045   0.106   2.600  18.360  0.8780  0.0127  0.2067
 3617TIP3    H135046   0.066   2.582  18.275  0.7703  0.7185  0.1049
 3617TIP3    H235047   0.137   2.514  18.391  0.4292 -0.3327 -0.2915
 3618TIP3   OH235048   5.757   5.173  18.714  0.4978  0.2116 -0.7536
 3618TIP3    H135049   5.670   5.210  18.702  0.4697 -0.1884 -1.9131
 3618TIP3    H235050   5.743   5.078  18.710  0.7081  0.0489  1.1781
 3619TIP3   OH235051   6.531   5.489  18.162  0.2414 -0.0379 -0.1374
 3619TIP3    H135052   6.462   5.467  18.099  0.5728 -0.8248 -0.2409
 3619TIP3    H235053   6.604   5.431  18.138  0.8897  0.6812  0.0570
 3620TIP3   OH235054   5.738   1.252  20.216 -0.2739  0.0732 -0.4384
 3620TIP3    H135055   5.766   1.336  20.179  3.5237 -0.4969  0.7816
 3620TIP3    H235056   5.715   1.199  20.139  0.1179  1.2763 -1.4150
 3621TIP3   OH235057   3.033   4.777  18.546 -0.0878  0.0488 -0.0015
 3621TIP3    H135058   2.999   4.849  18.493 -2.3272 -0.2291  0.9031
 3621TIP3    H235059   2.992   4.699  18.509  0.3741 -0.4484  0.5195
 3622TIP3   OH235060   4.610   5.223  20.572 -0.0779  0.2683 -0.3833
 3622TIP3    H135061   4.654   5.162  20.513  1.7654 -0.6694  1.8039
 3622TIP3    H235062   4.530   5.177  20.599 -2.0424  1.5139 -3.4899
 3623TIP3   OH235063   5.515   3.095  20.832 -0.4284  0.4502 -0.0516
 3623TIP3    H135064   5.541   3.162  20.897 -0.0912  0.3053 -0.0326
 3623TIP3    H235065   5.594   3.083  20.779 -0.4091 -0.1108  0.1010
 3624TIP3   OH235066   5.430   6.201  19.438 -0.3733  0.0384  0.8841
 3624TIP3    H135067   5.465   6.253  19.510 -2.0918 -0.4941  2.1896
 3624TIP3    H235068   5.350   6.162  19.474 -1.0641 -0.5956 -1.1993
 3625TIP3   OH235069   2.890   2.063  20.445 -0.4275 -0.3259  0.1828
 3625TIP3    H135070   2.975   2.019  20.450 -0.2581  0.0988  1.2995
 3625TIP3    H235071   2.834   2.001  20.398  0.2830 -0.9626  0.1628
 3626TIP3   OH235072   1.729   0.346  19.688 -0.2343  0.2667  0.3056
 3626TIP3    H135073   1.704   0.254  19.688 -0.3879  0.2904 -1.4467
 3626TIP3    H235074   1.657   0.391  19.733 -2.0166 -0.0243 -2.1170
 3627TIP3   OH235075   0.073   3.138  19.697 -0.0674 -0.1722 -0.8083
 3627TIP3    H135076   0.134   3.161  19.626  2.3342 -2.9839  0.1081
 3627TIP3    H235077   0.106   3.185  19.773 -0.8970  0.5838 -0.8959
 3628TIP3   OH235078   0.749   5.636  19.794 -0.1242  0.2401  0.1585
 3628TIP3    H135079   0.805   5.575  19.745  2.4083  2.5752 -0.0772
 3628TIP3    H235080   0.685   5.666  19.729  0.3815 -0.0464 -0.4928
 3629TIP3   OH235081   2.743   2.242  19.861  0.0888 -0.6671 -0.0104
 3629TIP3    H135082   2.722   2.267  19.771  1.4869  1.4751  0.1873
 3629TIP3    H235083   2.663   2.259  19.910  0.1586  0.9332 -0.3953
 3630TIP3   OH235084   5.293   5.025  20.540  0.0709  0.0792  0.0054
 3630TIP3    H135085   5.239   5.094  20.578  0.8820  0.8409 -0.1927
 3630TIP3    H235086   5.364   5.071  20.496  1.6705 -0.9226  1.4195
 3631TIP3   OH235087   5.234   0.754  19.896 -0.0406  0.2474  0.0057
 3631TIP3    H135088   5.239   0.767  19.990 -1.2039 -0.1499  0.1358
 3631TIP3    H235089   5.311   0.798  19.861  0.7983 -0.2393  1.2010
 3632TIP3   OH235090   4.045   0.055  18.384 -0.7326  0.0919 -0.4927
 3632TIP3    H135091   3.964   0.005  18.394 -0.3635 -0.3750  0.2322
 3632TIP3    H235092   4.114  -0.008  18.404 -0.0220 -0.2306 -3.4785
 3633TIP3   OH235093   4.653   0.802  18.490  0.3679 -0.0312  0.4095
 3633TIP3    H135094   4.566   0.841  18.493  0.3846  0.0921 -0.3809
 3633TIP3    H235095   4.710   0.865  18.534  0.0303 -0.1913  1.0778
 3634TIP3   OH235096   6.140   3.066  19.158  0.4119 -0.3091 -0.0980
 3634TIP3    H135097   6.140   3.026  19.071  1.7305 -1.0223  0.1992
 3634TIP3    H235098   6.056   3.041  19.196 -0.2419  0.1375 -1.2091
 3635TIP3   OH235099   1.271   2.345  19.022 -0.0818 -0.2326  0.3168
 3635TIP3    H135100   1.185   2.318  18.991 -0.5054  1.5004 -0.1732
 3635TIP3    H235101   1.261   2.356  19.116 -0.1062 -1.0106  0.4074
 3636TIP3   OH235102   2.910   1.408  18.789 -0.3326  1.1414 -0.1343
 3636TIP3    H135103   2.833   1.368  18.749 -0.2822 -0.2176  1.0488
 3636TIP3    H235104   2.907   1.380  18.880  2.4661 -0.4354 -0.3998
 3637TIP3   OH235105   6.501   5.743  20.272 -0.0800 -0.4245 -0.5304
 3637TIP3    H135106   6.517   5.782  20.186 -0.3776 -1.0292 -0.8746
 3637TIP3    H235107   6.429   5.794  20.308  0.0583 -0.1543 -0.6289
 3638TIP3   OH235108   6.697   1.104  20.094  0.2441 -0.3721  0.4367
 3638TIP3    H135109   6.610   1.065  20.102  0.0685 -0.1452 -0.3135
 3638TIP3    H235110   6.680   1.195  20.070  0.6925 -0.3409  0.2371
 3639TIP3   OH235111   0.348   5.069  20.170  0.2435  1.1120 -0.2294
 3639TIP3    H135112   0.387   4.985  20.145  0.5589  1.3043 -0.3890
 3639TIP3    H235113   0.365   5.126  20.095 -3.2046  0.3330 -1.7772
 3640TIP3   OH235114   6.525   3.862  17.742 -0.2744 -0.0103 -0.0503
 3640TIP3    H135115   6.588   3.864  17.814  2.3368  1.1176 -2.1736
 3640TIP3    H235116   6.538   3.776  17.702  0.3955  0.4231 -0.8108
 3641TIP3   OH235117   2.663   6.234  19.689  0.8079 -0.2920  0.0742
 3641TIP3    H135118   2.670   6.246  19.784  0.1826  0.0407  0.0824
 3641TIP3    H235119   2.657   6.323  19.654  0.7430 -0.4242 -0.2528
 3642TIP3   OH235120   0.021   5.242  20.597  0.9807 -0.3813  0.0379
 3642TIP3    H135121   0.051   5.160  20.559 -0.5866 -0.2901 -1.5585
 3642TIP3    H235122   0.083   5.308  20.567  1.0575 -0.6762 -0.4511
 3643TIP3   OH235123   5.206   1.723  18.259  0.5644  0.3727 -0.5155
 3643TIP3    H135124   5.172   1.643  18.299 -0.4886  0.7504 -0.6137
 3643TIP3    H235125   5.301   1.716  18.267  0.5741 -1.4658 -1.6353
 3644TIP3   OH235126   4.499   2.166  20.495  0.3294  0.5291  0.0087
 3644TIP3    H135127   4.547   2.136  20.417  1.0429  1.6378  0.0004
 3644TIP3    H235128   4.567   2.202  20.552 -0.1302 -0.6831  1.3747
 3645TIP3   OH235129   4.950   3.601  18.787  0.2235  0.2730 -0.3484
 3645TIP3    H135130   4.937   3.696  18.778 -0.7942  0.4957  2.4094
 3645TIP3    H235131   5.036   3.585  18.748  1.5435  2.7864  1.2484
 3646TIP3   OH235132   6.329   4.057  19.246 -0.0161  0.0726 -0.0890
 3646TIP3    H135133   6.402   3.996  19.259 -1.9447 -2.8869 -2.1440
 3646TIP3    H235134   6.335   4.083  19.154 -0.3432  1.5402  0.2774
 3647TIP3   OH235135   0.387   3.081  19.758 -0.7932 -0.3133  0.6226
 3647TIP3    H135136   0.412   3.156  19.704 -0.5673  0.5158  1.8368
 3647TIP3    H235137   0.318   3.038  19.708 -1.7873  1.4012  0.4533
 3648TIP3   OH235138   5.402   4.822  18.387  0.0505  0.2806  0.3546
 3648TIP3    H135139   5.474   4.760  18.398 -0.2512 -0.1004  0.1914
 3648TIP3    H235140   5.344   4.806  18.461 -1.5417 -1.6972 -1.2371
 3649TIP3   OH235141   2.679   5.816  17.167  0.1803  0.6470 -0.5517
 3649TIP3    H135142   2.670   5.767  17.249  1.2315  3.1633  1.1886
 3649TIP3    H235143   2.590   5.823  17.133 -0.2694 -0.4487  0.3331
 3650TIP3   OH235144   4.203   6.119  19.560  0.2759 -0.1234  0.2442
 3650TIP3    H135145   4.215   6.028  19.586 -1.3005 -0.2742  0.5537
 3650TIP3    H235146   4.194   6.116  19.465  1.1268 -0.1688  0.1593
 3651TIP3   OH235147   4.454   4.684  20.134 -0.1798 -0.3911  0.1351
 3651TIP3    H135148   4.398   4.620  20.179  2.9890 -2.4832  1.4708
 3651TIP3    H235149   4.512   4.631  20.080  1.2380  1.5600 -0.3491
 3652TIP3   OH235150   4.186   2.582  17.930  0.1671  0.3351  1.0908
 3652TIP3    H135151   4.233   2.663  17.911 -0.9576  1.0999  1.5223
 3652TIP3    H235152   4.198   2.568  18.024  1.2973 -0.6175  0.8259
 3653TIP3   OH235153   4.095   3.686  20.032 -0.6499 -0.3937 -0.1829
 3653TIP3    H135154   4.185   3.715  20.016 -1.1404  1.6074  0.4555
 3653TIP3    H235155   4.101   3.590  20.033  2.1181 -0.3853  3.1470
 3654TIP3   OH235156   0.730   1.355  20.109  0.0543 -0.2501  0.0811
 3654TIP3    H135157   0.725   1.373  20.015 -0.3919  1.7601  0.4433
 3654TIP3    H235158   0.644   1.318  20.131 -0.1423  0.0647 -0.1521
 3655TIP3   OH235159   2.491   0.047  19.433  0.4721 -0.0207  0.4822
 3655TIP3    H135160   2.434   0.116  19.466 -1.3156 -1.2575  0.1605
 3655TIP3    H235161   2.471  -0.029  19.488  1.4173 -0.6460 -0.0016
 3656TIP3   OH235162   1.304   0.628  20.358 -0.6967  0.1101 -0.3509
 3656TIP3    H135163   1.362   0.703  20.376 -0.1115 -0.4468  0.1506
 3656TIP3    H235164   1.222   0.668  20.330 -0.3674  0.9438 -0.1811
 3657TIP3   OH235165   4.727   3.269  19.338  0.3203 -0.0010 -0.2826
 3657TIP3    H135166   4.633   3.282  19.329  0.1157 -0.4502  1.0368
 3657TIP3    H235167   4.759   3.348  19.381  1.0409  1.4128 -3.1225
 3658TIP3   OH235168   0.342   1.774  20.712 -0.5512  0.0626 -0.3526
 3658TIP3    H135169   0.287   1.748  20.786 -0.6166  0.9816 -0.0618
 3658TIP3    H235170   0.333   1.702  20.649 -1.9368  0.0951 -0.2325
 3659TIP3   OH235171   3.915   0.778  20.015 -0.3866 -0.0786 -0.0077
 3659TIP3    H135172   3.864   0.726  20.078 -0.0270  1.6317  1.8245
 3659TIP3    H235173   3.879   0.867  20.024  1.2386  0.6593 -0.5007
 3660TIP3   OH235174   0.166   4.894  17.482  0.3022 -0.3155 -0.4950
 3660TIP3    H135175   0.219   4.966  17.519  0.4193 -0.7731  0.2504
 3660TIP3    H235176   0.172   4.824  17.547 -0.2111 -0.8278 -0.9874
 3661TIP3   OH235177   3.467   1.105  20.699 -0.1520 -0.5053 -0.2453
 3661TIP3    H135178   3.430   1.043  20.636  0.1192 -0.3672 -0.5456
 3661TIP3    H235179   3.398   1.118  20.764 -0.0490 -1.4822  0.0767
 3662TIP3   OH235180   1.781   1.811  17.553  0.1511 -0.0425  0.4990
 3662TIP3    H135181   1.774   1.777  17.464 -2.0922  1.1330  0.1315
 3662TIP3    H235182   1.874   1.825  17.567  0.5523 -0.2211 -1.6899
 3663TIP3   OH235183   1.012   0.682  20.833  0.3870 -0.2644 -0.5263
 3663TIP3    H135184   1.082   0.680  20.768 -0.3529 -0.6312 -1.3349
 3663TIP3    H235185   0.991   0.775  20.843  1.0041 -0.1514 -0.2574
 3664TIP3   OH235186   1.380   5.792  18.881 -0.9782 -0.3512 -0.1039
 3664TIP3    H135187   1.433   5.839  18.946 -2.0794 -0.9790  1.3170
 3664TIP3    H235188   1.340   5.862  18.828  2.5590  0.1322 -2.4553
 3665TIP3   OH235189   0.792   4.443  19.553  0.0398 -0.0149 -0.1641
 3665TIP3    H135190   0.751   4.356  19.560  0.5152 -0.1001  2.8785
 3665TIP3    H235191   0.886   4.426  19.554  0.1384  0.5182 -0.1125
 3666TIP3   OH235192   2.326   3.759  19.087  0.0538 -0.2435 -0.1827
 3666TIP3    H135193   2.318   3.718  19.001  0.0891  1.5302 -1.0680
 3666TIP3    H235194   2.327   3.853  19.070  2.2852  0.1544  1.5550
 3667TIP3   OH235195   4.693   0.748  17.921 -0.3509 -0.1200 -0.3978
 3667TIP3    H135196   4.767   0.687  17.910 -0.0806 -0.5620  2.7634
 3667TIP3    H235197   4.629   0.698  17.971 -0.4516  1.8771  1.6335
 3668TIP3   OH235198   5.199   4.572  18.883  0.0073 -0.0499  0.3258
 3668TIP3    H135199   5.283   4.581  18.838 -1.3655 -0.3597 -2.4809
 3668TIP3    H235200   5.135   4.613  18.825 -1.7539  0.9129  2.7410
 3669TIP3   OH235201   1.644   6.705  19.416 -0.2750  0.4351  1.0904
 3669TIP3    H135202   1.721   6.685  19.363 -1.4990 -1.1983 -0.1606
 3669TIP3    H235203   1.650   6.799  19.432  1.0204  0.6808 -0.5493
 3670TIP3   OH235204   6.517   0.811  18.477  0.1656 -0.0860  0.7646
 3670TIP3    H135205   6.442   0.764  18.440 -0.4529  0.3532  1.4333
 3670TIP3    H235206   6.478   0.874  18.538  0.9964  1.0296  0.1796
 3671TIP3   OH235207   3.276   6.516  20.767  0.5048  0.1365 -0.1156
 3671TIP3    H135208   3.185   6.546  20.774  0.9597  2.4840 -2.4182
 3671TIP3    H235209   3.275   6.454  20.694  0.9300  1.5150 -1.3599
 3672TIP3   OH235210   4.530   3.466  20.480  0.4933 -0.1059 -0.3525
 3672TIP3    H135211   4.512   3.554  20.514 -2.4722 -0.4805 -0.6857
 3672TIP3    H235212   4.562   3.417  20.556 -0.1961  0.6276  0.4245
 3673TIP3   OH235213   0.551   5.241  17.983 -0.0376  0.4218  0.1315
 3673TIP3    H135214   0.540   5.210  17.893 -0.8666 -1.3474  0.8030
 3673TIP3    H235215   0.614   5.180  18.021 -1.1418 -0.0330  1.2859
 3674TIP3   OH235216   4.220   0.905  20.362  0.1913  0.5634  0.0598
 3674TIP3    H135217   4.235   0.945  20.448  0.0371  1.1408 -0.1772
 3674TIP3    H235218   4.178   0.974  20.311  1.0323  0.5050 -0.7332
 3675TIP3   OH235219   0.702   0.849  19.876  0.1454  0.2501  1.0017
 3675TIP3    H135220   0.781   0.837  19.927 -0.0921 -0.1821  1.2827
 3675TIP3    H235221   0.732   0.875  19.789  0.5039  2.5887  1.7576
 3676TIP3   OH235222   4.684   3.129  17.819 -0.3824  0.2192 -0.2178
 3676TIP3    H135223   4.689   3.160  17.729  1.3450  1.2158  0.1613
 3676TIP3    H235224   4.644   3.042  17.813 -0.9312  0.5521 -1.8441
 3677TIP3   OH235225   0.780   3.791  19.934 -0.6384 -0.2114  0.1464
 3677TIP3    H135226   0.874   3.792  19.919 -0.4384  1.5545  1.2070
 3677TIP3    H235227   0.770   3.747  20.018 -0.7677 -0.4020  0.0320
 3678TIP3   OH235228   3.587   3.424  18.807  0.4070 -0.0315 -0.1464
 3678TIP3    H135229   3.514   3.467  18.852 -0.2001 -1.2508  0.0661
 3678TIP3    H235230   3.658   3.425  18.872  0.8982  1.8955 -0.6338
 3679TIP3   OH235231   2.067   2.169  20.771 -0.1077 -0.0075  0.2777
 3679TIP3    H135232   2.014   2.247  20.790  1.1142  0.8150  0.4407
 3679TIP3    H235233   2.071   2.122  20.854  1.8448  1.4816  1.1167
 3680TIP3   OH235234   3.039   3.701  17.940 -0.0159 -0.3683  0.0022
 3680TIP3    H135235   2.979   3.649  17.887  1.6141  0.0177 -2.3657
 3680TIP3    H235236   3.008   3.791  17.931 -0.0390 -0.3608  0.1488
 3681TIP3   OH235237   4.086   0.674  19.673 -0.1877  0.0469  0.1499
 3681TIP3    H135238   4.092   0.630  19.758 -1.2728  0.6363  0.5437
 3681TIP3    H235239   4.156   0.740  19.675  0.8991 -1.0637 -0.1110
 3682TIP3   OH235240   3.393   0.971  19.705 -0.7795  0.2895  0.8092
 3682TIP3    H135241   3.389   1.040  19.772 -0.7477  2.2666 -1.1239
 3682TIP3    H235242   3.453   1.005  19.639 -0.6722 -1.6718 -0.1658
 3683TIP3   OH235243   4.897   5.119  20.453  0.4125 -0.1245 -0.0426
 3683TIP3    H135244   4.907   5.197  20.508  0.3859 -0.1721  0.0293
 3683TIP3    H235245   4.986   5.087  20.441  0.5758  0.7242 -1.2469
 3684TIP3   OH235246   3.736   5.303  17.508  0.1236  0.1478  0.3830
 3684TIP3    H135247   3.707   5.310  17.599  2.0978  0.3504  1.0258
 3684TIP3    H235248   3.777   5.387  17.489 -0.7678  0.3240 -0.9099
 3685TIP3   OH235249   2.948   0.011  19.056 -0.3736  0.5032  0.0191
 3685TIP3    H135250   3.026   0.043  19.101  1.1194  1.0534 -2.7162
 3685TIP3    H235251   2.924   0.083  18.997 -0.9462 -0.8905 -1.5221
 3686TIP3   OH235252   4.152   3.898  20.363 -0.1860 -0.3626 -0.1795
 3686TIP3    H135253   4.088   3.876  20.296  0.5407 -0.6982 -0.7773
 3686TIP3    H235254   4.183   3.985  20.340 -0.2992 -0.2730  0.0060
 3687TIP3   OH235255   3.948   2.528  19.958 -0.5181  0.3155 -0.6324
 3687TIP3    H135256   3.975   2.620  19.960  0.7865 -0.0274  1.5560
 3687TIP3    H235257   4.021   2.482  19.917 -1.1981  0.2439 -1.7869
 3688TIP3   OH235258   1.361   1.416  20.500 -0.2969 -0.4576  0.0330
 3688TIP3    H135259   1.413   1.496  20.501  1.0583 -1.2965  0.8029
 3688TIP3    H235260   1.274   1.442  20.530  0.2617  0.6423  0.7456
 3689TIP3   OH235261   1.944   6.405  18.078 -0.4388  0.4746  0.3252
 3689TIP3    H135262   1.934   6.320  18.120 -0.9386 -0.2910 -1.2758
 3689TIP3    H235263   2.038   6.423  18.081 -0.3258 -0.1457  0.6312
 3690TIP3   OH235264   2.580   0.783  19.835  0.2332 -0.7840  0.0071
 3690TIP3    H135265   2.607   0.848  19.770  0.1655 -0.0959  0.6542
 3690TIP3    H235266   2.534   0.717  19.784  0.0552 -0.1873 -0.6291
 3691TIP3   OH235267   1.446   3.594  18.688 -0.0727 -0.0352  0.6366
 3691TIP3    H135268   1.521   3.612  18.745  0.5412  0.8624 -0.4304
 3691TIP3    H235269   1.391   3.534  18.740  2.8234 -3.3005  0.3452
 3692TIP3   OH235270   6.006   5.173  18.507  0.0475 -0.1372  0.0280
 3692TIP3    H135271   5.924   5.125  18.500 -0.9035  1.4085  0.0694
 3692TIP3    H235272   6.023   5.179  18.601 -1.0350  1.5116  0.1420
 3693TIP3   OH235273   3.438   3.265  18.125 -0.5826  0.2015 -0.3515
 3693TIP3    H135274   3.404   3.191  18.076 -0.6684  1.9014 -3.0560
 3693TIP3    H235275   3.528   3.275  18.094 -0.7146  1.4799 -0.3812
 3694TIP3   OH235276   0.952   5.962  20.370  0.6855  0.7235  0.0303
 3694TIP3    H135277   0.963   5.888  20.429  2.5910  1.0835  0.1872
 3694TIP3    H235278   0.881   6.013  20.409 -0.4568 -0.8324  0.0748
 3695TIP3   OH235279   3.958   4.441  19.485 -0.3045  0.1553 -0.0354
 3695TIP3    H135280   3.947   4.348  19.504 -1.2396 -0.2170 -2.1199
 3695TIP3    H235281   3.883   4.463  19.431  0.0232  2.0899  0.2535
 3696TIP3   OH235282   2.046   2.022  20.989  0.4220  0.1902 -0.0666
 3696TIP3    H135283   1.993   2.072  21.052  0.7795  0.0131  0.3748
 3696TIP3    H235284   2.099   1.964  21.043 -0.7340 -1.4356 -0.6048
 3697TIP3   OH235285   3.907   4.484  20.661 -0.3597  0.3795 -0.1896
 3697TIP3    H135286   3.828   4.532  20.684 -0.3890 -0.0366  0.6131
 3697TIP3    H235287   3.969   4.551  20.633 -0.7247  0.7874 -0.0239
 3698TIP3   OH235288   1.905   1.431  20.465 -0.4467  0.2346 -0.4533
 3698TIP3    H135289   1.991   1.407  20.500 -0.6254 -1.4508 -1.0601
 3698TIP3    H235290   1.860   1.474  20.538  0.4287 -0.0870  0.2898
 3699TIP3   OH235291   6.118   4.809  19.283  0.0981  0.2329  0.4235
 3699TIP3    H135292   6.114   4.732  19.340  1.7516 -0.7391 -0.6743
 3699TIP3    H235293   6.032   4.850  19.291 -0.7870 -1.6692  1.1239
 3700TIP3   OH235294   0.135   2.318  18.464  0.0699  0.8717  0.1221
 3700TIP3    H135295   0.229   2.329  18.454  0.3770 -1.5291 -0.3196
 3700TIP3    H235296   0.111   2.257  18.394 -1.6578  0.7632  0.7739
 3701TIP3   OH235297   3.344   0.588  17.450  0.0674 -0.1020  0.1126
 3701TIP3    H135298   3.345   0.565  17.357  2.4545 -1.1075  0.3219
 3701TIP3    H235299   3.420   0.644  17.461 -1.4829  1.9353  1.0862
 3702TIP3   OH235300   5.384   0.453  18.138 -0.2615  0.1437 -0.0838
 3702TIP3    H135301   5.476   0.461  18.112  0.0678  0.3135  1.1066
 3702TIP3    H235302   5.387   0.439  18.232 -1.5016  1.0282  0.0990
 3703TIP3   OH235303   6.138   3.391  17.471  0.5398 -0.5382 -0.3239
 3703TIP3    H135304   6.173   3.477  17.494  0.7925 -0.2424 -1.7015
 3703TIP3    H235305   6.190   3.329  17.522  0.5230  0.1098  0.4896
 3704TIP3   OH235306   0.162   4.712  18.509  0.1043  0.2459 -0.1509
 3704TIP3    H135307   0.198   4.795  18.539  2.4285 -0.5661 -0.4837
 3704TIP3    H235308   0.183   4.709  18.416  1.1317 -1.1926  0.0898
 3705TIP3   OH235309   0.305   0.619  19.047 -0.8358  0.1953 -0.3629
 3705TIP3    H135310   0.215   0.653  19.044 -0.7741  0.3060 -1.2002
 3705TIP3    H235311   0.309   0.556  18.974 -0.3719 -0.1564 -0.0387
 3706TIP3   OH235312   5.852   0.782  18.998  0.1375 -0.5876  0.0947
 3706TIP3    H135313   5.834   0.727  18.922  0.7843  0.8944 -1.1862
 3706TIP3    H235314   5.876   0.867  18.961 -0.6812  0.5294  1.9932
 3707TIP3   OH235315   0.937   1.409  18.333  0.0396 -0.2968  0.3747
 3707TIP3    H135316   0.868   1.453  18.284 -0.2059  0.2720  1.1901
 3707TIP3    H235317   0.913   1.423  18.425  0.7729 -0.8503  0.6609
 3708TIP3   OH235318   3.192   5.521  20.594  0.3871 -0.1631  0.1643
 3708TIP3    H135319   3.124   5.543  20.530  1.2006  2.3544  0.0508
 3708TIP3    H235320   3.149   5.532  20.679  0.3320  0.3110  0.0796
 3709TIP3   OH235321   0.469   4.541  20.011 -0.4267  0.0656  0.0318
 3709TIP3    H135322   0.469   4.488  19.931 -0.8385  0.6648 -0.3802
 3709TIP3    H235323   0.404   4.500  20.067  0.0551 -0.5158  0.1676
 3710TIP3   OH235324   3.547   5.858  19.666  0.4560  0.4274  0.6378
 3710TIP3    H135325   3.493   5.864  19.746  0.6863  0.8278  0.7615
 3710TIP3    H235326   3.621   5.803  19.692  0.9289  1.1886  0.9236
 3711TIP3   OH235327   5.937   3.259  17.308 -0.0875 -0.2365 -0.4626
 3711TIP3    H135328   6.011   3.307  17.344  0.2454 -1.0020 -0.0978
 3711TIP3    H235329   5.860   3.313  17.327  0.4212  0.8431 -1.3510
 3712TIP3   OH235330   6.112   3.887  18.717  0.3004  0.7897  0.2407
 3712TIP3    H135331   6.111   3.854  18.627  0.2163  0.7903  0.2417
 3712TIP3    H235332   6.199   3.864  18.750 -0.4008 -1.1607  0.8775
 3713TIP3   OH235333   5.477   5.862  20.048 -0.2798 -0.0315  0.2224
 3713TIP3    H135334   5.517   5.936  20.001  0.6911 -1.2840 -1.0104
 3713TIP3    H235335   5.412   5.828  19.987  1.0164 -1.7040 -0.3092
 3714TIP3   OH235336   3.563   0.037  19.433  0.0141 -0.2263 -0.4840
 3714TIP3    H135337   3.654   0.065  19.440  0.4038 -1.3712 -0.7201
 3714TIP3    H235338   3.522   0.101  19.374  0.7960  0.0008 -0.7923
 3715TIP3   OH235339   5.277   1.230  18.140  0.5831 -0.3103 -0.0592
 3715TIP3    H135340   5.251   1.251  18.229  0.0863  0.2243 -0.3227
 3715TIP3    H235341   5.196   1.239  18.089  1.1237  0.6473 -0.7717
 3716TIP3   OH235342   4.054   4.972  17.717 -0.4365  0.4214  0.7109
 3716TIP3    H135343   4.124   4.962  17.653 -1.3316  3.4238 -0.8963
 3716TIP3    H235344   3.992   4.902  17.696  0.4044 -0.1037 -0.0931
 3717TIP3   OH235345   5.481   4.260  20.709 -0.3299  0.0965  0.3260
 3717TIP3    H135346   5.386   4.248  20.702  0.0112 -4.2263  0.0127
 3717TIP3    H235347   5.511   4.261  20.618 -0.0149  1.9444  0.4063
 3718TIP3   OH235348   4.766   2.858  19.170 -0.1856 -0.4419 -0.0116
 3718TIP3    H135349   4.834   2.856  19.102  0.6666  0.9867  0.7300
 3718TIP3    H235350   4.806   2.908  19.241 -2.3824  1.4196  0.0349
 3719TIP3   OH235351   4.368   6.397  19.598  0.6898  0.2050 -0.6334
 3719TIP3    H135352   4.380   6.477  19.650  1.0083 -0.0852 -0.2551
 3719TIP3    H235353   4.308   6.422  19.528  0.8321  0.7913 -0.5467
 3720TIP3   OH235354   1.363   3.548  19.358  0.1434 -0.2827 -0.2537
 3720TIP3    H135355   1.433   3.484  19.343  0.1640 -0.2398 -0.3428
 3720TIP3    H235356   1.296   3.499  19.406  1.2835  0.3223  2.0993
 3721TIP3   OH235357   0.142   1.534  19.481  0.0398 -0.3872 -0.0363
 3721TIP3    H135358   0.167   1.450  19.443  0.6584 -0.6866  0.9963
 3721TIP3    H235359   0.199   1.544  19.558  0.5960  1.3699 -0.6037
 3722TIP3   OH235360   2.657   0.824  18.684  0.3946  0.0660 -0.4243
 3722TIP3    H135361   2.586   0.825  18.748  1.1153 -1.7895  0.4972
 3722TIP3    H235362   2.613   0.831  18.600 -0.7726  0.2863  0.1795
 3723TIP3   OH235363   4.958   1.736  19.722  0.4250 -0.4464  0.2276
 3723TIP3    H135364   5.025   1.781  19.670 -0.2537  0.9275  0.4951
 3723TIP3    H235365   4.979   1.643  19.712  1.8147 -0.0964 -0.4373
 3724TIP3   OH235366   2.643   2.366  20.553  0.3188  0.4701  0.1426
 3724TIP3    H135367   2.595   2.369  20.636 -0.4388  0.6523 -0.2934
 3724TIP3    H235368   2.735   2.355  20.579 -0.1103 -1.7603  0.9595
 3725TIP3   OH235369   2.953   6.482  19.568  0.2330  0.6149  0.0039
 3725TIP3    H135370   2.963   6.571  19.536  0.7748  0.8097  0.6658
 3725TIP3    H235371   2.953   6.491  19.664  2.1641 -0.2445  0.1304
 3726TIP3   OH235372   3.662   3.032  21.048  0.3802  0.2399  0.4592
 3726TIP3    H135373   3.714   3.056  21.125  1.6242  0.7968 -0.5115
 3726TIP3    H235374   3.625   3.115  21.018  2.5378  0.6312 -1.3707
 3727TIP3   OH235375   2.500   2.128  17.673  0.2210 -0.0709 -0.4093
 3727TIP3    H135376   2.499   2.041  17.633  0.1520 -0.7989  1.1049
 3727TIP3    H235377   2.592   2.145  17.693  0.0268 -0.8636  1.4158
 3728TIP3   OH235378   5.621   4.789  18.813  0.5397  0.2315  0.0569
 3728TIP3    H135379   5.618   4.835  18.897  0.0273  0.9074 -0.3237
 3728TIP3    H235380   5.714   4.772  18.798  0.8780  2.1844 -0.3417
 3729TIP3   OH235381   6.006   5.237  18.785  0.6284 -0.1721  0.2097
 3729TIP3    H135382   6.007   5.194  18.871 -0.5355  1.3342  1.0224
 3729TIP3    H235383   5.921   5.211  18.747 -0.9232  2.6924  1.4627
 3730TIP3   OH235384   0.499   3.942  18.517 -0.3303 -0.3552 -0.1091
 3730TIP3    H135385   0.494   3.896  18.433 -1.0151 -0.2245 -0.1445
 3730TIP3    H235386   0.550   3.883  18.573  0.4097 -0.2957 -0.7024
 3731TIP3   OH235387   5.628   6.014  20.666  0.4388 -0.1568  0.4245
 3731TIP3    H135388   5.702   6.003  20.605 -0.1673 -1.2601 -0.1608
 3731TIP3    H235389   5.619   6.108  20.677  0.1110  0.1307 -1.8030
 3732TIP3   OH235390   2.600   0.403  17.867 -0.5149  0.3138 -0.5857
 3732TIP3    H135391   2.591   0.308  17.873  0.1156  0.2460 -0.6998
 3732TIP3    H235392   2.660   0.426  17.938  0.2842  0.4781 -1.2970
 3733TIP3   OH235393   2.981   0.437  17.609  0.7729  0.6090  0.1123
 3733TIP3    H135394   3.006   0.447  17.517  1.1867  0.2514  0.1845
 3733TIP3    H235395   2.956   0.345  17.618  2.1976  0.2510  0.6957
 3734TIP3   OH235396   1.393   0.764  18.277  0.1018 -0.4009 -0.0305
 3734TIP3    H135397   1.365   0.785  18.188 -0.8720 -1.5405 -0.0156
 3734TIP3    H235398   1.317   0.787  18.332  0.3272 -0.6178  0.3796
 3735TIP3   OH235399   1.315   5.965  19.450 -0.1282  0.4594  0.5609
 3735TIP3    H135400   1.342   6.025  19.380  0.2582 -0.8632 -0.4665
 3735TIP3    H235401   1.221   5.952  19.435  0.2825 -1.2603 -0.9305
 3736TIP3   OH235402   4.259   5.414  19.326  0.3017 -0.6360 -0.0562
 3736TIP3    H135403   4.335   5.363  19.297  1.1197 -0.3069  1.3785
 3736TIP3    H235404   4.282   5.505  19.304 -0.2159 -0.6556 -0.6972
 3737TIP3   OH235405   6.032   0.008  17.997 -0.7330  0.5372  0.0080
 3737TIP3    H135406   5.993  -0.009  17.912 -1.5303 -1.0081  0.6514
 3737TIP3    H235407   5.992   0.090  18.026 -0.7687  0.8495 -0.8904
 3738TIP3   OH235408   3.487   6.705  20.847 -0.0064 -0.0892  0.1218
 3738TIP3    H135409   3.405   6.656  20.839 -0.7687  1.3909 -1.6583
 3738TIP3    H235410   3.514   6.721  20.757  2.0923 -0.2492  0.6792
 3739TIP3   OH235411   4.599   5.839  19.758 -0.2645  0.2909 -0.1093
 3739TIP3    H135412   4.525   5.779  19.756  0.3476 -0.4673 -0.7429
 3739TIP3    H235413   4.597   5.884  19.674  0.1959  0.0109 -0.2718
 3740TIP3   OH235414   1.022   5.244  19.896  0.4347 -0.1262  0.6830
 3740TIP3    H135415   0.929   5.241  19.916  0.5972 -0.3902  1.4296
 3740TIP3    H235416   1.027   5.236  19.800 -0.1958 -2.4228  0.7882
 3741TIP3   OH235417   1.607   5.377  16.903  0.2255 -0.2067  0.1430
 3741TIP3    H135418   1.549   5.329  16.963 -0.2967  0.5461  0.2648
 3741TIP3    H235419   1.561   5.376  16.819 -0.5936  1.4176  0.5201
 3742TIP3   OH235420   2.674   5.308  19.515 -0.2028  0.2327  0.1207
 3742TIP3    H135421   2.670   5.332  19.608  0.8678 -0.7403  0.4423
 3742TIP3    H235422   2.730   5.373  19.475  0.3173 -0.0350  0.4049
 3743TIP3   OH235423   6.270   4.731  19.858  0.7028 -0.1666 -0.2682
 3743TIP3    H135424   6.213   4.775  19.794  0.8221  1.9755  1.0218
 3743TIP3    H235425   6.356   4.730  19.817  1.2637  3.1287  0.5903
 3744TIP3   OH235426   4.635   6.731  17.387 -0.1100  0.4021  0.2267
 3744TIP3    H135427   4.544   6.709  17.370 -0.4661  2.0387 -0.1252
 3744TIP3    H235428   4.678   6.726  17.302 -0.1912  1.0348  0.1468
 3745TIP3   OH235429   1.737   2.785  19.162 -0.0289  0.5787  0.2799
 3745TIP3    H135430   1.744   2.693  19.186  0.1018 -0.1677 -2.2867
 3745TIP3    H235431   1.649   2.794  19.126 -0.2194  1.5969  0.9531
 3746TIP3   OH235432   2.093   2.991  17.987  0.0212 -0.3511 -0.4453
 3746TIP3    H135433   2.110   2.908  17.942  1.0787  0.2210 -1.1455
 3746TIP3    H235434   2.016   3.027  17.942  0.3562 -0.3409 -1.0195
 3747TIP3   OH235435   0.946   1.067  17.556  0.3583 -0.0058  0.1682
 3747TIP3    H135436   1.038   1.073  17.528  0.4035  2.1353  0.6226
 3747TIP3    H235437   0.899   1.043  17.476  1.3850 -2.5203  0.1989
 3748TIP3   OH235438   4.478   0.575  19.752 -0.4489 -0.0657  0.1572
 3748TIP3    H135439   4.432   0.659  19.742 -0.1092  0.2138  0.8705
 3748TIP3    H235440   4.540   0.591  19.822 -0.5989 -1.0196  0.5133
 3749TIP3   OH235441   1.206   4.283  18.360 -0.0082  0.8623 -0.8074
 3749TIP3    H135442   1.260   4.226  18.415 -0.3967  1.9756  0.8133
 3749TIP3    H235443   1.148   4.328  18.422 -0.2760  2.3912 -2.1033
 3750TIP3   OH235444   1.393   3.046  17.690 -0.0724 -0.0816  0.5266
 3750TIP3    H135445   1.384   3.094  17.608 -0.8704  0.1050  0.7187
 3750TIP3    H235446   1.444   2.968  17.666 -0.9966 -0.4553 -0.3381
 3751TIP3   OH235447   3.306   5.754  20.942 -0.2648  0.0568  0.0271
 3751TIP3    H135448   3.254   5.809  20.883 -0.2164  0.0590 -0.0126
 3751TIP3    H235449   3.348   5.816  21.002  0.4077  0.1338 -0.5022
 3752TIP3   OH235450   3.857   1.864  18.373  0.4027  0.2194 -0.0887
 3752TIP3    H135451   3.767   1.887  18.350  0.5737  0.3479 -0.6415
 3752TIP3    H235452   3.894   1.944  18.409  0.4151  0.2804 -0.2362
 3753TIP3   OH235453   2.861   3.851  18.728 -0.5574  0.0603  0.3076
 3753TIP3    H135454   2.787   3.912  18.723 -1.2136 -0.5937  1.5916
 3753TIP3    H235455   2.849   3.792  18.654 -1.1639  0.1420  0.3360
 3754TIP3   OH235456   2.733   0.869  19.099 -0.0480  0.4657  0.2128
 3754TIP3    H135457   2.649   0.831  19.072 -0.3983  1.2212  0.2278
 3754TIP3    H235458   2.731   0.959  19.066  1.6408 -0.1120 -1.6341
 3755TIP3   OH235459   3.985   3.292  21.090 -0.3987  0.3678 -0.4814
 3755TIP3    H135460   4.034   3.246  21.021  0.3241 -0.4402  0.5399
 3755TIP3    H235461   3.897   3.302  21.054 -0.2780 -0.8462 -1.1735
 3756TIP3   OH235462   1.031   5.707  18.971  0.1700  0.1846 -0.0618
 3756TIP3    H135463   1.108   5.657  18.943 -0.8323 -0.3353 -2.0448
 3756TIP3    H235464   0.982   5.646  19.026  1.7889  0.9753  2.4371
 3757TIP3   OH235465   1.890   6.389  20.605  0.0546 -0.5166 -0.1947
 3757TIP3    H135466   1.798   6.413  20.612  0.6974  1.7576  1.2929
 3757TIP3    H235467   1.899   6.313  20.663 -0.1510  1.8039  3.1626
 3758TIP3   OH235468   5.931   5.145  17.662 -0.1247 -0.3595 -0.1838
 3758TIP3    H135469   5.912   5.081  17.594  0.1823 -0.3159 -0.3134
 3758TIP3    H235470   5.921   5.097  17.744  2.0254 -1.1422 -0.2980
 3759TIP3   OH235471   4.711   5.228  18.870 -0.4257  0.0989  0.1460
 3759TIP3    H135472   4.658   5.157  18.833 -0.8411  1.0002 -1.0711
 3759TIP3    H235473   4.711   5.212  18.964 -2.4476 -0.2170  0.1255
 3760TIP3   OH235474   2.666   1.329  20.626 -0.0887 -0.4968  0.1890
 3760TIP3    H135475   2.759   1.344  20.641  0.1339  0.2949 -1.6170
 3760TIP3    H235476   2.652   1.237  20.647  0.9381 -0.4545  1.1361
 3761TIP3   OH235477   3.752   0.610  18.991  0.1842 -0.3760  0.0243
 3761TIP3    H135478   3.839   0.642  18.965  1.6162 -3.9572 -0.0964
 3761TIP3    H235479   3.705   0.599  18.908 -0.7499  2.1588  0.1201
 3762TIP3   OH235480   0.986   4.753  19.434 -0.0392 -0.2905 -0.5339
 3762TIP3    H135481   1.078   4.740  19.411 -0.0611 -0.0322 -0.7681
 3762TIP3    H235482   0.986   4.834  19.485  0.3702 -2.0290  2.5077
 3763TIP3   OH235483   5.157   6.301  19.364 -0.8122 -0.3532 -0.1536
 3763TIP3    H135484   5.173   6.393  19.340  1.1261 -0.4785  0.5086
 3763TIP3    H235485   5.084   6.306  19.425  1.4538  1.2269  2.6672
 3764TIP3   OH235486   1.688   4.544  20.707  0.0700  0.0191 -0.1025
 3764TIP3    H135487   1.693   4.635  20.735  1.6783  1.5462 -4.5960
 3764TIP3    H235488   1.774   4.508  20.727 -0.1891 -0.2277  0.6209
 3765TIP3   OH235489   3.776   4.461  18.968 -0.5398 -0.5469 -0.1438
 3765TIP3    H135490   3.739   4.493  18.886 -1.6298  0.9067  0.8683
 3765TIP3    H235491   3.701   4.431  19.019  0.1786 -2.0607  0.1143
 3766TIP3   OH235492   5.382   3.657  20.573  1.0272 -0.2465  0.3880
 3766TIP3    H135493   5.316   3.689  20.634  1.8506  1.2263  0.5614
 3766TIP3    H235494   5.465   3.672  20.618  1.6547  0.7915 -1.0470
 3767TIP3   OH235495   5.376   0.323  18.627  0.2914  0.0446  0.2525
 3767TIP3    H135496   5.298   0.313  18.574 -0.6734  3.0374  0.9263
 3767TIP3    H235497   5.445   0.278  18.578 -1.1702  0.1522 -2.0147
 3768TIP3   OH235498   1.920   4.411  20.248  0.3530 -0.4834  0.0865
 3768TIP3    H135499   1.946   4.326  20.212  1.5155  0.0665 -0.3935
 3768TIP3    H235500   2.002   4.457  20.265 -0.1164  2.4019 -4.0920
 3769TIP3   OH235501   0.778   0.335  20.384  0.4998  0.8054 -0.2725
 3769TIP3    H135502   0.708   0.365  20.325 -0.9726 -0.8338  0.5601
 3769TIP3    H235503   0.746   0.356  20.472  0.9466 -0.1561  0.1308
 3770TIP3   OH235504   6.420   0.146  20.119 -0.3885 -0.4843  0.9515
 3770TIP3    H135505   6.488   0.093  20.160  0.1752 -0.4897  0.0364
 3770TIP3    H235506   6.380   0.088  20.055  1.5202  0.6627 -1.4621
 3771TIP3   OH235507   2.017   1.381  20.143 -0.2551  0.1651  0.2423
 3771TIP3    H135508   1.953   1.451  20.125  0.0068  0.4514  0.4110
 3771TIP3    H235509   1.971   1.323  20.203 -0.9722 -0.5529 -0.9482
 3772TIP3   OH235510   6.099   3.312  17.808  0.6223 -0.5181 -0.4907
 3772TIP3    H135511   6.117   3.401  17.838 -0.5969 -0.7381  1.0215
 3772TIP3    H235512   6.154   3.301  17.731  1.7459  1.1037  0.0274
 3773TIP3   OH235513   1.521   0.205  18.197  0.0798 -0.3947  0.1893
 3773TIP3    H135514   1.572   0.131  18.229  0.2349 -0.1306  0.5603
 3773TIP3    H235515   1.433   0.191  18.232  0.4462  0.3295  1.4615
 3774TIP3   OH235516   5.709   4.292  19.349  0.6032  0.9231 -0.0379
 3774TIP3    H135517   5.738   4.296  19.440 -0.8831  1.6274  0.4260
 3774TIP3    H235518   5.738   4.206  19.319  0.6794  0.4736  1.2474
 3775TIP3   OH235519   4.765   1.897  19.294 -0.0893  0.4681  0.0111
 3775TIP3    H135520   4.773   1.956  19.369  0.3064  1.0076 -0.4445
 3775TIP3    H235521   4.726   1.951  19.225 -0.0272  0.1048 -0.3103
 3776TIP3   OH235522   6.445   0.210  19.394  0.7747 -0.0213 -0.1050
 3776TIP3    H135523   6.533   0.227  19.426  1.0121 -0.0962 -0.7041
 3776TIP3    H235524   6.414   0.137  19.446  1.0563  0.0238  0.1269
 3777TIP3   OH235525   6.351   2.121  18.675  0.4156  0.2977  0.2368
 3777TIP3    H135526   6.337   2.193  18.613  0.2256  0.7664  0.8155
 3777TIP3    H235527   6.315   2.044  18.631  0.8248  0.5158 -0.4825
 3778TIP3   OH235528   3.648   5.688  17.965  0.2992 -0.5670 -0.4869
 3778TIP3    H135529   3.552   5.690  17.965  0.1902 -1.5159  2.6553
 3778TIP3    H235530   3.670   5.612  17.912 -0.6775 -0.4803 -1.0478
 3779TIP3   OH235531   4.151   2.172  18.764  0.3202  0.4896 -0.4586
 3779TIP3    H135532   4.092   2.158  18.838 -1.1686  0.4844 -1.6088
 3779TIP3    H235533   4.196   2.089  18.753  0.4434  0.4395  0.3244
 3780TIP3   OH235534   4.362   0.025  17.368  0.0197 -1.0707  0.1193
 3780TIP3    H135535   4.352   0.097  17.306  0.2224  0.1202  1.4266
 3780TIP3    H235536   4.334  -0.052  17.319 -5.4754  0.4674  0.1313
 3781TIP3   OH235537   5.253   0.434  16.822  0.1727 -0.1301  0.1926
 3781TIP3    H135538   5.342   0.450  16.852 -0.0333  0.6186  0.4247
 3781TIP3    H235539   5.227   0.352  16.865  0.4244  0.1237  0.8421
 3782TIP3   OH235540   0.052   0.269  18.395  0.3943 -0.0539 -0.4594
 3782TIP3    H135541   0.128   0.322  18.422 -0.8145  1.7864 -0.4942
 3782TIP3    H235542   0.065   0.255  18.301  1.6226 -1.4034 -0.1227
 3783TIP3   OH235543   2.994   5.282  20.006 -0.1575  0.1871 -0.3601
 3783TIP3    H135544   3.088   5.301  20.007 -0.4170  1.5929  0.3850
 3783TIP3    H235545   2.989   5.190  19.983  1.5159 -0.4529  1.4561
 3784TIP3   OH235546   2.831   1.417  18.449  0.0081 -0.1469 -0.1231
 3784TIP3    H135547   2.916   1.445  18.484 -0.4228  0.5166  0.4286
 3784TIP3    H235548   2.803   1.347  18.507 -0.0674  0.0052  0.0258
 3785TIP3   OH235549   1.741   4.238  18.363  0.7686  0.1006 -0.4746
 3785TIP3    H135550   1.675   4.218  18.430  1.0378  0.6265 -0.0437
 3785TIP3    H235551   1.690   4.274  18.290  0.2868 -1.9594 -1.2198
 3786TIP3   OH235552   1.304   5.180  19.481 -0.2404 -0.4085  0.6235
 3786TIP3    H135553   1.225   5.141  19.518 -0.7981  0.7177  0.6610
 3786TIP3    H235554   1.317   5.261  19.530  0.3644 -0.0713 -0.0655
 3787TIP3   OH235555   0.022   2.464  20.219  0.1761 -0.2353 -0.1012
 3787TIP3    H135556   0.114   2.441  20.235 -0.0584 -1.6546 -0.6972
 3787TIP3    H235557   0.012   2.550  20.260  1.3958 -0.6789  1.2351
 3788TIP3   OH235558   5.997   1.306  18.031 -0.1438 -0.2032  0.1607
 3788TIP3    H135559   5.968   1.381  18.084  1.8025  1.2881 -0.7452
 3788TIP3    H235560   5.942   1.310  17.953 -0.9309 -0.5183  0.6941
 3789TIP3   OH235561   3.645   0.760  19.425  0.1862 -0.5008  0.5229
 3789TIP3    H135562   3.654   0.749  19.520  0.8426 -1.7849  0.3393
 3789TIP3    H235563   3.710   0.700  19.388  0.2964  0.3646 -0.7390
 3790TIP3   OH235564   2.298   3.118  18.830  0.1910 -0.2076 -0.0420
 3790TIP3    H135565   2.261   3.116  18.742 -0.2874  0.0969  0.1465
 3790TIP3    H235566   2.306   3.211  18.851  1.1955 -0.2688 -0.1248
 3791TIP3   OH235567   5.142   3.963  20.771  0.7103  0.0772  1.1720
 3791TIP3    H135568   5.216   3.937  20.826  1.9736 -0.7542 -0.8434
 3791TIP3    H235569   5.122   3.886  20.719 -1.1556  0.5167  1.1593
 3792TIP3   OH235570   0.731   1.824  17.453 -0.2375  0.4866  0.3548
 3792TIP3    H135571   0.810   1.770  17.450 -0.8263 -0.3696 -0.2071
 3792TIP3    H235572   0.712   1.844  17.361 -0.8325  0.4505  0.4645
 3793TIP3   OH235573   3.001   0.412  17.314  0.2287  1.0060  0.5061
 3793TIP3    H135574   3.082   0.372  17.284 -0.3551 -0.2217  0.5309
 3793TIP3    H235575   2.979   0.476  17.246  0.6928  0.6425  0.0074
 3794TIP3   OH235576   2.617   1.436  18.292 -0.1147  0.1208 -0.3278
 3794TIP3    H135577   2.591   1.528  18.294  0.1276  0.1798  0.9243
 3794TIP3    H235578   2.699   1.433  18.342  0.2032 -0.6838 -0.8668
 3795TIP3   OH235579   3.861   1.035  19.868 -0.8929 -0.4431  0.2393
 3795TIP3    H135580   3.898   1.122  19.878 -1.7285  0.2224 -1.8724
 3795TIP3    H235581   3.779   1.037  19.916 -0.4226 -0.4392  1.0683
 3796TIP3   OH235582   3.327   0.166  19.982 -0.0452 -0.5762  0.1481
 3796TIP3    H135583   3.288   0.211  19.907 -2.5760 -1.5904  0.7540
 3796TIP3    H235584   3.380   0.097  19.944  1.3235  0.8782 -0.7126
 3797TIP3   OH235585   6.387   1.791  17.973 -0.3224  0.0313 -0.4007
 3797TIP3    H135586   6.318   1.798  18.039 -1.2246 -0.7050 -1.2404
 3797TIP3    H235587   6.345   1.749  17.898  0.7532  0.5871 -1.3478
 3798TIP3   OH235588   6.388   4.736  19.248  0.3169  0.1553 -0.1593
 3798TIP3    H135589   6.392   4.643  19.230  0.0470  0.3086 -1.0710
 3798TIP3    H235590   6.298   4.751  19.279  0.1892  0.1985 -0.5478
 3799TIP3   OH235591   3.275   2.001  19.089  0.6287 -0.1239 -0.7595
 3799TIP3    H135592   3.216   2.072  19.065  0.8559  0.6662  0.8554
 3799TIP3    H235593   3.267   1.994  19.184  3.2243  0.1265 -0.4414
 3800TIP3   OH235594   5.532   5.215  20.257 -0.2553  0.5295 -0.0960
 3800TIP3    H135595   5.612   5.162  20.252 -1.3654 -1.0668 -1.9810
 3800TIP3    H235596   5.561   5.296  20.300  1.6698 -1.2395  2.3109
 3801TIP3   OH235597   4.766   2.339  20.868 -0.3792 -0.3140 -0.4281
 3801TIP3    H135598   4.690   2.396  20.861  1.2226  1.7441 -3.1400
 3801TIP3    H235599   4.839   2.398  20.882  1.0435 -1.9705 -0.5242
 3802TIP3   OH235600   0.717   0.133  18.104 -0.1385  0.2661  0.1592
 3802TIP3    H135601   0.738   0.101  18.017 -1.2505 -0.2557  0.0592
 3802TIP3    H235602   0.744   0.224  18.104 -1.3517  0.6626 -1.2023
 3803TIP3   OH235603   6.541   5.550  19.577  0.0223 -0.0634 -0.3256
 3803TIP3    H135604   6.609   5.590  19.523 -1.3948  0.9660 -1.4580
 3803TIP3    H235605   6.482   5.622  19.598 -0.9240 -0.9856  0.2784
 3804TIP3   OH235606   2.095   0.754  19.755  0.4888  0.2091 -0.3535
 3804TIP3    H135607   2.068   0.837  19.717  2.8324  0.8262 -0.8426
 3804TIP3    H235608   2.172   0.775  19.808  0.6464 -1.5292  0.1916
 3805TIP3   OH235609   0.653   0.758  18.327 -0.2779  0.8931  0.4847
 3805TIP3    H135610   0.735   0.713  18.342 -0.0919  0.9845 -0.2445
 3805TIP3    H235611   0.586   0.701  18.365  0.0739  0.6038  0.6667
 3806TIP3   OH235612   4.693   5.099  17.978 -0.4394 -0.4932 -0.2049
 3806TIP3    H135613   4.648   5.144  18.049 -0.2212 -0.1434 -0.2912
 3806TIP3    H235614   4.761   5.048  18.021  0.9394  1.1806 -0.3037
 3807TIP3   OH235615   5.288   4.995  19.302  0.5532  0.4061 -0.0401
 3807TIP3    H135616   5.367   5.003  19.249  0.8299  1.4454  0.5105
 3807TIP3    H235617   5.242   5.078  19.290  0.0965  0.2437  0.5317
 3808TIP3   OH235618   2.519   3.530  19.477 -0.1799 -0.1176  0.4872
 3808TIP3    H135619   2.472   3.510  19.558 -0.7185  0.2845  0.2844
 3808TIP3    H235620   2.450   3.549  19.413  0.2692  1.3209  0.3978
 3809TIP3   OH235621   1.085   1.046  18.154  0.2848 -0.1279 -0.6416
 3809TIP3    H135622   1.157   0.993  18.188 -0.8115 -0.8152  0.7360
 3809TIP3    H235623   1.017   0.983  18.130 -0.8326  0.5693  0.5260
 3810TIP3   OH235624   2.848   6.399  20.653  0.1032  0.6130  0.1617
 3810TIP3    H135625   2.921   6.369  20.708 -1.0710  1.2869  2.1893
 3810TIP3    H235626   2.891   6.437  20.576  1.8768  0.5559  1.0633
 3811TIP3   OH235627   2.074   6.360  17.812 -0.5344  0.0815 -0.1199
 3811TIP3    H135628   2.017   6.390  17.883  1.1864  1.2790  0.8332
 3811TIP3    H235629   2.159   6.344  17.855  0.0440 -1.0303 -1.5876
 3812TIP3   OH235630   4.967   6.529  17.961 -0.3150  0.0676 -0.5397
 3812TIP3    H135631   4.953   6.466  18.031 -0.3489  0.8334  0.1494
 3812TIP3    H235632   4.888   6.523  17.907 -0.9901  0.5769  0.3624
 3813TIP3   OH235633   2.250   4.313  18.289  0.4567  0.0857 -0.1175
 3813TIP3    H135634   2.281   4.244  18.348  0.7368 -0.0198 -0.3823
 3813TIP3    H235635   2.157   4.323  18.310  0.1642 -1.0727 -0.7605
 3814TIP3   OH235636   4.979   2.163  20.001 -0.2922  0.6598  0.4464
 3814TIP3    H135637   4.933   2.079  19.999 -0.7105  0.8772  0.7098
 3814TIP3    H235638   5.066   2.142  20.033 -0.2272  0.2529  0.0273
 3815TIP3   OH235639   5.174   4.014  19.373  0.0605  0.6186 -0.0617
 3815TIP3    H135640   5.251   4.049  19.327  0.2671  0.2036 -0.0363
 3815TIP3    H235641   5.185   4.041  19.464 -1.0094  2.5895 -0.4492
 3816TIP3   OH235642   3.230   0.449  18.680  0.2338 -0.2048  0.0746
 3816TIP3    H135643   3.229   0.453  18.585  2.5591 -0.0881  0.0018
 3816TIP3    H235644   3.318   0.417  18.702 -0.2207 -0.1611  2.1891
 3817TIP3   OH235645   1.051   0.750  19.517  0.4252  0.2113 -0.8090
 3817TIP3    H135646   1.057   0.661  19.550  1.2221  0.6392  0.2704
 3817TIP3    H235647   0.982   0.791  19.570 -0.5517  0.0275 -1.8779
 3818TIP3   OH235648   1.584   6.549  18.701 -0.2621  0.0233 -0.7541
 3818TIP3    H135649   1.514   6.487  18.682  0.3789 -0.6749 -0.8979
 3818TIP3    H235650   1.548   6.634  18.678 -0.0782 -0.6041 -3.6605
 3819TIP3   OH235651   1.225   3.129  17.897 -0.4941  0.3964  0.6379
 3819TIP3    H135652   1.274   3.097  17.973 -0.6930  0.5871  0.8449
 3819TIP3    H235653   1.280   3.104  17.822 -0.8009 -0.7433  0.7689
 3820TIP3   OH235654   2.141   3.004  19.700  0.1634 -0.2164  0.3143
 3820TIP3    H135655   2.088   3.063  19.647  2.5852  2.3759  0.5679
 3820TIP3    H235656   2.127   3.032  19.790  1.0941 -0.2260  0.4723
 3821TIP3   OH235657   1.872   5.634  19.103  0.5070 -0.0927 -0.7201
 3821TIP3    H135658   1.879   5.541  19.127 -1.3762 -0.0438  0.2549
 3821TIP3    H235659   1.831   5.632  19.016 -0.7061 -0.1955 -0.1679
 3822TIP3   OH235660   1.175   6.409  17.356  0.2596  0.0245  0.5935
 3822TIP3    H135661   1.144   6.326  17.393  1.6353 -0.3211  1.0144
 3822TIP3    H235662   1.095   6.458  17.338 -0.8246 -2.3580 -2.0557
 3823TIP3   OH235663   2.525   6.494  19.791 -0.1817  0.3906  0.4684
 3823TIP3    H135664   2.517   6.500  19.887 -1.3210 -0.3382  0.4393
 3823TIP3    H235665   2.592   6.559  19.769  1.2384 -0.4900  1.8993
 3824TIP3   OH235666   2.550   5.394  18.525  0.0423  0.1120 -0.7194
 3824TIP3    H135667   2.556   5.379  18.431  0.3225 -0.4743 -0.6157
 3824TIP3    H235668   2.456   5.393  18.545 -0.1294  1.8646 -1.2297
 3825TIP3   OH235669   6.596   5.282  19.917  0.1901  1.1335 -0.1656
 3825TIP3    H135670   6.544   5.227  19.858  0.7276  0.2876  0.1475
 3825TIP3    H235671   6.593   5.237  20.001  2.2572  0.5235 -0.3736
 3826TIP3   OH235672   0.396   5.238  19.237  0.0209 -0.2552  0.3822
 3826TIP3    H135673   0.347   5.279  19.166 -1.8465 -2.5901  0.1632
 3826TIP3    H235674   0.390   5.299  19.310  0.0625  1.1939 -0.7950
 3827TIP3   OH235675   4.683   5.571  19.801  0.1732  0.5686  0.2213
 3827TIP3    H135676   4.676   5.646  19.742  1.9419  1.6794  1.3225
 3827TIP3    H235677   4.753   5.595  19.862 -0.0859 -1.4567  1.4071
 3828TIP3   OH235678   6.110   4.311  18.581 -0.4318  0.2426  1.0466
 3828TIP3    H135679   6.051   4.385  18.601 -0.1637  1.6722 -2.6858
 3828TIP3    H235680   6.057   4.233  18.598 -2.4536  1.4209  0.4989
 3829TIP3   OH235681   4.433   6.633  19.183 -0.1835 -0.8737  0.2457
 3829TIP3    H135682   4.522   6.612  19.211  0.1523  0.8958  0.6145
 3829TIP3    H235683   4.438   6.635  19.088  0.4366  0.1453  0.2778
 3830TIP3   OH235684   6.112   3.770  19.675 -0.0155  0.0825 -0.1093
 3830TIP3    H135685   6.035   3.796  19.625  0.6943  0.0898 -1.2218
 3830TIP3    H235686   6.173   3.735  19.610  0.7304 -0.3892  0.8153
 3831TIP3   OH235687   3.129   0.956  18.691 -0.4782  0.3659  0.4446
 3831TIP3    H135688   3.052   0.907  18.720 -0.9835  1.0255  0.2363
 3831TIP3    H235689   3.115   1.045  18.724 -1.1145  1.1788 -1.8298
 3832TIP3   OH235690   5.529   1.039  19.970 -0.1730 -0.0326  0.6520
 3832TIP3    H135691   5.453   0.994  20.007  1.2354 -0.4149  3.3150
 3832TIP3    H235692   5.603   1.010  20.023  2.0391 -0.3052 -2.3291
 3833TIP3   OH235693   2.883   6.333  19.002  0.1404  0.1991 -0.3455
 3833TIP3    H135694   2.862   6.333  19.095 -1.7084  0.1708 -0.7262
 3833TIP3    H235695   2.852   6.418  18.970  3.7491  1.6984 -0.3984
 3834TIP3   OH235696   4.207   2.401  20.665  0.2128 -0.2222 -0.1873
 3834TIP3    H135697   4.118   2.398  20.699  0.7029 -1.5538  1.1049
 3834TIP3    H235698   4.196   2.413  20.571 -1.2558  1.3721  0.1420
 3835TIP3   OH235699   2.658   2.114  20.160 -0.0065 -0.0941 -0.5219
 3835TIP3    H135700   2.747   2.137  20.187  0.1970 -0.3130 -1.0171
 3835TIP3    H235701   2.645   2.026  20.194 -1.1954  1.0666  2.3957
 3836TIP3   OH235702   3.273   4.227  18.500  0.4362 -0.5540 -0.0680
 3836TIP3    H135703   3.258   4.316  18.468 -0.3018  0.2978  2.4480
 3836TIP3    H235704   3.365   4.210  18.481  0.7675  1.0084  0.0035
 3837TIP3   OH235705   0.628   4.302  20.470 -0.7735 -0.1648  0.5269
 3837TIP3    H135706   0.701   4.363  20.478 -0.0594 -0.9843  0.3110
 3837TIP3    H235707   0.668   4.219  20.445 -1.8504 -0.4430 -0.3482
 3838TIP3   OH235708   5.402   3.576  19.948  0.5408  0.2616  0.7693
 3838TIP3    H135709   5.347   3.577  19.869  0.6841  1.4330  0.6614
 3838TIP3    H235710   5.491   3.579  19.915  0.6542 -0.5623  0.9703
 3839TIP3   OH235711   2.508   3.355  20.573 -0.2135 -0.7782 -0.2128
 3839TIP3    H135712   2.601   3.332  20.572  0.9456  3.0313  1.2041
 3839TIP3    H235713   2.489   3.381  20.482  1.0796  1.2609  0.0271
 3840TIP3   OH235714   1.704   0.150  18.901  0.1419 -0.5777 -0.1936
 3840TIP3    H135715   1.665   0.173  18.985 -0.9953 -1.1197 -0.5424
 3840TIP3    H235716   1.704   0.054  18.900 -2.3487 -0.6670 -1.8360
 3841TIP3   OH235717   5.702   0.082  18.790 -0.5766 -0.1707 -0.1491
 3841TIP3    H135718   5.750   0.003  18.765 -0.8040  0.4799 -2.8955
 3841TIP3    H235719   5.624   0.050  18.835 -1.2536 -1.6050 -2.2247
 3842TIP3   OH235720   1.013   1.677  18.671  0.6534 -0.4563 -0.1741
 3842TIP3    H135721   0.927   1.666  18.710  1.2894 -0.5139  1.2648
 3842TIP3    H235722   1.030   1.771  18.673 -0.2881 -0.1527 -2.5847
 3843TIP3   OH235723   1.435   3.817  19.803  0.3159  0.1486  0.2668
 3843TIP3    H135724   1.437   3.870  19.883  0.5667 -1.3343  1.2776
 3843TIP3    H235725   1.392   3.873  19.739  0.7651  1.6583  1.2189
 3844TIP3   OH235726   2.777   5.810  17.709 -0.6916  0.1902  0.0090
 3844TIP3    H135727   2.820   5.845  17.631 -2.0145  4.2330  0.8389
 3844TIP3    H235728   2.828   5.845  17.782 -3.3042  2.4540  0.9414
 3845TIP3   OH235729   5.985   0.261  19.583 -0.2893  0.3857 -0.0995
 3845TIP3    H135730   5.960   0.275  19.675 -0.3894  0.0319 -0.0721
 3845TIP3    H235731   5.984   0.349  19.545  0.3460  0.6109  0.3820
 3846TIP3   OH235732   4.216   5.934  20.284  0.2305  0.3770 -0.2501
 3846TIP3    H135733   4.309   5.932  20.309 -0.2593  1.4142  1.8940
 3846TIP3    H235734   4.172   5.886  20.354 -1.0085  1.3924 -0.2968
 3847TIP3   OH235735   6.333   1.579  18.187  0.1628 -0.6801 -0.0603
 3847TIP3    H135736   6.264   1.596  18.123 -0.8109  2.0205  1.5441
 3847TIP3    H235737   6.413   1.571  18.135 -0.9636 -1.4809 -1.7678
 3848TIP3   OH235738   0.165   2.916  20.047 -0.1380 -0.1630  0.5147
 3848TIP3    H135739   0.161   2.826  20.014 -0.6257  0.0623 -0.0673
 3848TIP3    H235740   0.248   2.950  20.012 -1.4936  0.6739 -2.1496
 3849TIP3   OH235741   3.784   3.023  18.935 -0.4583 -0.5227 -0.3141
 3849TIP3    H135742   3.712   3.036  18.997 -0.3249  2.2372 -0.5900
 3849TIP3    H235743   3.855   3.078  18.970 -0.3213  0.9799 -2.7123
 3850TIP3   OH235744   5.746   3.019  20.663 -0.1770 -0.3131  0.0866
 3850TIP3    H135745   5.750   3.025  20.567 -0.7082 -1.9934 -0.0790
 3850TIP3    H235746   5.833   2.990  20.689 -0.1293 -0.1847  0.0665
 3851TIP3   OH235747   2.674   4.780  19.624  0.3486 -0.1555  0.4142
 3851TIP3    H135748   2.704   4.869  19.605  1.7298 -0.2506  1.9578
 3851TIP3    H235749   2.579   4.784  19.612  0.3515  1.5834  0.7020
 3852TIP3   OH235750   4.853   0.462  19.250 -0.5684  0.0224  0.0152
 3852TIP3    H135751   4.783   0.511  19.207 -0.4812  0.7884  0.7312
 3852TIP3    H235752   4.808   0.392  19.297 -0.8943  0.6900  0.7160
 3853TIP3   OH235753   6.187   3.780  20.256  0.3409  0.0994 -0.2264
 3853TIP3    H135754   6.229   3.781  20.342 -0.9730 -0.1383  0.4417
 3853TIP3    H235755   6.124   3.853  20.259 -0.7271 -0.7910 -0.4425
 3854TIP3   OH235756   3.616   3.147  17.702  0.3597  0.5665 -0.0068
 3854TIP3    H135757   3.646   3.217  17.645 -1.6617  0.5568 -1.1678
 3854TIP3    H235758   3.530   3.123  17.668  1.9675 -4.4457 -1.5173
 3855TIP3   OH235759   4.231   4.898  17.516  0.3808 -0.4057  0.2962
 3855TIP3    H135760   4.175   4.875  17.442  0.9089  0.3628 -0.3604
 3855TIP3    H235761   4.313   4.927  17.476  0.2014  1.3464  1.1160
 3856TIP3   OH235762   3.185   2.706  18.444  0.3893 -0.0956 -0.1960
 3856TIP3    H135763   3.163   2.798  18.455  1.1202  0.0634 -0.0624
 3856TIP3    H235764   3.278   2.705  18.423  0.5723 -0.8479  0.5745
 3857TIP3   OH235765   2.857   1.090  17.903 -0.5525  0.2499  0.4098
 3857TIP3    H135766   2.797   1.121  17.970  0.1999  1.3777  0.5845
 3857TIP3    H235767   2.802   1.074  17.826 -1.1701  0.5856  0.7835
 3858TIP3   OH235768   4.781   0.559  20.216  0.0431 -0.0417  0.0603
 3858TIP3    H135769   4.716   0.535  20.282 -2.5296 -0.0274 -2.2658
 3858TIP3    H235770   4.834   0.480  20.205  1.5481  0.4275  3.0906
 3859TIP3   OH235771   5.223   6.605  18.002  0.2440 -0.4326 -0.2318
 3859TIP3    H135772   5.128   6.605  17.988  0.2568  0.1310 -0.3260
 3859TIP3    H235773   5.258   6.657  17.930  0.5918 -0.2632  0.0580
 3860TIP3   OH235774   1.564   4.120  19.652 -0.5280 -0.5298  0.0854
 3860TIP3    H135775   1.617   4.166  19.588  1.7625 -1.4668  1.1844
 3860TIP3    H235776   1.538   4.187  19.715  1.0328 -0.3476  0.5656
 3861TIP3   OH235777   3.432   2.635  18.377 -0.0417  0.1443 -0.3368
 3861TIP3    H135778   3.429   2.576  18.453  1.2530  0.8218  0.2770
 3861TIP3    H235779   3.521   2.626  18.344 -0.0829  1.1254 -0.7451
 3862TIP3   OH235780   0.895   4.365  18.923 -0.5670  0.0300 -0.1731
 3862TIP3    H135781   0.815   4.415  18.905  0.2970  0.9191 -1.8102
 3862TIP3    H235782   0.964   4.432  18.926 -0.1101 -0.3732  3.7603
 3863TIP3   OH235783   1.875   0.420  20.075 -0.3958 -0.5397 -0.0070
 3863TIP3    H135784   1.857   0.494  20.017  0.1168  1.3479  2.1493
 3863TIP3    H235785   1.843   0.448  20.161  1.8782 -1.8811  1.3733
 3864TIP3   OH235786   0.429   0.014  18.342 -0.1870  0.0024 -0.0169
 3864TIP3    H135787   0.449   0.059  18.260  1.2264  1.0728  0.8777
 3864TIP3    H235788   0.469  -0.072  18.332  0.1825  0.2098 -0.3656
 3865TIP3   OH235789   4.317   1.951  19.163 -0.0664  0.1805  0.2479
 3865TIP3    H135790   4.362   1.868  19.178  0.1033 -0.2311 -2.0785
 3865TIP3    H235791   4.380   2.003  19.112 -0.4330  1.4955  1.0899
 3866TIP3   OH235792   0.404   5.182  17.286  0.0528 -0.4749  0.9953
 3866TIP3    H135793   0.397   5.186  17.190  0.2973 -1.2166  0.9379
 3866TIP3    H235794   0.405   5.089  17.306 -0.0744 -0.3248  1.7350
 3867TIP3   OH235795   3.714   5.836  20.783 -0.3210  0.1702 -0.2632
 3867TIP3    H135796   3.643   5.821  20.720  0.0586  0.3590 -0.7348
 3867TIP3    H235797   3.671   5.880  20.857 -0.6459  0.4974 -0.6450
 3868TIP3   OH235798   5.770   0.874  20.421 -0.2234 -0.6286 -0.0096
 3868TIP3    H135799   5.726   0.958  20.437 -0.8451 -0.8827 -0.3584
 3868TIP3    H235800   5.699   0.813  20.402  0.1637 -1.4641  1.1689
 3869TIP3   OH235801   3.610   2.227  19.201  0.5412 -0.8030 -0.5943
 3869TIP3    H135802   3.611   2.172  19.280 -0.1791  0.3206  0.2359
 3869TIP3    H235803   3.629   2.166  19.130  1.7530 -1.7580  0.4868
 3870TIP3   OH235804   2.886   4.632  20.077  0.6266  0.3221  0.7237
 3870TIP3    H135805   2.976   4.602  20.079  0.9432  1.2478  0.7126
 3870TIP3    H235806   2.871   4.660  19.987 -0.3620 -1.8082  0.1668
 3871TIP3   OH235807   3.788   0.120  17.260 -0.0993  0.1546 -0.4437
 3871TIP3    H135808   3.826   0.034  17.246 -1.2404 -0.9413  2.4480
 3871TIP3    H235809   3.843   0.179  17.208  1.6111 -2.0916 -1.3510
 3872TIP3   OH235810   4.285   0.756  20.760  0.1917  0.1890 -0.3018
 3872TIP3    H135811   4.192   0.743  20.741  0.3000  0.2909 -0.9340
 3872TIP3    H235812   4.327   0.674  20.734 -0.0612 -1.0533  2.7500
 3873TIP3   OH235813   5.605   3.698  19.532 -0.4230 -0.2358  0.5376
 3873TIP3    H135814   5.523   3.651  19.515  0.8523 -2.5443  0.3518
 3873TIP3    H235815   5.656   3.686  19.453  0.6307 -0.0034  1.1677
 3874TIP3   OH235816   5.886   3.142  19.902 -0.3698  0.1215 -0.4873
 3874TIP3    H135817   5.814   3.190  19.861 -0.4823  0.8029  0.4913
 3874TIP3    H235818   5.942   3.117  19.828  0.0981  2.4184 -0.9901
 3875TIP3   OH235819   3.202   2.573  20.490 -0.4015 -0.1883  0.0888
 3875TIP3    H135820   3.208   2.518  20.568 -2.7115 -0.9321 -0.1698
 3875TIP3    H235821   3.165   2.516  20.423 -0.3520  0.9714 -0.9736
 3876TIP3   OH235822   0.810   6.642  19.422  0.2373 -0.3788  0.6664
 3876TIP3    H135823   0.719   6.636  19.393  0.4323 -0.6753  0.1005
 3876TIP3    H235824   0.853   6.694  19.354  0.5262 -0.3899  0.8403
 3877TIP3   OH235825   3.224   3.538  19.800 -0.1732 -0.0058 -0.0585
 3877TIP3    H135826   3.284   3.594  19.848  0.1746  0.0716 -0.5808
 3877TIP3    H235827   3.171   3.598  19.747  1.8979 -0.2394 -2.6028
 3878TIP3   OH235828   3.011   2.214  18.472  0.7774  1.1378 -0.3404
 3878TIP3    H135829   3.028   2.125  18.504 -0.7631  1.0003  0.1831
 3878TIP3    H235830   3.011   2.269  18.550 -0.6186  1.1953 -0.3601
 3879TIP3   OH235831   2.850   0.803  20.758  0.1092  0.2250 -0.1257
 3879TIP3    H135832   2.756   0.811  20.774 -0.1596  0.0147 -1.4411
 3879TIP3    H235833   2.868   0.710  20.769  0.1714  0.2786  0.2085
 3880TIP3   OH235834   4.894   5.875  20.167  0.2808 -0.6124  0.0427
 3880TIP3    H135835   4.841   5.923  20.103  0.9226  0.1676  0.0726
 3880TIP3    H235836   4.972   5.849  20.119  1.2902  0.9597  0.7531
 3881TIP3   OH235837   4.631   2.434  19.419 -0.1907 -0.8543  0.3923
 3881TIP3    H135838   4.597   2.404  19.335 -2.1378  0.4254  0.6681
 3881TIP3    H235839   4.695   2.501  19.396 -1.8141  0.5968 -0.1070
 3882TIP3   OH235840   3.454   4.424  19.448  0.5860 -0.4029 -0.8276
 3882TIP3    H135841   3.481   4.352  19.505 -1.3912 -0.2600  0.3852
 3882TIP3    H235842   3.393   4.383  19.386 -0.1182  0.1223 -0.4851
 3883TIP3   OH235843   5.740   4.680  20.484  0.0905  0.1185 -0.6720
 3883TIP3    H135844   5.758   4.742  20.413  0.2126 -1.0143 -1.6521
 3883TIP3    H235845   5.645   4.683  20.495  0.2523  2.1380  0.8671
 3884TIP3   OH235846   2.364   4.703  20.334  0.3902 -0.1364  0.5845
 3884TIP3    H135847   2.394   4.665  20.417  0.4760  1.4772  1.3209
 3884TIP3    H235848   2.441   4.696  20.277  0.7436 -0.1065  1.0443
 3885TIP3   OH235849   2.408   2.711  19.639  0.5205  0.2129 -0.2405
 3885TIP3    H135850   2.316   2.706  19.612  0.4274 -0.7186  0.2229
 3885TIP3    H235851   2.420   2.636  19.697  1.8129 -0.1582 -0.9780
 3886TIP3   OH235852   0.459   1.313  18.179 -0.0968  0.1042 -0.5214
 3886TIP3    H135853   0.400   1.346  18.111  0.4911  0.4762 -0.8581
 3886TIP3    H235854   0.407   1.247  18.226 -0.5877  0.0093 -1.1822
 3887TIP3   OH235855   3.528   2.593  17.629 -0.0579  0.3212 -0.1251
 3887TIP3    H135856   3.528   2.499  17.612  0.6594  0.3077 -0.0605
 3887TIP3    H235857   3.613   2.624  17.598 -1.0651  1.3262 -2.0741
 3888TIP3   OH235858   5.053   0.449  20.091  0.3520 -0.3965 -0.0558
 3888TIP3    H135859   5.034   0.414  20.004 -1.1087 -0.6988  0.3549
 3888TIP3    H235860   5.030   0.378  20.151  0.4146  0.1475  0.6245
 3889TIP3   OH235861   0.421   6.597  19.586 -0.0818  0.5357  0.0777
 3889TIP3    H135862   0.496   6.609  19.644 -1.5839  0.9035  2.0550
 3889TIP3    H235863   0.394   6.506  19.601 -0.8002  0.7929  0.4073
 3890TIP3   OH235864   3.427   5.859  19.427 -0.3396 -0.1871  0.4008
 3890TIP3    H135865   3.426   5.773  19.383 -1.4816  0.2061 -0.3965
 3890TIP3    H235866   3.475   5.844  19.508  1.1734 -1.1334 -0.6179
 3891TIP3   OH235867   3.392   0.057  19.645  0.5201 -0.5168 -0.1212
 3891TIP3    H135868   3.439   0.051  19.562  0.3502  0.9295 -0.3454
 3891TIP3    H235869   3.433   0.131  19.691 -0.1683 -0.5466  0.5656
 3892TIP3   OH235870   6.136   3.451  18.116 -0.6941 -0.3156  0.2879
 3892TIP3    H135871   6.217   3.468  18.069 -1.1364 -1.8449 -1.1383
 3892TIP3    H235872   6.079   3.524  18.093 -0.8620 -0.9602 -1.5725
 3893TIP3   OH235873   2.935   3.860  17.589 -0.0725  0.0695 -0.2586
 3893TIP3    H135874   2.845   3.864  17.559 -0.5684 -0.4663  1.0653
 3893TIP3    H235875   2.988   3.854  17.509 -1.1547  1.0324 -1.0659
 3894TIP3   OH235876   2.711   2.985  18.481  0.2542  0.3676 -1.5826
 3894TIP3    H135877   2.762   3.029  18.548 -1.7469  2.6841 -1.4522
 3894TIP3    H235878   2.728   2.892  18.495  0.2703  0.7782  1.8292
 3895TIP3   OH235879   1.262   3.580  18.933 -0.1515 -0.0222 -0.3265
 3895TIP3    H135880   1.288   3.667  18.904 -1.9907  0.2825 -1.2600
 3895TIP3    H235881   1.339   3.544  18.978  1.1691  1.4449 -1.3380
 3896TIP3   OH235882   3.038   5.712  18.226  0.5951 -0.2122 -0.4465
 3896TIP3    H135883   2.968   5.751  18.174  0.1795 -1.6686 -1.0249
 3896TIP3    H235884   3.001   5.705  18.314 -1.0442 -3.2128 -1.2017
 3897TIP3   OH235885   1.835   4.267  20.544 -0.6777  0.5696  0.5205
 3897TIP3    H135886   1.865   4.302  20.460  1.1639 -1.1176  0.4107
 3897TIP3    H235887   1.825   4.344  20.600  1.0697  1.4900 -0.3578
 3898TIP3   OH235888   4.707   3.474  19.521  0.2507 -0.0384 -0.2781
 3898TIP3    H135889   4.637   3.531  19.489  0.6306  0.1602 -0.7684
 3898TIP3    H235890   4.782   3.533  19.535  0.5321 -0.3568 -0.4317
 3899TIP3   OH235891   5.477   2.800  17.828 -0.2454 -0.1269 -0.4098
 3899TIP3    H135892   5.493   2.850  17.747  0.3269 -2.2262 -1.6858
 3899TIP3    H235893   5.559   2.753  17.843 -0.8540 -0.9155  0.5505
 3900TIP3   OH235894   4.549   0.899  19.839  0.1657  0.0859  0.4226
 3900TIP3    H135895   4.534   0.988  19.869  0.2521  0.7442 -1.4021
 3900TIP3    H235896   4.480   0.847  19.881 -1.9855  1.5874 -1.0394
 3901TIP3   OH235897   0.298   0.606  17.838 -0.0568  0.4718  0.2777
 3901TIP3    H135898   0.393   0.593  17.841 -0.2212 -1.1682 -0.5745
 3901TIP3    H235899   0.287   0.700  17.853  1.6518  0.6014  1.0274
 3902TIP3   OH235900   1.223   6.663  20.051  0.8684  0.0863 -0.0605
 3902TIP3    H135901   1.312   6.635  20.032  0.9157 -0.4447  0.8681
 3902TIP3    H235902   1.190   6.597  20.113  0.4224  1.1954  0.9185
 3903TIP3   OH235903   4.070   1.965  19.273  0.5177 -0.0131  0.2407
 3903TIP3    H135904   4.164   1.956  19.283  0.6277  0.3586 -0.3878
 3903TIP3    H235905   4.033   1.891  19.321  1.0532  0.6609  1.7298
 3904TIP3   OH235906   1.519   4.268  20.044  0.3435  0.4034  0.1696
 3904TIP3    H135907   1.457   4.201  20.073 -1.4998  1.5668 -0.9281
 3904TIP3    H235908   1.496   4.346  20.095  0.4277  1.0504 -0.7680
 3905TIP3   OH235909   3.777   1.107  17.188  0.0144  0.1069  0.1970
 3905TIP3    H135910   3.815   1.023  17.218 -0.6565 -0.0620  0.5870
 3905TIP3    H235911   3.851   1.168  17.192  0.3197 -0.2775  0.6968
 3906TIP3   OH235912   0.887   1.198  20.270  0.3620 -0.5694 -0.0337
 3906TIP3    H135913   0.969   1.201  20.221  0.4973 -0.2107  0.2152
 3906TIP3    H235914   0.830   1.262  20.228 -0.6576 -2.4729 -1.7259
 3907TIP3   OH235915   2.097   6.594  17.636 -0.4204  0.3927 -0.4396
 3907TIP3    H135916   2.086   6.502  17.662 -0.9731  0.6963  0.4832
 3907TIP3    H235917   2.186   6.617  17.666 -0.9619  0.6690  1.0770
 3908TIP3   OH235918   1.081   5.814  19.315  0.0077  0.0967 -0.6003
 3908TIP3    H135919   1.082   5.794  19.222 -0.8636 -0.7652 -0.4408
 3908TIP3    H235920   1.000   5.863  19.328  0.8345  1.5129 -0.5218
 3909TIP3   OH235921   0.284   4.318  17.906  0.4298  0.7408 -0.0578
 3909TIP3    H135922   0.269   4.338  17.813 -0.4013  1.4249  0.2093
 3909TIP3    H235923   0.367   4.360  17.927  0.8137  0.2553 -0.5884
 3910TIP3   OH235924   5.178   5.197  18.606  0.9965 -0.1557  0.0719
 3910TIP3    H135925   5.178   5.275  18.662 -2.1598 -0.4887  0.6927
 3910TIP3    H235926   5.168   5.230  18.517 -0.8350  0.1812  0.3786
 3911TIP3   OH235927   0.303   5.667  19.493  0.9085 -0.1661 -0.4718
 3911TIP3    H135928   0.209   5.663  19.472  0.6635  1.6569  0.1093
 3911TIP3    H235929   0.330   5.575  19.497 -1.5809 -0.9381  2.5632
 3912TIP3   OH235930   5.907   2.517  19.691 -0.0953 -0.1095 -0.4392
 3912TIP3    H135931   5.843   2.547  19.755 -1.3948 -0.5196 -1.5060
 3912TIP3    H235932   5.992   2.528  19.734 -0.9488 -0.7087  1.4696
 3913TIP3   OH235933   1.700   4.264  19.426 -0.4082  0.1513 -0.0533
 3913TIP3    H135934   1.703   4.331  19.494 -0.0422  0.7036 -0.6098
 3913TIP3    H235935   1.778   4.211  19.441 -1.0074 -0.5258  0.7561
 3914TIP3   OH235936   0.715   5.215  18.396 -0.1647 -0.0055 -0.2513
 3914TIP3    H135937   0.685   5.305  18.409 -1.2618 -0.4501  0.4688
 3914TIP3    H235938   0.748   5.187  18.481 -1.5240 -0.8552  0.0453
 3915TIP3   OH235939   4.700   6.659  20.878  0.4687 -0.2578  0.1782
 3915TIP3    H135940   4.671   6.602  20.949  2.5517 -0.8673  0.5955
 3915TIP3    H235941   4.788   6.629  20.857  0.2559  0.4848 -2.0841
 3916TIP3   OH235942   1.099   5.447  18.635  0.1988  0.1162  0.4994
 3916TIP3    H135943   1.172   5.458  18.697  0.6739  0.3851 -0.1042
 3916TIP3    H235944   1.077   5.536  18.608 -0.1769  0.0158  0.4766
 3917TIP3   OH235945   3.052   6.347  19.359 -0.1818 -0.2135  0.1109
 3917TIP3    H135946   2.984   6.392  19.308 -2.2204 -3.3991 -0.2069
 3917TIP3    H235947   3.051   6.391  19.444 -0.1052  2.0441 -0.9759
 3918TIP3   OH235948   5.124   0.639  17.154  0.5017  0.0293 -0.7409
 3918TIP3    H135949   5.035   0.610  17.175  0.6765 -0.4091 -0.6040
 3918TIP3    H235950   5.166   0.561  17.117  1.1354 -0.0407  0.1016
 3919TIP3   OH235951   4.943   0.250  20.248  0.5127 -0.2374 -0.0717
 3919TIP3    H135952   5.008   0.180  20.254 -0.1865 -0.8724  0.3514
 3919TIP3    H235953   4.904   0.253  20.335 -1.4524 -1.3040 -0.8489
 3920TIP3   OH235954   1.549   1.732  20.602  0.0215  0.3523  0.7031
 3920TIP3    H135955   1.576   1.817  20.636  0.7605  0.5801 -0.3960
 3920TIP3    H235956   1.627   1.678  20.609  0.1170  0.3317 -0.3571
 3921TIP3   OH235957   0.287   1.507  18.322  0.0692 -0.2905 -0.2343
 3921TIP3    H135958   0.231   1.470  18.390 -0.1051 -0.3296 -0.4001
 3921TIP3    H235959   0.345   1.435  18.297 -1.2329 -0.9067 -1.5948
 3922TIP3   OH235960   1.869   6.084  18.751 -0.1114  0.0375 -0.5025
 3922TIP3    H135961   1.927   6.010  18.771 -0.0808  0.5147  1.3624
 3922TIP3    H235962   1.788   6.064  18.798  0.7833  2.3490  2.3202
 3923TIP3   OH235963   3.975   2.441  19.267 -0.1200  0.2266 -0.4332
 3923TIP3    H135964   4.048   2.460  19.325  0.5518 -0.7584 -0.9274
 3923TIP3    H235965   3.949   2.527  19.232 -0.0190  0.7319  0.6761
 3924TIP3   OH235966   0.547   5.483  19.936 -0.5763  0.3141 -0.1747
 3924TIP3    H135967   0.570   5.468  20.028 -0.8181 -1.6605 -0.3884
 3924TIP3    H235968   0.624   5.527  19.899 -0.2541  0.6389  0.8312
 3925TIP3   OH235969   4.715   1.021  17.029 -0.3952  0.2594  0.6193
 3925TIP3    H135970   4.620   1.031  17.025 -0.6852 -2.1398 -0.2594
 3925TIP3    H235971   4.728   0.936  17.071  1.2854 -0.2353 -0.7867
 3926TIP3   OH235972   6.050   4.481  17.382 -0.2267 -0.8757 -0.5614
 3926TIP3    H135973   5.983   4.535  17.424  1.2197 -1.3885  2.6911
 3926TIP3    H235974   6.028   4.391  17.405  1.2843 -1.0810  0.2407
 3927TIP3   OH235975   0.297   1.708  18.888 -0.1220  0.4370  0.5738
 3927TIP3    H135976   0.386   1.680  18.871 -0.6127  0.1971 -2.2107
 3927TIP3    H235977   0.243   1.647  18.837 -1.6927  1.8541  0.4530
 3928TIP3   OH235978   3.616   2.003  19.368 -0.4639 -0.5671 -0.5065
 3928TIP3    H135979   3.677   2.028  19.438 -1.0133 -0.4979 -0.0414
 3928TIP3    H235980   3.536   1.977  19.415 -1.5458  1.4199 -1.1730
 3929TIP3   OH235981   6.102   5.465  20.076  0.0273  0.5197  0.0158
 3929TIP3    H135982   6.011   5.491  20.096 -0.9023 -3.5397  2.1749
 3929TIP3    H235983   6.152   5.496  20.152 -0.8829 -2.4871  2.0442
 3930TIP3   OH235984   6.726   4.540  20.075  0.4423 -0.5612 -0.0312
 3930TIP3    H135985   6.743   4.487  19.998  2.8269  1.7236 -1.2178
 3930TIP3    H235986   6.726   4.478  20.148  1.4068 -2.3699 -1.5072
 3931TIP3   OH235987   4.156   4.629  20.541  0.9577  0.4269 -0.3657
 3931TIP3    H135988   4.137   4.628  20.447  0.0081  0.2841 -0.1788
 3931TIP3    H235989   4.119   4.712  20.572  1.1822  0.4281 -0.1003
 3932TIP3   OH235990   6.603   4.284  20.506  0.4374  0.4977  0.5335
 3932TIP3    H135991   6.511   4.289  20.531 -0.1415 -0.1485 -1.2925
 3932TIP3    H235992   6.609   4.336  20.426  0.9273 -2.0736 -1.1958
 3933TIP3   OH235993   5.057   2.227  18.122 -0.2847 -0.5909 -0.3138
 3933TIP3    H135994   5.025   2.267  18.041  0.9128 -1.0509 -1.0363
 3933TIP3    H235995   5.129   2.283  18.151 -0.6355 -0.4876  0.3845
 3934TIP3   OH235996   5.405   2.611  18.374 -0.1099 -0.1092  0.2121
 3934TIP3    H135997   5.440   2.700  18.381 -0.9144  0.6639 -3.3029
 3934TIP3    H235998   5.481   2.556  18.354  0.2584 -0.0772  1.4663
 3935TIP3   OH235999   1.192   5.215  20.513 -0.0586  0.3255 -0.3748
 3935TIP3    H136000   1.267   5.272  20.498  1.5277 -0.7987  2.5701
 3935TIP3    H236001   1.126   5.273  20.552  0.5727  0.6764  0.1996
 3936TIP3   OH236002   2.221   3.953  19.745  0.0766 -0.1277  0.1988
 3936TIP3    H136003   2.235   4.032  19.694 -1.0185  0.7489  1.2001
 3936TIP3    H236004   2.163   3.899  19.690 -0.5433  0.5074  0.2197
 3937TIP3   OH236005   1.965   4.553  20.529 -0.1202  0.1623  0.1857
 3937TIP3    H136006   2.004   4.600  20.456  0.3425  0.7290  0.7788
 3937TIP3    H236007   1.912   4.619  20.574 -0.6862 -0.2665  0.1610
 3938TIP3   OH236008   2.463   5.273  20.460 -0.4935 -0.2853  0.0174
 3938TIP3    H136009   2.505   5.199  20.417  1.0367  0.6156 -0.1330
 3938TIP3    H236010   2.473   5.345  20.398 -0.7500  0.3661  0.7181
 3939TIP3   OH236011   6.002   1.982  19.163 -0.2666  0.3448  0.0575
 3939TIP3    H136012   5.963   2.048  19.220  0.1739 -1.1367  2.1896
 3939TIP3    H236013   6.095   2.005  19.159  0.2776 -1.0338  2.3393
 3940TIP3   OH236014   1.236   3.169  20.491 -0.0519 -0.4253 -0.4613
 3940TIP3    H136015   1.262   3.249  20.445 -0.6592  1.8926  2.8662
 3940TIP3    H236016   1.307   3.153  20.552 -0.6170 -1.6006 -0.0960
 3941TIP3   OH236017   2.704   6.454  19.490  0.0403  0.2171 -0.0865
 3941TIP3    H136018   2.787   6.435  19.534  0.5231 -0.4298 -1.2301
 3941TIP3    H236019   2.727   6.463  19.397 -0.8364  2.1973 -0.1852
 3942TIP3   OH236020   5.972   6.011  19.606  0.2789  0.3147 -0.7667
 3942TIP3    H136021   5.882   5.995  19.577 -0.4784  0.1072  1.5157
 3942TIP3    H236022   5.975   6.104  19.627  0.1523  0.0292  0.5556
 3943TIP3   OH236023   2.788   1.095  18.901  0.0997  0.4605  0.0087
 3943TIP3    H136024   2.706   1.128  18.936 -0.5490  0.6589 -1.6205
 3943TIP3    H236025   2.854   1.160  18.926 -0.3707  0.7041  0.6259
 3944TIP3   OH236026   4.469   3.878  20.681  1.2833  0.2300  0.0456
 3944TIP3    H136027   4.529   3.953  20.679  0.9163  0.5635  1.0478
 3944TIP3    H236028   4.520   3.808  20.723  1.1667  0.3419  0.3774
 3945TIP3   OH236029   1.939   4.661  19.013 -0.5265 -0.5655  0.0577
 3945TIP3    H136030   1.926   4.570  18.988 -0.2515 -0.7124  0.4513
 3945TIP3    H236031   1.952   4.659  19.108  0.9825 -0.2809 -0.1188
 3946TIP3   OH236032   0.314   5.408  18.520  0.3158 -0.0205  0.0034
 3946TIP3    H136033   0.238   5.387  18.466 -0.2526 -1.0289  1.1403
 3946TIP3    H236034   0.389   5.381  18.468 -0.2498 -1.6284 -0.0442
 3947TIP3   OH236035   0.359   5.996  19.750  0.1138 -0.4043  0.1877
 3947TIP3    H136036   0.393   5.980  19.838 -0.3478  0.5848  0.5599
 3947TIP3    H236037   0.435   6.026  19.700  0.4912 -1.4893  0.0955
 3948TIP3   OH236038   3.451   2.892  17.456 -0.2665  0.0295 -0.2956
 3948TIP3    H136039   3.444   2.810  17.406 -0.5991 -1.2870  1.7942
 3948TIP3    H236040   3.546   2.905  17.467 -0.1871 -1.5720  1.5570
 3949TIP3   OH236041   3.530   0.421  19.350 -0.6358  0.2605  0.1822
 3949TIP3    H136042   3.604   0.477  19.327  0.4327 -1.7501 -1.6832
 3949TIP3    H236043   3.480   0.472  19.413  1.4472  2.3705  0.2757
 3950TIP3   OH236044   0.795   0.134  19.554  0.5973 -0.2590 -0.6618
 3950TIP3    H136045   0.701   0.149  19.544  0.2159 -1.5245  0.6918
 3950TIP3    H236046   0.812   0.055  19.502  0.4266 -1.3705  0.9069
 3951TIP3   OH236047   4.496   1.729  17.552 -0.0045  0.1735 -0.5771
 3951TIP3    H136048   4.533   1.817  17.549  0.0668  0.1549 -0.3042
 3951TIP3    H236049   4.571   1.671  17.546  0.0026  0.1350 -0.1682
 3952TIP3   OH236050   4.109   4.472  19.996 -0.2968  0.6476 -0.3925
 3952TIP3    H136051   4.085   4.507  19.910  1.1732  0.7270 -0.8058
 3952TIP3    H236052   4.026   4.453  20.039 -1.0656  0.1918 -2.0108
 3953TIP3   OH236053   4.502   1.140  18.329  0.6875 -0.4132 -0.2311
 3953TIP3    H136054   4.502   1.083  18.252 -1.2387 -1.1118  0.2254
 3953TIP3    H236055   4.467   1.223  18.296 -0.1644 -0.7204 -0.1328
 3954TIP3   OH236056   1.369   5.960  20.664  0.8096  0.2899  0.6053
 3954TIP3    H136057   1.367   6.054  20.646  1.1565 -0.1015 -1.8319
 3954TIP3    H236058   1.447   5.948  20.718  2.9366  1.0451 -2.0735
 3955TIP3   OH236059   0.790   5.117  20.266  0.4767  0.1951 -0.2778
 3955TIP3    H136060   0.706   5.153  20.296  0.4972 -0.3332  0.4539
 3955TIP3    H236061   0.850   5.191  20.269  0.1885  0.4281 -0.1534
 3956TIP3   OH236062   5.984   0.638  19.177 -0.2170  0.0665  0.5493
 3956TIP3    H136063   5.913   0.676  19.125 -0.3142 -0.5860  0.1940
 3956TIP3    H236064   6.028   0.578  19.117  0.2242 -0.0251  0.9624
 3957TIP3   OH236065   2.694   5.037  18.068 -0.5533 -0.4639 -0.0913
 3957TIP3    H136066   2.617   4.992  18.032 -1.2217  0.5635  0.0055
 3957TIP3    H236067   2.679   5.040  18.162 -0.6913  0.2530 -0.1288
 3958TIP3   OH236068   6.223   1.846  18.846  0.3440  0.4556  0.1690
 3958TIP3    H136069   6.265   1.922  18.887  0.4650  0.4532  0.0476
 3958TIP3    H236070   6.295   1.797  18.806  0.0552  1.3404 -1.5183
 3959TIP3   OH236071   4.888   0.140  19.848 -0.3373  0.1391 -0.1476
 3959TIP3    H136072   4.928   0.070  19.900 -0.9772 -0.4686 -0.4591
 3959TIP3    H236073   4.897   0.110  19.757  1.1948  1.4095 -0.4508
 3960TIP3   OH236074   4.104   3.789  17.790 -0.1407  0.0322 -0.2558
 3960TIP3    H136075   4.165   3.798  17.717 -0.3363  1.5966 -0.2595
 3960TIP3    H236076   4.018   3.802  17.750 -0.4148 -1.0303 -0.0538
 3961TIP3   OH236077   4.290   1.081  19.118  0.1735 -0.4132  0.2733
 3961TIP3    H136078   4.273   1.120  19.204  0.5691  0.4195 -0.0150
 3961TIP3    H236079   4.254   1.144  19.056  1.4408 -0.1692 -0.2272
 3962TIP3   OH236080   4.327   5.813  17.724  0.2105 -0.2380 -0.2966
 3962TIP3    H136081   4.407   5.857  17.754  1.5827 -3.1868  0.8118
 3962TIP3    H236082   4.338   5.805  17.630 -0.5851  2.5664 -0.7087
 3963TIP3   OH236083   1.768   0.716  20.158  0.4363  0.2911 -0.5311
 3963TIP3    H136084   1.826   0.707  20.082  0.6764  0.1723 -0.3366
 3963TIP3    H236085   1.691   0.762  20.125  2.0409  3.6184 -0.0978
 3964TIP3   OH236086   5.243   6.307  17.882  0.2998 -0.2543 -0.1983
 3964TIP3    H136087   5.195   6.364  17.941 -0.8612 -0.7354 -0.6385
 3964TIP3    H236088   5.220   6.218  17.911 -1.7121 -0.5611 -2.3426
 3965TIP3   OH236089   4.692   6.528  19.519 -0.3350  0.1108  0.0246
 3965TIP3    H136090   4.637   6.600  19.550 -1.1199 -0.8164  0.8662
 3965TIP3    H236091   4.630   6.457  19.502  0.4603 -0.4875 -0.4295
 3966TIP3   OH236092   5.969   0.013  19.119  0.2771  0.3924 -0.3525
 3966TIP3    H136093   5.894   0.050  19.165  0.7135  1.0472 -0.1510
 3966TIP3    H236094   5.945   0.017  19.027  0.3458  1.2891 -0.3470
 3967TIP3   OH236095   4.006   3.139  20.211  0.0202  0.2988 -0.0865
 3967TIP3    H136096   3.952   3.215  20.234  0.1477  0.8238 -1.3910
 3967TIP3    H236097   4.010   3.141  20.115 -0.8700 -1.9886 -0.2353
 3968TIP3   OH236098   4.078   1.060  20.195 -0.3895  0.1828 -0.2935
 3968TIP3    H136099   3.983   1.062  20.186 -0.3701 -0.9292 -0.9109
 3968TIP3    H236100   4.110   1.037  20.108  0.4458  0.5048 -0.0815
 3969TIP3   OH236101   5.853   3.360  18.767  0.0999 -0.2074 -0.4653
 3969TIP3    H136102   5.881   3.328  18.853  1.4271  0.5242 -0.5860
 3969TIP3    H236103   5.767   3.321  18.752 -0.3676  0.0350  1.4090
 3970TIP3   OH236104   5.272   5.437  18.723 -0.7215  0.0737 -0.0501
 3970TIP3    H136105   5.261   5.507  18.658  1.6675  3.3260  2.7018
 3970TIP3    H236106   5.235   5.473  18.804 -0.6441 -2.4912  1.2231
 3971TIP3   OH236107   4.067   3.102  20.903  0.7556  0.0730 -0.1298
 3971TIP3    H136108   4.018   3.030  20.942  0.9998 -1.1352 -1.9397
 3971TIP3    H236109   4.148   3.062  20.872  0.8647  1.1135 -1.2682
 3972TIP3   OH236110   2.925   4.747  17.863  0.4029 -0.0362 -0.0808
 3972TIP3    H136111   2.980   4.808  17.913 -0.3098  0.4546  0.1296
 3972TIP3    H236112   2.884   4.803  17.797 -1.3437  0.0068  0.9918
 3973TIP3   OH236113   0.481   2.221  19.430  0.5916  0.3836 -0.0936
 3973TIP3    H136114   0.444   2.186  19.349  0.4362  0.1157  0.0916
 3973TIP3    H236115   0.442   2.309  19.438  2.8676  1.6755 -1.8525
 3974TIP3   OH236116   0.426   3.867  18.808 -0.3719  0.2585 -0.0354
 3974TIP3    H136117   0.474   3.794  18.769 -0.6047  0.5476 -0.8966
 3974TIP3    H236118   0.348   3.877  18.752 -0.7935  0.5918  0.5982
 3975TIP3   OH236119   1.075   0.715  19.237 -0.5116  0.0921  0.1890
 3975TIP3    H136120   1.023   0.700  19.316  1.1523 -1.0561  1.1240
 3975TIP3    H236121   1.046   0.648  19.176 -0.3764 -0.3398  0.5894
 3976TIP3   OH236122   1.394   3.637  18.425  0.1286  0.5120 -0.0433
 3976TIP3    H136123   1.412   3.600  18.511 -0.5328  0.6319  0.1475
 3976TIP3    H236124   1.454   3.711  18.418  0.8293 -0.0419 -0.0653
 3977TIP3   OH236125   6.356   0.695  19.782  0.7527 -0.7912 -0.6720
 3977TIP3    H136126   6.317   0.782  19.793  1.8380 -0.3286 -0.3304
 3977TIP3    H236127   6.326   0.666  19.696  0.6592  0.0831 -0.9463
 3978TIP3   OH236128   5.077   1.117  17.183  0.1740  0.5109 -0.0273
 3978TIP3    H136129   5.048   1.122  17.092  2.6413 -0.0478 -0.9105
 3978TIP3    H236130   5.062   1.206  17.217  1.0561  1.3011 -1.5953
 3979TIP3   OH236131   2.585   3.243  19.857  0.1746 -0.4486  0.6672
 3979TIP3    H136132   2.677   3.262  19.872  0.3626 -0.2950 -0.5743
 3979TIP3    H236133   2.580   3.148  19.849 -0.0435 -0.5968  2.3339
 3980TIP3   OH236134   1.599   4.256  18.601 -0.0768  0.2099 -0.0310
 3980TIP3    H136135   1.610   4.254  18.696  1.7355 -1.1323 -0.2141
 3980TIP3    H236136   1.615   4.347  18.576  0.0874  0.4417  0.9026
 3981TIP3   OH236137   5.646   2.777  18.852  0.1962  0.6280  0.4122
 3981TIP3    H136138   5.647   2.780  18.756 -0.5107 -3.0642  0.1522
 3981TIP3    H236139   5.563   2.820  18.876  0.3570  1.5591 -0.5773
 3982TIP3   OH236140   6.711   1.451  19.188 -0.4557 -0.1628  0.4929
 3982TIP3    H136141   6.772   1.512  19.147 -0.0807 -0.8935 -0.0621
 3982TIP3    H236142   6.654   1.506  19.242 -0.9617  0.8214 -1.0012
 3983TIP3   OH236143   2.336   4.681  19.367  1.0176  0.0267  0.4417
 3983TIP3    H136144   2.253   4.685  19.416 -0.8119  0.0582 -2.4178
 3983TIP3    H236145   2.340   4.591  19.335  0.4335  0.7655 -1.9329
 3984TIP3   OH236146   1.217   2.330  20.376 -0.0550  0.5354  0.1135
 3984TIP3    H136147   1.242   2.239  20.360 -0.8444  0.3741 -0.2223
 3984TIP3    H236148   1.122   2.329  20.383  0.0514  0.8504  3.1254
 3985TIP3   OH236149   1.742   6.332  19.985 -0.1676 -0.6346 -0.4009
 3985TIP3    H136150   1.729   6.414  19.937  2.8362 -0.8812 -1.8510
 3985TIP3    H236151   1.700   6.265  19.931 -0.2614 -0.3868 -0.6370
 3986TIP3   OH236152   3.587   4.891  18.901 -0.2125  0.1326  0.2497
 3986TIP3    H136153   3.549   4.808  18.930  1.1080  0.4010  3.2290
 3986TIP3    H236154   3.517   4.955  18.913 -0.1007  0.0073  1.8216
 3987TIP3   OH236155   1.650   3.120  18.945 -0.1793 -0.3996  0.0133
 3987TIP3    H136156   1.658   3.112  18.850 -1.1462 -0.3464 -0.0864
 3987TIP3    H236157   1.609   3.038  18.972 -0.5314 -0.1352  0.2933
 3988TIP3   OH236158   4.148   1.395  20.030  0.3733 -0.3962  0.0101
 3988TIP3    H136159   4.157   1.384  19.935  0.4011  1.7166 -0.2739
 3988TIP3    H236160   4.224   1.348  20.066  0.7453 -0.6466 -1.0517
 3989TIP3   OH236161   3.364   0.855  19.277  0.0593 -0.4675 -0.3499
 3989TIP3    H136162   3.435   0.865  19.214  2.1770 -0.1900  1.9384
 3989TIP3    H236163   3.392   0.784  19.334 -1.1070  0.1827  1.1011
 3990TIP3   OH236164   3.177   6.144  18.986  0.7936 -0.6656  0.4482
 3990TIP3    H136165   3.153   6.078  19.051  0.4308 -0.3456  0.6467
 3990TIP3    H236166   3.234   6.204  19.034  0.4162 -0.3540  0.5125
 3991TIP3   OH236167   1.577   0.849  18.050 -0.3216 -0.7500 -0.0364
 3991TIP3    H136168   1.483   0.854  18.033 -0.4560  0.3428  0.8876
 3991TIP3    H236169   1.612   0.932  18.016  0.4241 -1.4084 -0.9369
 3992TIP3   OH236170   6.606   0.631  19.879  0.3376  0.3858  0.3638
 3992TIP3    H136171   6.523   0.660  19.841  0.9685  1.4793 -0.2352
 3992TIP3    H236172   6.641   0.709  19.923  1.5012  0.2235 -0.2242
 3993TIP3   OH236173   2.046   0.302  19.664  0.5787  0.0333  0.5610
 3993TIP3    H136174   2.041   0.390  19.626 -0.1300  0.1968  1.0027
 3993TIP3    H236175   1.955   0.273  19.669  0.8824 -1.3606 -0.9870
 3994TIP3   OH236176   3.562   4.091  20.467  0.1939 -0.0542 -0.2455
 3994TIP3    H136177   3.535   4.105  20.376  0.6544 -1.1798 -0.5759
 3994TIP3    H236178   3.595   4.001  20.468 -0.3409 -0.2560  1.1687
 3995TIP3   OH236179   4.058   6.309  18.759  0.1982 -0.1310 -0.2611
 3995TIP3    H136180   3.973   6.330  18.796  1.0071 -0.4591  1.9008
 3995TIP3    H236181   4.045   6.315  18.664 -2.4362 -1.0812 -0.0320
 3996TIP3   OH236182   6.310   0.191  18.232 -0.0544 -0.9046 -0.4144
 3996TIP3    H136183   6.306   0.119  18.295  3.5483 -0.7810  0.1607
 3996TIP3    H236184   6.401   0.192  18.201 -0.1770  2.7282 -1.1864
 3997TIP3   OH236185   2.365   0.381  16.981 -0.0203 -0.2128 -0.3652
 3997TIP3    H136186   2.374   0.286  16.985  0.7539 -0.1640 -0.6631
 3997TIP3    H236187   2.301   0.402  17.048  0.1881 -0.9023  0.0641
 3998TIP3   OH236188   1.403   5.514  18.396  0.8204 -0.2284  0.3237
 3998TIP3    H136189   1.439   5.427  18.414  1.8051 -0.2923 -1.6566
 3998TIP3    H236190   1.353   5.503  18.315 -0.5709  0.6955  1.0168
 3999TIP3   OH236191   1.031   5.255  18.436 -0.0668 -0.5468  0.1528
 3999TIP3    H136192   1.036   5.316  18.510 -0.7796 -0.9817  0.5742
 3999TIP3    H236193   1.122   5.235  18.416  0.1992  1.0511 -0.3437
 4000TIP3   OH236194   3.604   2.578  20.912  0.6283 -0.3598 -0.1017
 4000TIP3    H136195   3.597   2.580  20.816  0.3051  0.2211 -0.0715
 4000TIP3    H236196   3.643   2.662  20.935  1.1589 -0.6936  0.2508
 4001TIP3   OH236197   1.757   4.460  18.099  0.3674  0.1553  0.1116
 4001TIP3    H136198   1.788   4.464  18.009 -1.1691  1.0895 -0.4041
 4001TIP3    H236199   1.820   4.513  18.149  1.8079 -1.2040 -0.1935
 4002TIP3   OH236200   3.726   1.831  19.730 -0.9728 -0.2023  0.1211
 4002TIP3    H136201   3.764   1.900  19.784  1.7252 -1.0358 -0.5639
 4002TIP3    H236202   3.724   1.867  19.642  0.1824 -0.8419 -0.1893
 4003TIP3   OH236203   4.920   0.015  19.244  0.3640 -0.4934  0.2120
 4003TIP3    H136204   4.848  -0.048  19.238 -0.1589  0.1037  0.1215
 4003TIP3    H236205   4.934   0.044  19.154 -0.8895  1.1536  0.5089
 4004TIP3   OH236206   5.415   5.149  19.514  0.1150  0.1238 -0.6014
 4004TIP3    H136207   5.344   5.108  19.466 -0.8795  1.2904 -0.1643
 4004TIP3    H236208   5.391   5.241  19.520  1.5913  0.5290 -0.3162
 4005TIP3   OH236209   4.134   4.475  18.317 -0.0167  0.0896  0.1624
 4005TIP3    H136210   4.089   4.491  18.400 -1.8715 -0.5547 -0.6536
 4005TIP3    H236211   4.091   4.397  18.281 -0.4491  1.2887 -2.1600
 4006TIP3   OH236212   3.698   5.480  17.791  0.0398 -0.1284  0.3382
 4006TIP3    H136213   3.776   5.425  17.805 -1.0159 -1.2309  2.3622
 4006TIP3    H236214   3.636   5.422  17.747 -0.4235  0.0161  0.7947
 4007TIP3   OH236215   1.081   1.937  18.953  1.0850 -0.5276  0.3813
 4007TIP3    H136216   1.146   1.867  18.959  1.8589  0.2317  1.0091
 4007TIP3    H236217   1.131   2.016  18.936  0.3376  0.0714  0.8529
 4008TIP3   OH236218   5.871   4.773  18.184 -0.4404  0.4767  0.0389
 4008TIP3    H136219   5.819   4.724  18.120 -0.6873 -0.4021  0.8815
 4008TIP3    H236220   5.819   4.850  18.204 -1.7637 -0.6943  1.3335
 4009TIP3   OH236221   4.092   0.803  18.218 -0.4766 -0.3893  0.0393
 4009TIP3    H136222   4.014   0.815  18.164 -1.7883 -0.0105  1.9164
 4009TIP3    H236223   4.075   0.723  18.268  1.0923 -1.2298 -0.6828
 4010TIP3   OH236224   2.952   2.571  17.964  0.0003  0.0411  0.1753
 4010TIP3    H136225   2.987   2.654  17.933 -1.1766 -0.3862 -2.5997
 4010TIP3    H236226   2.891   2.543  17.895 -1.1044 -2.1928  1.9098
 4011TIP3   OH236227   3.405   1.555  19.507  0.1768 -0.3802 -0.1572
 4011TIP3    H136228   3.362   1.570  19.591 -0.5940  0.8494 -0.7434
 4011TIP3    H236229   3.450   1.471  19.518 -1.7180 -1.3581  0.7640
 4012TIP3   OH236230   5.647   3.438  18.439 -0.0740 -0.4225 -0.2227
 4012TIP3    H136231   5.605   3.496  18.502  1.9784  0.5167  0.3874
 4012TIP3    H236232   5.638   3.483  18.355  1.4424  0.8582  0.2351
 4013TIP3   OH236233   3.027   2.161  18.048 -0.3554 -0.1176 -0.0613
 4013TIP3    H136234   3.058   2.246  18.018  1.0695 -0.9556 -1.0933
 4013TIP3    H236235   3.105   2.116  18.079 -0.8888 -1.4603 -0.5658
 4014TIP3   OH236236   5.414   4.566  18.502  0.0573  0.3980  0.0749
 4014TIP3    H136237   5.362   4.559  18.582 -2.7035  0.8450 -1.5534
 4014TIP3    H236238   5.451   4.479  18.490 -3.2307 -1.0879 -0.4333
 4015TIP3   OH236239   6.261   4.380  18.372  0.0375  0.2229  0.3590
 4015TIP3    H136240   6.234   4.325  18.298  1.7385  1.5259 -1.3084
 4015TIP3    H236241   6.208   4.347  18.446 -2.6044 -0.3779 -1.6304
 4016TIP3   OH236242   3.984   5.667  20.225 -1.0463 -0.1033  0.1136
 4016TIP3    H136243   3.890   5.652  20.228 -0.8091 -2.2065 -0.9323
 4016TIP3    H236244   4.016   5.644  20.312 -1.6189  2.1156  0.9763
 4017TIP3   OH236245   1.467   4.275  19.268 -0.0939  0.0229 -0.1867
 4017TIP3    H136246   1.542   4.245  19.320 -0.7149 -0.7495  0.2920
 4017TIP3    H236247   1.448   4.201  19.209 -2.6580 -1.3220  2.1017
 4018TIP3   OH236248   3.119   1.328  20.999  0.2676 -0.1091 -0.0133
 4018TIP3    H136249   3.162   1.399  20.951 -0.0390  0.6243  0.7771
 4018TIP3    H236250   3.028   1.355  21.005  0.3587 -0.0332  1.2436
 4019TIP3   OH236251   4.412   1.589  17.770 -0.8204  0.1294  0.4626
 4019TIP3    H136252   4.343   1.531  17.737  1.3344 -2.0531 -0.5495
 4019TIP3    H236253   4.468   1.605  17.695 -0.4515  2.2604  1.1390
 4020TIP3   OH236254   0.319   2.921  19.179 -0.3109 -0.4901  0.3308
 4020TIP3    H136255   0.272   2.929  19.095  0.8490 -1.6172 -0.4631
 4020TIP3    H236256   0.284   2.992  19.232 -2.2847 -0.7435 -0.5127
 4021TIP3   OH236257   6.503   2.546  17.684  0.5176  0.1770  0.0110
 4021TIP3    H136258   6.566   2.479  17.657  0.7493  0.1938  0.4928
 4021TIP3    H236259   6.469   2.513  17.768 -1.6437 -0.8773 -1.1850
 4022TIP3   OH236260   4.263   5.821  19.401  0.1996 -0.1194  0.0630
 4022TIP3    H136261   4.176   5.853  19.379  0.1315 -0.3327  0.0210
 4022TIP3    H236262   4.271   5.739  19.353 -0.0183 -0.6885  0.9993
 4023TIP3   OH236263   5.086   1.729  20.365 -0.4468 -0.5584 -0.0583
 4023TIP3    H136264   5.015   1.738  20.429 -1.2479  0.4288 -1.0409
 4023TIP3    H236265   5.124   1.816  20.359  1.6004 -1.3065  1.2344
 4024TIP3   OH236266   5.173   6.547  17.496 -0.0201 -0.3605 -0.4225
 4024TIP3    H136267   5.260   6.507  17.500  0.3030  0.4239  0.7842
 4024TIP3    H236268   5.190   6.641  17.496 -0.8853 -0.1955  0.2639
 4025TIP3   OH236269   6.176   2.567  19.769  0.0362 -0.4983 -0.1676
 4025TIP3    H136270   6.160   2.650  19.724 -1.7688 -1.3452 -1.2284
 4025TIP3    H236271   6.257   2.581  19.818 -0.1767  1.8487 -0.3671
 4026TIP3   OH236272   0.677   6.609  19.713 -0.1797  0.2056  0.0160
 4026TIP3    H136273   0.726   6.691  19.720  0.0923  0.0912 -0.4724
 4026TIP3    H236274   0.736   6.543  19.750  0.4719 -0.0938 -1.4984
 4027TIP3   OH236275   4.314   2.751  17.290  0.2180 -0.0182 -0.2829
 4027TIP3    H136276   4.250   2.684  17.267  0.1618  0.4229 -1.4722
 4027TIP3    H236277   4.310   2.756  17.386 -0.9096 -0.5955 -0.2807
 4028TIP3   OH236278   1.324   0.117  19.017 -0.8531  0.1529 -0.0936
 4028TIP3    H136279   1.319   0.168  18.937  0.0684 -0.6179 -0.6601
 4028TIP3    H236280   1.268   0.041  19.000 -0.8924  0.1337  0.1149
 4029TIP3   OH236281   6.097   0.056  18.542  0.4649  0.0956 -0.7489
 4029TIP3    H136282   6.080   0.123  18.608  0.5105 -1.6548  1.1462
 4029TIP3    H236283   6.010   0.020  18.522  0.5005  0.3301 -1.3589
 4030TIP3   OH236284   0.894   6.282  18.633  0.2188  0.8465  0.2064
 4030TIP3    H136285   0.829   6.351  18.646  0.0438  0.7154  0.0373
 4030TIP3    H236286   0.889   6.228  18.712  2.2437  2.5351  1.6047
 4031TIP3   OH236287   2.575   3.255  18.311 -0.1028 -0.2499 -0.1539
 4031TIP3    H136288   2.612   3.210  18.387 -1.0387  0.1529  0.5625
 4031TIP3    H236289   2.632   3.230  18.239  1.4719  0.2264  0.8672
 4032TIP3   OH236290   4.628   3.824  19.201  0.4690  0.5285 -0.5275
 4032TIP3    H136291   4.597   3.892  19.261 -1.4838 -0.4066 -0.3877
 4032TIP3    H236292   4.574   3.836  19.122  2.3088  1.1098 -1.7731
 4033TIP3   OH236293   6.406   3.531  17.920  0.1772 -0.5235  0.6547
 4033TIP3    H136294   6.319   3.542  17.881 -0.4567 -1.0768  1.8578
 4033TIP3    H236295   6.442   3.453  17.879 -0.2365 -0.7648  0.7524
 4034TIP3   OH236296   4.607   6.596  18.670  0.2995  0.0808  0.7115
 4034TIP3    H136297   4.697   6.586  18.638  0.3996  1.9035  0.2845
 4034TIP3    H236298   4.565   6.652  18.605 -1.5578 -1.7382  0.2443
 4035TIP3   OH236299   4.395   2.798  20.258 -0.4932 -0.5617  0.0881
 4035TIP3    H136300   4.306   2.829  20.271  0.4103  2.1706  0.4885
 4035TIP3    H236301   4.400   2.778  20.164 -0.8041  2.0486 -0.5501
 4036TIP3   OH236302   3.190   2.903  20.250  0.5298  0.4602 -0.9662
 4036TIP3    H136303   3.251   2.915  20.176  1.2757 -1.3609 -0.6945
 4036TIP3    H236304   3.247   2.891  20.326 -0.2338  1.8012 -0.1453
 4037TIP3   OH236305   6.139   1.610  18.008 -0.5498  0.0180  0.4672
 4037TIP3    H136306   6.054   1.654  18.005 -0.9282 -0.6805  0.8170
 4037TIP3    H236307   6.143   1.559  17.927  0.5284  1.8047 -0.6908
 4038TIP3   OH236308   6.152   4.964  17.439 -0.7062  0.4975  0.4572
 4038TIP3    H136309   6.236   4.960  17.394 -0.6381  1.8336  0.4085
 4038TIP3    H236310   6.096   4.904  17.391 -0.2099  0.7733 -0.4965
 4039TIP3   OH236311   0.289   1.547  18.662 -0.8316  0.2109 -0.0914
 4039TIP3    H136312   0.203   1.508  18.675 -1.4710  0.8769 -2.0605
 4039TIP3    H236313   0.351   1.476  18.682 -1.6277  0.3435  3.6692
 4040TIP3   OH236314   5.328   0.369  17.891  0.0803 -0.3335 -0.8300
 4040TIP3    H136315   5.414   0.328  17.888 -0.0361 -0.5345 -2.6660
 4040TIP3    H236316   5.329   0.423  17.970  1.0730 -2.0467  0.3699
 4041TIP3   OH236317   3.010   3.481  18.173  0.5469  0.3643  0.2220
 4041TIP3    H136318   2.941   3.476  18.239  1.0934  0.0324  0.7816
 4041TIP3    H236319   2.964   3.496  18.091 -0.0815  1.8197  0.8174
 4042TIP3   OH236320   1.435   1.296  19.575  0.8283 -0.1362  0.6731
 4042TIP3    H136321   1.388   1.365  19.528  2.1207  2.1575  2.5375
 4042TIP3    H236322   1.496   1.260  19.511  0.8346  1.1776 -0.0875
 4043TIP3   OH236323   5.232   3.902  18.838  0.7141 -0.6083  0.2505
 4043TIP3    H136324   5.144   3.880  18.869  0.5021  1.3920  1.2401
 4043TIP3    H236325   5.249   3.989  18.874  2.2675 -0.0376 -1.6591
 4044TIP3   OH236326   2.031   0.766  17.340  0.2201  0.3480 -0.6335
 4044TIP3    H136327   1.971   0.733  17.273  1.0135 -0.3365 -1.0291
 4044TIP3    H236328   2.090   0.692  17.357 -0.3887  0.2723  1.3229
 4045TIP3   OH236329   2.839   4.596  19.470  0.1852 -0.3086 -0.0338
 4045TIP3    H136330   2.869   4.671  19.420 -1.7134 -0.4510 -1.5242
 4045TIP3    H236331   2.779   4.633  19.535  0.9577 -0.3458  0.7172
 4046TIP3   OH236332   5.842   1.465  20.063 -0.0905 -0.0566  0.4959
 4046TIP3    H136333   5.883   1.548  20.089 -0.6681 -0.4859  3.0392
 4046TIP3    H236334   5.907   1.423  20.007  1.6805  0.6343  1.9295
 4047TIP3   OH236335   5.456   6.446  18.050 -0.4517  0.2498  0.4050
 4047TIP3    H136336   5.373   6.494  18.056 -0.8912 -0.6274  1.9512
 4047TIP3    H236337   5.467   6.428  17.957 -1.7999  0.7241  0.1291
 4048TIP3   OH236338   1.693   6.128  19.142 -0.3572 -0.1115 -0.0974
 4048TIP3    H136339   1.781   6.147  19.174 -0.0887 -3.3232  1.4658
 4048TIP3    H236340   1.645   6.210  19.152  1.7189  0.9785  1.6126
 4049TIP3   OH236341   5.095   5.468  20.718  0.2140 -0.0515  0.5486
 4049TIP3    H136342   5.049   5.542  20.759 -1.6771  0.4996 -2.2781
 4049TIP3    H236343   5.173   5.507  20.679  0.6463 -0.0978  1.3421
 4050TIP3   OH236344   1.055   2.460  20.651  0.3658 -0.6497 -0.4698
 4050TIP3    H136345   1.019   2.410  20.578  0.9743 -0.5225 -0.8665
 4050TIP3    H236346   1.096   2.537  20.610  0.2994 -0.3295  0.0448
 4051TIP3   OH236347   1.946   0.400  18.597 -0.4197 -0.1400 -0.9372
 4051TIP3    H136348   1.886   0.413  18.523  0.2023  1.1835 -1.2394
 4051TIP3    H236349   2.027   0.442  18.569  0.0825 -0.3412  0.1782
 4052TIP3   OH236350   0.300   6.304  20.448  0.2675 -0.3357 -0.3829
 4052TIP3    H136351   0.297   6.325  20.355 -0.4235 -0.0678 -0.3022
 4052TIP3    H236352   0.256   6.220  20.456  0.7103 -0.5661 -0.3535
 4053TIP3   OH236353   0.744   3.673  19.067  0.3396  0.2509 -0.5003
 4053TIP3    H136354   0.824   3.717  19.093 -0.3020  0.8290  0.6044
 4053TIP3    H236355   0.762   3.579  19.079 -0.5305  0.4566  4.4038
 4054TIP3   OH236356   1.146   2.029  19.555  0.0857  0.3546 -0.3551
 4054TIP3    H136357   1.084   2.088  19.513 -0.0492  1.0955  0.8464
 4054TIP3    H236358   1.097   1.991  19.629  0.9615  0.7574  0.4564
 4055TIP3   OH236359   4.136   1.036  18.525 -0.2648  0.7936 -0.5595
 4055TIP3    H136360   4.131   1.114  18.580 -0.4089 -0.3713  1.1475
 4055TIP3    H236361   4.051   1.033  18.480 -1.4308  0.1191  1.5507
 4056TIP3   OH236362   6.605   4.990  19.481 -0.1944  0.4486 -0.1063
 4056TIP3    H136363   6.512   5.013  19.489 -0.1061  0.6591  0.3273
 4056TIP3    H236364   6.646   5.068  19.443  0.1879  1.2391  1.8065
 4057TIP3   OH236365   5.674   4.334  19.005 -0.3583  0.3097 -0.0535
 4057TIP3    H136366   5.739   4.264  19.013 -0.4656  0.1224 -0.7344
 4057TIP3    H236367   5.655   4.338  18.911 -1.6034  0.1095  0.1676
 4058TIP3   OH236368   0.920   0.928  20.069  0.1848  0.1316  0.2711
 4058TIP3    H136369   0.944   1.018  20.091 -1.1473  0.7283 -0.5610
 4058TIP3    H236370   0.998   0.891  20.028  0.1979  1.5070 -1.0276
 4059TIP3   OH236371   5.487   0.601  17.225 -0.2590  0.5417 -0.2587
 4059TIP3    H136372   5.561   0.629  17.278 -0.3116  0.3795 -0.0965
 4059TIP3    H236373   5.508   0.511  17.200 -1.0795 -0.0494  1.0495
 4060TIP3   OH236374   1.191   1.655  20.304 -0.1709 -0.1223  0.5751
 4060TIP3    H136375   1.150   1.731  20.344 -1.3203  1.8232 -3.6806
 4060TIP3    H236376   1.281   1.655  20.338 -0.7951  1.7551  2.4056
 4061TIP3   OH236377   5.471   0.992  18.909  0.3511 -0.3107 -0.7980
 4061TIP3    H136378   5.447   1.060  18.972  1.8993 -0.1481 -0.3333
 4061TIP3    H236379   5.504   1.040  18.833 -3.3892 -0.4232 -2.6976
 4062TIP3   OH236380   2.251   4.974  18.291  0.5495  0.8257 -0.5797
 4062TIP3    H136381   2.219   5.063  18.306 -0.6881  0.2980  0.1128
 4062TIP3    H236382   2.298   4.952  18.371  0.2853  0.6279 -0.4780
 4063TIP3   OH236383   4.356   4.540  20.695  0.2046 -0.4094  0.7575
 4063TIP3    H136384   4.325   4.540  20.785 -0.2972  0.7555  0.6062
 4063TIP3    H236385   4.285   4.580  20.645  0.2547 -1.5269 -0.2449
 4064TIP3   OH236386   0.490   0.798  19.432 -0.4084 -0.3099  0.7279
 4064TIP3    H136387   0.416   0.803  19.372  0.1198  0.8977  0.1448
 4064TIP3    H236388   0.553   0.741  19.387 -0.2123  0.2055  0.3352
 4065TIP3   OH236389   3.206   2.424  20.724 -0.6659 -0.0921 -0.4813
 4065TIP3    H136390   3.242   2.345  20.685  0.9098  0.5517 -0.4123
 4065TIP3    H236391   3.262   2.441  20.799 -0.5907  1.3999 -0.8412
 4066TIP3   OH236392   0.550   0.181  19.377  0.2539 -0.3053 -0.0938
 4066TIP3    H136393   0.499   0.254  19.412  1.5880 -0.4738  2.5317
 4066TIP3    H236394   0.486   0.113  19.359 -0.8763  1.0407 -1.3870
 4067TIP3   OH236395   4.822   3.551  20.670 -0.3173 -0.4866  0.1501
 4067TIP3    H136396   4.742   3.514  20.706 -0.9442  0.6488 -0.0233
 4067TIP3    H236397   4.849   3.617  20.734 -0.1145 -0.1177 -0.3086
 4068TIP3   OH236398   5.689   2.049  19.659 -0.3018 -0.0526 -0.1911
 4068TIP3    H136399   5.726   2.098  19.731 -2.0106  1.8194 -0.5038
 4068TIP3    H236400   5.637   2.113  19.609 -0.2919 -1.5567 -2.2978
 4069TIP3   OH236401   1.083   6.124  17.424 -0.5675 -0.0623 -0.0108
 4069TIP3    H136402   1.031   6.185  17.477 -0.0094  0.1176  0.3285
 4069TIP3    H236403   1.117   6.060  17.486  0.8200  0.6513 -0.0123
 4070TIP3   OH236404   4.494   2.685  18.991 -0.2837  0.5509 -0.3107
 4070TIP3    H136405   4.575   2.670  18.942  1.2118 -0.0928  2.2115
 4070TIP3    H236406   4.503   2.773  19.027  0.0737 -0.1202  1.3006
 4071TIP3   OH236407   4.416   1.523  18.887 -0.5722  0.4446 -0.4187
 4071TIP3    H136408   4.388   1.432  18.900 -0.9483  0.3973 -1.4278
 4071TIP3    H236409   4.511   1.519  18.893 -0.6540  0.2893  1.2271
 4072TIP3   OH236410   4.925   4.707  17.132 -0.3096 -0.2414 -0.5835
 4072TIP3    H136411   5.017   4.687  17.115  0.1150  1.2215 -0.1517
 4072TIP3    H236412   4.908   4.665  17.217  0.1398 -0.0203 -0.3750
 4073TIP3   OH236413   3.363   1.483  19.878 -0.1971  0.0922 -0.4119
 4073TIP3    H136414   3.383   1.403  19.828  0.9418 -0.0474  0.2125
 4073TIP3    H236415   3.389   1.461  19.968 -2.0305  0.3954  0.2262
 4074TIP3   OH236416   4.436   2.584  20.420 -0.3583 -0.2152  0.2914
 4074TIP3    H136417   4.388   2.508  20.385 -0.8554  0.6100 -0.8783
 4074TIP3    H236418   4.418   2.654  20.357 -0.1146  0.9451  1.4878
 4075TIP3   OH236419   6.470   2.710  18.557 -0.3573 -0.6936  0.8744
 4075TIP3    H136420   6.511   2.627  18.583 -1.3870 -1.3812  0.3586
 4075TIP3    H236421   6.383   2.685  18.527 -0.0347  0.3407 -1.0821
 4076TIP3   OH236422   0.683   1.946  17.756 -0.0965  0.2583 -0.2072
 4076TIP3    H136423   0.718   1.916  17.673  1.1034  0.0640  0.3426
 4076TIP3    H236424   0.751   2.003  17.792 -1.1298  1.3810  0.0694
 4077TIP3   OH236425   6.312   2.325  19.990 -0.4804  0.5213 -0.1895
 4077TIP3    H136426   6.281   2.296  20.075 -0.8270  0.4086 -0.3507
 4077TIP3    H236427   6.399   2.361  20.006 -0.4376  0.2565  0.1648
 4078TIP3   OH236428   0.968   0.151  18.598  0.5008  0.2128  0.0333
 4078TIP3    H136429   1.030   0.103  18.543  0.9994  1.6401 -0.7205
 4078TIP3    H236430   0.882   0.121  18.569  0.7560  0.8661 -1.5149
 4079TIP3   OH236431   5.207   6.322  19.995  0.0658  0.0923 -0.1798
 4079TIP3    H136432   5.190   6.333  20.088 -1.8052  0.7084 -0.5487
 4079TIP3    H236433   5.210   6.411  19.960  0.5572 -0.1382 -0.7465
 4080TIP3   OH236434   0.443   2.928  20.477 -0.0403  0.2946 -0.1021
 4080TIP3    H136435   0.463   3.019  20.498  1.0424  0.2070 -0.6869
 4080TIP3    H236436   0.349   2.919  20.495 -0.3467  1.7397 -0.8625
 4081TIP3   OH236437   0.242   2.910  18.091  0.2163 -0.2504 -0.5948
 4081TIP3    H136438   0.314   2.907  18.155 -1.7612 -1.5717  1.7280
 4081TIP3    H236439   0.257   2.990  18.042  1.3538  1.4009  2.1958
 4082TIP3   OH236440   3.050   4.858  17.429 -0.3847  0.2597  0.6499
 4082TIP3    H136441   2.979   4.913  17.396  0.7924  1.7761  0.5369
 4082TIP3    H236442   3.116   4.860  17.360  0.4379  0.1938  1.4135
 4083TIP3   OH236443   1.600   0.947  18.374 -0.8801  0.0312 -0.6238
 4083TIP3    H136444   1.517   0.965  18.418 -1.2523 -0.9771 -0.8919
 4083TIP3    H236445   1.577   0.889  18.302  0.1216 -0.6140 -0.4342
 4084TIP3   OH236446   6.347   5.886  18.916  0.2781  0.1121  0.6534
 4084TIP3    H136447   6.288   5.954  18.950 -0.7652 -1.1756  1.4979
 4084TIP3    H236448   6.403   5.932  18.854 -2.1359  1.2401 -0.8107
 4085TIP3   OH236449   6.555   2.203  18.841 -0.4607  0.7154 -0.1882
 4085TIP3    H136450   6.502   2.236  18.769 -0.3923 -2.3553 -1.8185
 4085TIP3    H236451   6.630   2.161  18.799 -0.1717 -0.7751  1.6765
 4086TIP3   OH236452   4.982   3.574  18.299  0.3436  0.4246 -0.0474
 4086TIP3    H136453   4.956   3.513  18.368  3.7728 -0.8370  0.3236
 4086TIP3    H236454   4.974   3.661  18.340 -0.6534 -0.0634  0.8310
 4087TIP3   OH236455   2.854   6.728  18.443 -0.0453  0.3996  0.2411
 4087TIP3    H136456   2.759   6.731  18.448 -0.2484  0.9113 -2.6183
 4087TIP3    H236457   2.875   6.634  18.450 -0.9925  0.0253 -1.4071
 4088TIP3   OH236458   6.700   2.330  17.662  0.1864 -0.1068  0.3164
 4088TIP3    H136459   6.741   2.355  17.579  4.4739 -2.4318  1.4016
 4088TIP3    H236460   6.683   2.236  17.653 -0.7702 -0.0809  1.5377
 4089TIP3   OH236461   2.418   6.569  17.264  0.2896 -0.2139 -0.2822
 4089TIP3    H136462   2.511   6.570  17.244  0.1105  0.2750 -1.1510
 4089TIP3    H236463   2.376   6.537  17.184 -0.3833  0.8205 -0.3566
 4090TIP3   OH236464   3.490   0.789  19.907 -0.0592  0.3273  0.1933
 4090TIP3    H136465   3.434   0.838  19.846 -0.4414  1.1009  1.1282
 4090TIP3    H236466   3.478   0.834  19.991  0.3600 -0.7823  0.8660
 4091TIP3   OH236467   0.710   6.331  18.251  0.1169  0.4098 -0.3123
 4091TIP3    H136468   0.654   6.277  18.307 -0.9791  0.6111 -1.1888
 4091TIP3    H236469   0.725   6.278  18.173 -0.0296  0.9245 -0.6922
 4092TIP3   OH236470   1.655   3.429  17.427  0.0965 -0.2606  0.2261
 4092TIP3    H136471   1.678   3.501  17.368  0.3904 -0.4468  0.1115
 4092TIP3    H236472   1.740   3.395  17.456 -0.0140 -1.4484 -0.7765
 4093TIP3   OH236473   2.488   2.898  20.306 -1.0922  0.4072 -0.1429
 4093TIP3    H136474   2.506   2.807  20.283 -0.4074  0.8729 -1.5861
 4093TIP3    H236475   2.545   2.916  20.381 -0.9886 -0.2600 -0.0585
 4094TIP3   OH236476   4.331   4.433  20.145 -0.5413 -0.6189 -0.1389
 4094TIP3    H136477   4.279   4.420  20.225 -0.9319  0.5932 -0.1674
 4094TIP3    H236478   4.267   4.435  20.074 -0.1291 -2.4431 -0.6124
 4095TIP3   OH236479   0.009   0.292  17.639 -0.3215 -0.9735 -0.1982
 4095TIP3    H136480   0.104   0.278  17.635 -0.4549 -1.8090 -1.0855
 4095TIP3    H236481  -0.008   0.354  17.568 -0.1952  0.9841  1.3913
 4096TIP3   OH236482   6.403   4.190  19.013 -0.4103 -0.0187 -0.0302
 4096TIP3    H136483   6.497   4.203  19.000 -0.2531  1.3067  2.0454
 4096TIP3    H236484   6.363   4.228  18.935  0.6839  1.5433  0.1282
 4097TIP3   OH236485   3.226   1.151  18.427  0.3393 -0.0244 -0.0397
 4097TIP3    H136486   3.217   1.169  18.520  0.3252 -2.2861  0.4574
 4097TIP3    H236487   3.320   1.137  18.414  0.5717  1.8601 -0.7424
 4098TIP3   OH236488   1.133   6.327  19.618 -0.5422 -0.2269  0.1828
 4098TIP3    H136489   1.067   6.396  19.616  0.0096  0.2899 -0.8294
 4098TIP3    H236490   1.191   6.352  19.689  0.5017  1.1917 -1.0976
 4099TIP3   OH236491   4.385   2.582  19.259 -0.2012 -0.5216  0.2161
 4099TIP3    H136492   4.418   2.492  19.258 -1.5673 -1.0421 -0.5422
 4099TIP3    H236493   4.405   2.617  19.172 -0.7560 -0.5060  0.0930
 4100TIP3   OH236494   2.742   5.218  20.408 -0.2350 -0.0027 -0.3959
 4100TIP3    H136495   2.740   5.123  20.414  1.5813 -0.0862 -0.6580
 4100TIP3    H236496   2.743   5.248  20.499  1.2689 -0.3240 -0.2928
 4101TIP3   OH236497   0.382   5.732  20.457  0.0180  0.0654 -0.4761
 4101TIP3    H136498   0.308   5.676  20.478  1.0886 -0.9796  0.6770
 4101TIP3    H236499   0.380   5.740  20.362 -2.1012  0.8651 -0.4122
 4102TIP3   OH236500   5.256   3.972  17.312  0.0167  0.5535  0.4297
 4102TIP3    H136501   5.338   3.926  17.292 -0.4889  1.0149 -3.4014
 4102TIP3    H236502   5.281   4.063  17.323  0.2749  0.3211  2.0690
 4103TIP3   OH236503   2.106   5.325  20.825 -0.1026 -0.4172 -0.3061
 4103TIP3    H136504   2.172   5.263  20.856  0.8771  1.3748  1.4420
 4103TIP3    H236505   2.144   5.364  20.746  0.2172 -0.5257 -0.2068
 4104TIP3   OH236506   1.068   3.070  17.691  0.0140  0.1565 -0.1205
 4104TIP3    H136507   1.131   3.090  17.760  1.0706 -1.8233 -0.4378
 4104TIP3    H236508   1.097   3.123  17.617  0.6845  0.0705  0.0704
 4105TIP3   OH236509   1.394   1.147  19.952 -0.0485  0.5804  0.4842
 4105TIP3    H136510   1.391   1.086  19.878  3.1491  0.6595  0.1323
 4105TIP3    H236511   1.352   1.099  20.024  2.8707 -2.5163  0.4253
 4106TIP3   OH236512   0.579   4.164  18.700 -0.1486  0.3146 -0.2518
 4106TIP3    H136513   0.542   4.092  18.649  1.5913  1.4434 -3.4077
 4106TIP3    H236514   0.523   4.170  18.778 -1.8812 -2.7354 -1.0900
 4107TIP3   OH236515   5.912   0.265  18.135  0.0539 -0.5010  0.1435
 4107TIP3    H136516   5.945   0.328  18.200  0.2025 -0.0849 -0.3290
 4107TIP3    H236517   5.972   0.273  18.061  0.0122 -1.1344  0.0421
 4108TIP3   OH236518   4.622   3.278  20.686  0.0869 -0.2892  0.4653
 4108TIP3    H136519   4.705   3.231  20.687 -0.0817 -0.5846  0.9345
 4108TIP3    H236520   4.561   3.217  20.644  0.2052  0.1087 -0.3083
 4109TIP3   OH236521   5.802   2.198  18.265  0.1991  0.1618 -0.1857
 4109TIP3    H136522   5.835   2.155  18.186 -0.3620 -0.6343 -0.0038
 4109TIP3    H236523   5.850   2.155  18.337 -0.8734 -0.6916  0.0492
 4110TIP3   OH236524   1.504   0.422  19.817  0.5338  0.2072  0.2796
 4110TIP3    H136525   1.429   0.373  19.784  1.0001 -0.0425 -0.4239
 4110TIP3    H236526   1.501   0.410  19.912  0.9785 -1.6740  0.0771
 4111TIP3   OH236527   6.714   5.766  17.763 -0.6045 -0.0646  0.0231
 4111TIP3    H136528   6.755   5.685  17.794 -1.6586 -0.6618 -0.0641
 4111TIP3    H236529   6.761   5.836  17.808  2.0766 -0.5288 -1.8016
 4112TIP3   OH236530   4.019   4.535  18.636 -0.0062  0.1156  0.0117
 4112TIP3    H136531   3.972   4.595  18.694  0.0663  0.9609 -0.7673
 4112TIP3    H236532   4.111   4.545  18.661 -0.1393 -0.9843  1.0371
 4113TIP3   OH236533   0.804   3.582  18.642 -0.2845 -0.1441 -0.1707
 4113TIP3    H136534   0.841   3.589  18.729  0.2811 -0.7167 -0.3602
 4113TIP3    H236535   0.831   3.496  18.610 -0.3469  0.1188 -0.9734
 4114TIP3   OH236536   4.923   1.910  19.972  0.3694  0.0471 -0.0556
 4114TIP3    H136537   4.934   1.854  19.895  2.1069 -0.7724  0.7302
 4114TIP3    H236538   4.911   1.849  20.045  2.2279  0.6143  0.8133
 4115TIP3   OH236539   0.927   1.740  18.006 -0.7625 -0.5458  0.0875
 4115TIP3    H136540   1.011   1.694  18.003  0.1969  1.0279  1.3674
 4115TIP3    H236541   0.889   1.724  17.919  1.7714  0.2989 -1.3073
 4116TIP3   OH236542   1.355   0.382  18.724 -0.0697 -0.2529  0.1009
 4116TIP3    H136543   1.446   0.355  18.710 -0.2149 -0.9989  0.5623
 4116TIP3    H236544   1.304   0.327  18.665 -0.2928 -0.3622  0.3965
 4117TIP3   OH236545   6.439   6.000  17.244 -0.4664 -0.1683 -0.1191
 4117TIP3    H136546   6.449   6.093  17.225  0.7220 -0.4454 -0.9705
 4117TIP3    H236547   6.372   5.970  17.182  0.0319 -0.1096 -0.7029
 4118TIP3   OH236548   6.130   2.706  18.904 -0.1563  0.0857 -0.1056
 4118TIP3    H136549   6.121   2.686  18.997 -1.4170  0.2764 -0.1637
 4118TIP3    H236550   6.146   2.800  18.901 -5.1455  1.2257 -0.1591
 4119TIP3   OH236551   1.044   4.370  19.764 -0.8295  0.1836  0.2558
 4119TIP3    H136552   1.068   4.430  19.834  1.3841 -0.4406  0.1190
 4119TIP3    H236553   0.959   4.335  19.790 -0.4515  0.5968  2.2024
 4120TIP3   OH236554   6.207   5.227  17.649  0.1119  0.3168  0.5214
 4120TIP3    H136555   6.209   5.323  17.654 -0.8746  0.3255  0.9673
 4120TIP3    H236556   6.120   5.207  17.616  0.1268 -0.4441  0.9336
 4121TIP3   OH236557   5.704   2.757  19.629  0.6440  0.0455 -0.0918
 4121TIP3    H136558   5.661   2.671  19.638  0.5394  0.1233  0.1729
 4121TIP3    H236559   5.748   2.770  19.713  0.0985  0.5513  0.1253
 4122TIP3   OH236560   1.588   2.002  19.461  0.0161 -0.3304 -0.9424
 4122TIP3    H136561   1.525   1.957  19.516  0.6269 -0.8637 -0.6633
 4122TIP3    H236562   1.539   2.075  19.423 -0.6057 -0.3811 -0.2653
 4123TIP3   OH236563   6.454   2.127  19.775  0.0992 -0.0745 -0.2069
 4123TIP3    H136564   6.541   2.088  19.783 -0.0441 -0.1867  1.1317
 4123TIP3    H236565   6.463   2.214  19.814 -0.5965 -0.4757  0.9311
 4124TIP3   OH236566   6.063   0.591  18.754 -0.5164  0.2637  0.0276
 4124TIP3    H136567   6.047   0.592  18.660 -1.7728 -0.1719  0.2127
 4124TIP3    H236568   5.977   0.573  18.792 -0.4489  2.4904  1.3533
 4125TIP3   OH236569   5.640   1.790  20.908  0.2142 -0.0361 -0.1819
 4125TIP3    H136570   5.719   1.821  20.862  0.3241  1.1242  0.7330
 4125TIP3    H236571   5.574   1.857  20.888 -0.1653 -0.3127  0.1390
 4126TIP3   OH236572   0.952   2.725  18.910 -0.0361  0.3391  0.4153
 4126TIP3    H136573   0.859   2.703  18.903  0.2168 -0.5874 -0.0749
 4126TIP3    H236574   0.953   2.821  18.915 -1.0913  0.3214  1.6261
 4127TIP3   OH236575   5.057   1.304  17.714  0.6274 -0.7296  0.0942
 4127TIP3    H136576   5.024   1.352  17.638  1.2716 -1.7598 -0.8742
 4127TIP3    H236577   5.145   1.277  17.689  0.2783 -2.4516  0.5436
 4128TIP3   OH236578   2.169   0.757  17.773 -0.2578 -0.0058 -0.0803
 4128TIP3    H136579   2.243   0.704  17.804 -1.7045 -1.2901  1.4204
 4128TIP3    H236580   2.093   0.699  17.783 -1.5819  1.5359 -0.8011
 4129TIP3   OH236581   2.358   0.224  19.986 -0.1318  0.4554  0.6478
 4129TIP3    H136582   2.407   0.307  19.985  0.1160  0.3208  1.1759
 4129TIP3    H236583   2.269   0.249  19.962  0.0500  0.7985  0.3017
 4130TIP3   OH236584   3.200   3.048  18.654  0.0501 -0.0256  0.0367
 4130TIP3    H136585   3.258   3.117  18.685 -0.5395  0.6764 -0.4014
 4130TIP3    H236586   3.228   3.030  18.565 -0.3886  0.3041 -0.1698
 4131TIP3   OH236587   6.392   3.837  18.769  0.1155 -0.9726 -0.1048
 4131TIP3    H136588   6.463   3.868  18.826 -0.2012 -1.8038  0.7683
 4131TIP3    H236589   6.430   3.839  18.681  1.2082 -1.3256  0.3349
 4132TIP3   OH236590   6.539   3.206  18.212  0.2672 -0.0839 -0.1698
 4132TIP3    H136591   6.506   3.186  18.124  0.4479 -1.4358  0.0459
 4132TIP3    H236592   6.620   3.157  18.219 -0.2261 -0.7697  1.0898
 4133TIP3   OH236593   4.403   2.907  18.104  0.3796 -0.0454 -0.3251
 4133TIP3    H136594   4.487   2.925  18.145  0.1313  0.4876 -0.0412
 4133TIP3    H236595   4.365   2.837  18.157  0.5542 -0.1510 -0.3374
 4134TIP3   OH236596   1.032   2.229  18.879 -0.1077 -0.2444 -0.2739
 4134TIP3    H136597   1.006   2.317  18.850  2.5555  0.8520  0.3334
 4134TIP3    H236598   0.964   2.202  18.939 -1.1889  1.2499 -0.7652
 4135TIP3   OH236599   4.853   6.637  20.412 -0.4374  0.1075  0.1856
 4135TIP3    H136600   4.835   6.549  20.381 -1.4745  0.9839 -1.8626
 4135TIP3    H236601   4.943   6.655  20.384 -0.4247 -0.0912  0.0997
 4136TIP3   OH236602   6.002   3.991  17.933 -0.2808 -0.2395 -0.5939
 4136TIP3    H136603   6.067   3.955  17.872  2.6286 -0.6296  2.4648
 4136TIP3    H236604   6.009   4.085  17.922  1.7121 -0.2098  0.3746
 4137TIP3   OH236605   2.333   5.127  20.962 -0.1991 -0.0157  0.3782
 4137TIP3    H136606   2.315   5.051  21.017 -0.4940 -0.3854 -0.2180
 4137TIP3    H236607   2.328   5.094  20.873  0.1290  0.6087  0.1238
 4138TIP3   OH236608   5.105   2.448  20.890  0.3881 -0.2470  0.0210
 4138TIP3    H136609   5.026   2.468  20.840 -1.3817 -0.1676  2.6360
 4138TIP3    H236610   5.155   2.389  20.833 -3.0668 -2.8990 -0.6394
 4139TIP3   OH236611   5.176   4.306  19.341  0.2686  0.4394 -0.0332
 4139TIP3    H136612   5.215   4.393  19.352  1.1192  0.0867 -0.1387
 4139TIP3    H236613   5.249   4.251  19.310 -0.3445 -0.2240 -0.3340
 4140TIP3   OH236614   6.286   0.871  17.368 -0.3622 -0.1399 -0.3027
 4140TIP3    H136615   6.313   0.877  17.276 -1.0870  0.6948 -0.4767
 4140TIP3    H236616   6.368   0.871  17.417  0.1265 -2.2040 -0.9881
 4141TIP3   OH236617   4.784   5.882  17.719  0.0266 -0.0320  0.1147
 4141TIP3    H136618   4.711   5.944  17.718  0.1066  0.0619 -0.3829
 4141TIP3    H236619   4.763   5.818  17.651  1.0986  0.8314 -1.0859
 4142TIP3   OH236620   4.065   4.190  18.320  0.1052 -0.1975  0.2459
 4142TIP3    H136621   3.971   4.195  18.337  0.3969  0.1020  1.9211
 4142TIP3    H236622   4.095   4.114  18.369  0.6765 -0.6253 -0.7182
 4143TIP3   OH236623   1.983   2.681  17.560 -0.7472 -0.5249 -0.4529
 4143TIP3    H136624   1.977   2.615  17.629  0.6100 -0.3537 -0.1344
 4143TIP3    H236625   2.069   2.667  17.522 -0.1051  1.5189  0.1309
 4144TIP3   OH236626   3.539   1.028  19.479  0.2706 -0.5792 -0.1795
 4144TIP3    H136627   3.580   1.071  19.404 -1.5461  0.6340 -0.5325
 4144TIP3    H236628   3.569   0.937  19.473  1.2581 -0.1963 -1.5619
 4145TIP3   OH236629   4.229   4.329  18.922  0.3051 -0.2824 -0.1241
 4145TIP3    H136630   4.199   4.256  18.868 -0.3055  0.4687 -0.8227
 4145TIP3    H236631   4.164   4.335  18.993  0.5430 -0.6233  0.1247
 4146TIP3   OH236632   6.624   0.954  18.228  0.2446 -0.0277 -0.4012
 4146TIP3    H136633   6.589   1.042  18.216  1.3033  0.4431 -0.1416
 4146TIP3    H236634   6.630   0.944  18.323  1.2475  0.0905 -0.4425
 4147TIP3   OH236635   3.506   1.117  18.472  0.1431  0.6872 -0.2178
 4147TIP3    H136636   3.569   1.074  18.415  1.1082  0.1798  1.1771
 4147TIP3    H236637   3.495   1.057  18.546 -0.9492  1.3921  0.2221
 4148TIP3   OH236638   1.792   3.608  20.150 -0.1904 -0.0605  0.6738
 4148TIP3    H136639   1.725   3.644  20.092  1.4077  0.4004 -0.9620
 4148TIP3    H236640   1.744   3.584  20.229 -2.3744 -0.2746 -0.6277
 4149TIP3   OH236641   5.252   2.551  19.429 -0.2135 -0.4989  0.0478
 4149TIP3    H136642   5.210   2.514  19.507  1.7185  1.1388  1.9923
 4149TIP3    H236643   5.179   2.586  19.378 -1.4481  0.3533  2.2387
 4150TIP3   OH236644   1.859   1.590  19.437 -0.1118 -0.0365  0.4692
 4150TIP3    H136645   1.874   1.517  19.496 -0.1602 -0.0902  0.4158
 4150TIP3    H236646   1.946   1.624  19.417 -0.1612  0.7335  1.5127
 4151TIP3   OH236647   5.118   4.784  19.376 -0.1639  0.2230  0.0360
 4151TIP3    H136648   5.037   4.834  19.386 -0.5969 -0.1800 -1.1942
 4151TIP3    H236649   5.187   4.849  19.370 -0.2976  0.5572  1.7638
 4152TIP3   OH236650   3.777   5.846  20.358 -0.3789  0.2167 -0.6372
 4152TIP3    H136651   3.842   5.916  20.371  0.0765 -0.5341  1.3293
 4152TIP3    H236652   3.716   5.883  20.293  1.0695  1.5715 -1.3051
 4153TIP3   OH236653   5.082   2.458  20.525  0.8947  0.1433 -0.3939
 4153TIP3    H136654   5.097   2.422  20.438  1.3745  2.4984 -1.3670
 4153TIP3    H236655   5.153   2.521  20.538  1.7359 -1.2063  2.3821
 4154TIP3   OH236656   1.902   5.074  20.446  0.6912  0.0518 -0.0691
 4154TIP3    H136657   1.891   5.014  20.519  0.3090 -1.3648 -1.2476
 4154TIP3    H236658   1.995   5.097  20.447  0.8795 -0.6949  0.3094
 4155TIP3   OH236659   0.748   5.167  18.656 -0.0750  0.0182  0.0799
 4155TIP3    H136660   0.768   5.255  18.687  1.7748 -0.2306 -0.2977
 4155TIP3    H236661   0.727   5.117  18.735  1.4182  0.1830  0.6063
 4156TIP3   OH236662   6.383   4.086  20.241 -0.3276 -0.2053 -0.0762
 4156TIP3    H136663   6.406   4.170  20.279  1.6046 -0.7289  0.0055
 4156TIP3    H236664   6.304   4.104  20.189  1.3973  2.2674 -2.1060
 4157TIP3   OH236665   5.329   0.732  20.525  0.0147 -0.4729  0.1444
 4157TIP3    H136666   5.361   0.707  20.612  2.2833 -0.3118 -0.5671
 4157TIP3    H236667   5.275   0.658  20.497  0.1532 -1.0159  1.2572
 4158TIP3   OH236668   4.870   4.783  20.643  0.4012  0.2693 -0.7794
 4158TIP3    H136669   4.951   4.774  20.693  1.0032  1.2788 -1.5636
 4158TIP3    H236670   4.889   4.743  20.558  1.1152  3.1112 -2.0726
 4159TIP3   OH236671   4.230   4.341  19.367 -0.0811  0.4025  0.3915
 4159TIP3    H136672   4.208   4.284  19.293 -1.1960 -1.8293  2.3001
 4159TIP3    H236673   4.258   4.281  19.436  0.1089  2.3213  2.0765
 4160TIP3   OH236674   0.048   5.574  17.953  0.0159 -0.4251  0.2330
 4160TIP3    H136675   0.053   5.626  18.032  1.3512 -2.0935  1.3215
 4160TIP3    H236676   0.016   5.488  17.983 -0.4036 -0.7992 -1.1986
 4161TIP3   OH236677   3.418   3.225  20.612 -0.2029 -0.1411  0.2644
 4161TIP3    H136678   3.501   3.237  20.565 -0.3872  0.6193  0.1246
 4161TIP3    H236679   3.378   3.149  20.570 -0.2625  0.3917 -0.6789
 4162TIP3   OH236680   0.666   0.503  20.118  0.0163  0.3875  0.6596
 4162TIP3    H136681   0.637   0.488  20.028 -0.1421 -0.9858  0.9161
 4162TIP3    H236682   0.734   0.570  20.111 -1.0696  1.4380 -0.2903
 4163TIP3   OH236683   5.853   2.396  17.825 -0.5043  0.4416 -0.1449
 4163TIP3    H136684   5.853   2.453  17.748  1.2449  0.1877 -0.3913
 4163TIP3    H236685   5.945   2.373  17.837 -0.9114 -0.6094  1.2298
 4164TIP3   OH236686   2.097   6.444  17.397 -0.4247  0.1079 -0.1146
 4164TIP3    H136687   2.086   6.505  17.470  0.1096 -1.9327  1.7711
 4164TIP3    H236688   2.175   6.394  17.419 -0.6959 -1.0951 -1.7172
 4165TIP3   OH236689   1.014   3.277  18.043 -0.4164  0.0977 -0.0219
 4165TIP3    H136690   1.082   3.255  18.106 -0.7169  0.8598  0.5997
 4165TIP3    H236691   1.027   3.217  17.970 -0.0625 -0.8135  0.7732
 4166TIP3   OH236692   3.606   0.015  17.776 -0.4661 -0.0946 -0.3875
 4166TIP3    H136693   3.685   0.068  17.765 -0.1582 -0.7904 -1.8054
 4166TIP3    H236694   3.535   0.069  17.742 -0.5509  0.3844  0.5369
 4167TIP3   OH236695   6.258   4.442  17.778  0.0183  0.3664  0.2562
 4167TIP3    H136696   6.293   4.484  17.699  1.4869 -1.7647 -0.3247
 4167TIP3    H236697   6.245   4.514  17.839 -0.7090  2.0319 -1.7418
 4168TIP3   OH236698   4.655   0.457  18.942  0.1115  0.1350 -0.3577
 4168TIP3    H136699   4.636   0.502  19.025 -1.5845 -1.2994  0.0771
 4168TIP3    H236700   4.612   0.511  18.876  1.5788  1.3594 -0.3870
 4169TIP3   OH236701   6.668   0.837  18.851 -0.4448  0.2557 -0.5107
 4169TIP3    H136702   6.642   0.755  18.893 -1.9496  0.4811 -0.9316
 4169TIP3    H236703   6.749   0.816  18.805  0.4842 -0.3651  1.2938
 4170TIP3   OH236704   2.115   3.802  20.391  0.4885  0.6565 -0.0506
 4170TIP3    H136705   2.054   3.807  20.317 -0.1199  0.2772  0.4186
 4170TIP3    H236706   2.201   3.803  20.350  0.1600  0.3585 -0.7809
 4171TIP3   OH236707   3.404   5.286  17.586  0.5107  0.9660  0.0280
 4171TIP3    H136708   3.392   5.308  17.678  0.1754 -0.5674  0.3878
 4171TIP3    H236709   3.315   5.269  17.553  0.4226  3.2655 -1.1014
 4172TIP3   OH236710   5.577   2.053  20.739  0.2937 -0.3314  0.0926
 4172TIP3    H136711   5.553   2.114  20.670 -1.6590 -1.7711 -0.6037
 4172TIP3    H236712   5.546   2.094  20.820 -1.5248 -0.5951 -0.4291
 4173TIP3   OH236713   0.146   0.086  19.732  0.3366 -0.0939  0.0149
 4173TIP3    H136714   0.168  -0.005  19.749  0.2260 -0.4319 -1.5073
 4173TIP3    H236715   0.180   0.103  19.645 -1.8587  0.5371 -0.7939
 4174TIP3   OH236716   3.213   6.061  19.804  0.1004 -0.2727 -0.7655
 4174TIP3    H136717   3.286   6.026  19.855 -1.3867  0.1714  1.8281
 4174TIP3    H236718   3.189   5.989  19.745  0.8722 -1.4446  0.2829
 4175TIP3   OH236719   2.668   3.589  18.062 -0.7481  0.0266  0.5336
 4175TIP3    H136720   2.599   3.562  18.001 -0.9859 -2.6004  1.8125
 4175TIP3    H236721   2.750   3.562  18.020 -0.9096 -1.7373  1.2380
 4176TIP3   OH236722   1.160   3.618  18.183 -0.1000 -0.0758 -0.4626
 4176TIP3    H136723   1.220   3.680  18.141 -0.1092  0.1855 -0.1043
 4176TIP3    H236724   1.211   3.538  18.191  0.4063  0.3082  0.3361
 4177TIP3   OH236725   5.183   2.977  19.862 -1.0589  0.5215 -0.5810
 4177TIP3    H136726   5.087   2.974  19.860 -1.1286  1.3760  0.5152
 4177TIP3    H236727   5.210   2.928  19.785 -2.4202  1.4453 -1.7114
 4178TIP3   OH236728   5.518   2.518  20.115 -0.3697  0.8007  0.2296
 4178TIP3    H136729   5.461   2.442  20.113  0.5718  0.0995 -1.4114
 4178TIP3    H236730   5.606   2.482  20.112  0.1134  1.9374  0.2980
 4179TIP3   OH236731   1.106   1.562  18.051 -0.1510 -0.2989  0.0292
 4179TIP3    H136732   1.102   1.485  18.108  0.0799 -0.0198  0.4359
 4179TIP3    H236733   1.193   1.558  18.012 -0.3283 -0.5163 -0.3415
 4180TIP3   OH236734   5.516   6.389  20.151  0.0846 -0.4931  0.1965
 4180TIP3    H136735   5.472   6.472  20.169  2.1015  0.4971  0.9332
 4180TIP3    H236736   5.517   6.383  20.056  0.6776  0.8166  0.0852
 4181TIP3   OH236737   4.296   1.487  19.157  0.3283 -0.2411 -0.4980
 4181TIP3    H136738   4.215   1.535  19.140  0.5902  0.7068  0.7981
 4181TIP3    H236739   4.355   1.514  19.086  0.1975  0.7672 -0.2512
 4182TIP3   OH236740   6.555   4.884  18.069  0.2935  0.1255 -0.5886
 4182TIP3    H136741   6.482   4.937  18.099 -0.8506 -0.0123 -2.9456
 4182TIP3    H236742   6.557   4.810  18.130  0.6337  1.7458  1.5005
 4183TIP3   OH236743   5.520   4.097  19.559 -0.0082 -0.5386 -0.5629
 4183TIP3    H136744   5.605   4.106  19.603 -0.0247 -2.5886 -0.0311
 4183TIP3    H236745   5.463   4.159  19.605  0.7793 -0.3226  0.1662
 4184TIP3   OH236746   4.759   1.047  19.347  0.4896 -0.1401  0.5991
 4184TIP3    H136747   4.788   1.122  19.399 -1.3581  0.8321  0.2973
 4184TIP3    H236748   4.665   1.041  19.364  0.1482 -0.8371 -1.3144
 4185TIP3   OH236749   2.812   0.793  20.463  0.4240 -0.1406  0.2827
 4185TIP3    H136750   2.734   0.846  20.450 -0.4558 -1.1102  1.3766
 4185TIP3    H236751   2.804   0.760  20.553  0.7416 -2.3842 -0.4421
 4186TIP3   OH236752   0.695   3.141  18.938  0.3794 -0.6964 -0.1277
 4186TIP3    H136753   0.620   3.143  18.880  0.6098  0.7380 -0.4149
 4186TIP3    H236754   0.663   3.179  19.020  0.5453 -0.9797  0.0719
 4187TIP3   OH236755   0.883   1.877  20.026  0.8294  0.3381  0.6431
 4187TIP3    H136756   0.796   1.842  20.005  1.2855 -0.1760 -0.4991
 4187TIP3    H236757   0.883   1.885  20.121  0.2418 -1.5888  0.8610
 4188TIP3   OH236758   4.673   3.501  18.638 -0.6569  0.4293  0.9653
 4188TIP3    H136759   4.589   3.506  18.592 -0.5311 -1.7015  0.3753
 4188TIP3    H236760   4.655   3.446  18.715  0.1493  0.0456  0.8958
 4189TIP3   OH236761   4.993   4.805  19.692  0.5467  0.2010 -0.4288
 4189TIP3    H136762   4.975   4.798  19.785  1.1712  0.3472 -0.2896
 4189TIP3    H236763   4.909   4.787  19.649  0.4027 -0.5368  0.1372
 4190TIP3   OH236764   6.146   2.861  19.947  0.5240  0.1567 -0.0284
 4190TIP3    H136765   6.182   2.855  20.036 -0.8045 -0.3718  0.4955
 4190TIP3    H236766   6.217   2.899  19.895  1.4315  0.1902  1.1924
 4191TIP3   OH236767   0.948   1.939  19.739  0.2404  0.3187  0.0936
 4191TIP3    H136768   0.951   1.925  19.834 -0.6472 -0.9693 -0.0381
 4191TIP3    H236769   0.959   1.851  19.702  0.0815  0.7411 -0.9762
 4192TIP3   OH236770   5.106   1.181  19.229  0.1758  0.5569  0.2020
 4192TIP3    H136771   5.173   1.192  19.296  1.5531 -1.2897 -0.7547
 4192TIP3    H236772   5.095   1.086  19.223  1.4563  0.4941 -3.3779
 4193TIP3   OH236773   4.050   4.779  19.873  0.1814  0.4083 -0.7650
 4193TIP3    H136774   4.012   4.702  19.830  1.7841  0.2121 -1.9048
 4193TIP3    H236775   4.034   4.851  19.812 -0.7984  0.9103  0.0373
 4194TIP3   OH236776   3.235   2.645  19.755 -0.2928  0.0515  0.6037
 4194TIP3    H136777   3.219   2.552  19.773  1.5653 -0.5422 -0.4186
 4194TIP3    H236778   3.175   2.666  19.684  0.5482 -0.9415 -0.4452
 4195TIP3   OH236779   4.341   2.165  20.713  0.3503 -0.2966  0.3479
 4195TIP3    H136780   4.389   2.164  20.630 -0.8352 -1.1802 -0.3671
 4195TIP3    H236781   4.288   2.245  20.709  0.4351 -0.2405  0.3441
 4196TIP3   OH236782   4.408   2.564  18.732  0.2505 -0.1991  0.2448
 4196TIP3    H136783   4.427   2.580  18.824  0.9158 -1.4463  0.3492
 4196TIP3    H236784   4.399   2.469  18.725 -0.5340 -0.0750 -0.8460
 4197TIP3   OH236785   1.846   2.939  19.556  0.9421  0.4538  0.4443
 4197TIP3    H136786   1.851   2.935  19.651 -0.2498 -0.8976  0.4767
 4197TIP3    H236787   1.813   2.853  19.530  1.0101  0.8861 -1.1735
 4198TIP3   OH236788   0.407   2.765  18.956 -0.2168 -0.3966  0.0811
 4198TIP3    H136789   0.356   2.700  19.005 -0.0517 -0.8123 -0.2923
 4198TIP3    H236790   0.356   2.780  18.876  0.1143 -0.6283 -0.1788
 4199TIP3   OH236791   2.981   5.028  19.894  0.8583  0.6247 -0.4140
 4199TIP3    H136792   3.036   5.067  19.826 -0.1990  2.8958 -0.0511
 4199TIP3    H236793   2.897   5.012  19.852  1.0358 -0.6492 -0.3429
 4200TIP3   OH236794   1.765   2.984  18.310 -0.4691  0.0534 -0.5443
 4200TIP3    H136795   1.675   3.015  18.297  0.1353  1.4034 -1.8084
 4200TIP3    H236796   1.793   3.024  18.392 -1.0882 -0.5994  0.0045
 4201TIP3   OH236797   6.205   4.395  18.969 -0.4078 -0.0990  0.0868
 4201TIP3    H136798   6.270   4.437  18.913  1.8100 -1.1812  1.6905
 4201TIP3    H236799   6.162   4.467  19.014 -0.4137  0.6436 -1.0585
 4202TIP3   OH236800   4.804   3.629  19.260 -0.2608  0.1258 -0.6618
 4202TIP3    H136801   4.759   3.706  19.225 -0.2428 -0.3005 -1.6757
 4202TIP3    H236802   4.836   3.656  19.345  0.6802  1.5963 -1.4533
 4203TIP3   OH236803   2.701   5.084  19.790  0.0621 -0.5516 -0.6187
 4203TIP3    H136804   2.624   5.034  19.819  0.0035 -0.2736 -0.2991
 4203TIP3    H236805   2.681   5.175  19.813  1.8332 -0.8204  2.4203
 4204TIP3   OH236806   5.240   3.504  18.687 -0.2009  0.0765 -0.3697
 4204TIP3    H136807   5.330   3.536  18.679 -0.5573  1.0399 -0.6324
 4204TIP3    H236808   5.214   3.481  18.598 -1.1556  2.4727 -0.7826
 4205TIP3   OH236809   2.911   3.051  18.678 -0.0675 -0.2502 -0.2748
 4205TIP3    H136810   2.879   3.130  18.720  0.1197 -0.4897  0.3289
 4205TIP3    H236811   3.000   3.039  18.713  0.4424  0.0371 -1.4090
 4206TIP3   OH236812   2.473   0.800  18.048 -0.3344  0.4413 -0.4514
 4206TIP3    H136813   2.404   0.776  18.110  1.3508 -0.7322  1.0726
 4206TIP3    H236814   2.455   0.747  17.970 -0.9731 -0.0575  0.0279
 4207TIP3   OH236815   1.756   4.621  20.145 -0.2921  0.2531 -0.3149
 4207TIP3    H136816   1.822   4.552  20.159 -0.7336  0.2597  2.3984
 4207TIP3    H236817   1.673   4.574  20.138 -0.2070  0.3208 -2.6586
 4208TIP3   OH236818   4.472   5.210  20.316 -0.0292 -0.8874 -0.1355
 4208TIP3    H136819   4.526   5.286  20.340 -1.4318  0.0122  0.2749
 4208TIP3    H236820   4.523   5.135  20.344  1.2658 -0.0913 -0.2718
 4209TIP3   OH236821   1.010   1.113  19.820 -0.4850  0.3245  0.0789
 4209TIP3    H136822   1.006   1.167  19.899 -4.0229 -0.1291  0.3457
 4209TIP3    H236823   1.050   1.171  19.754  0.4290  1.4709  1.5691
 4210TIP3   OH236824   3.279   6.416  19.175 -0.1488 -0.0753 -0.3605
 4210TIP3    H136825   3.290   6.508  19.200 -0.8544  0.4701 -1.9159
 4210TIP3    H236826   3.189   6.395  19.203  0.1185 -0.4106  0.2764
 4211TIP3   OH236827   3.559   4.471  19.738  0.1789  0.3239  0.3580
 4211TIP3    H136828   3.486   4.509  19.689  0.1565  1.0712  0.9498
 4211TIP3    H236829   3.531   4.382  19.758  0.9712 -0.7157 -2.6173
 4212TIP3   OH236830   2.548   3.048  19.107  0.1911  0.4926  0.3897
 4212TIP3    H136831   2.636   3.037  19.142 -0.9517 -0.6068  3.1562
 4212TIP3    H236832   2.519   3.133  19.142 -0.2189  0.3737  0.3358
 4213TIP3   OH236833   1.928   1.667  19.142 -0.2577 -0.1843 -0.1386
 4213TIP3    H136834   1.863   1.690  19.209 -1.2840 -0.7288 -0.9216
 4213TIP3    H236835   1.928   1.742  19.082 -2.3488 -1.3574 -1.7438
 4214TIP3   OH236836   2.099   3.049  20.149  0.6777  0.0635 -0.1730
 4214TIP3    H136837   2.168   3.079  20.090 -0.7653 -0.0493 -2.0089
 4214TIP3    H236838   2.093   2.955  20.132  1.0897 -0.2260  1.1286
 4215TIP3   OH236839   4.145   3.995  18.930  0.0059 -0.6022 -0.3973
 4215TIP3    H136840   4.164   4.049  18.854 -0.1690 -0.9573 -0.6945
 4215TIP3    H236841   4.155   4.054  19.005  0.7052 -0.3886 -0.6586
 4216TIP3   OH236842   4.866   3.015  18.541  0.4372 -0.6678 -0.6482
 4216TIP3    H136843   4.857   3.089  18.481  3.0997  0.9657  0.7714
 4216TIP3    H236844   4.893   2.942  18.485  0.9047  0.2740 -1.6933
 4217TIP3   OH236845   4.486   6.157  17.408 -0.0340  0.5760  0.1175
 4217TIP3    H136846   4.511   6.245  17.382 -1.2411  1.2205  0.9967
 4217TIP3    H236847   4.472   6.110  17.326  0.7640  1.1433 -0.3603
 4218TIP3   OH236848   4.258   1.931  18.587 -0.6086  0.4637  0.4099
 4218TIP3    H136849   4.251   1.959  18.496 -1.9686 -1.6021 -0.1943
 4218TIP3    H236850   4.310   1.852  18.584  1.5691  1.7381  1.8232
 4219TIP3   OH236851   4.272   5.319  20.125  0.4268 -0.0419 -0.5468
 4219TIP3    H136852   4.300   5.275  20.045 -0.1308  0.3476 -0.9714
 4219TIP3    H236853   4.245   5.249  20.184  0.8880 -0.3345 -0.6825
 4220TIP3   OH236854   1.186   2.160  18.273 -0.3931  0.0504  0.0559
 4220TIP3    H136855   1.165   2.108  18.196  0.0005 -0.8785  0.5645
 4220TIP3    H236856   1.263   2.118  18.311 -1.1377 -0.0855  1.4860
 4221TIP3   OH236857   2.690   3.894  20.773  0.4216  0.3162  0.2323
 4221TIP3    H136858   2.733   3.878  20.690  1.8546  0.3901  0.9259
 4221TIP3    H236859   2.599   3.914  20.750  0.7477  0.1618 -1.2815
 4222TIP3   OH236860   3.794   1.055  17.541 -0.6304 -0.3789 -0.3760
 4222TIP3    H136861   3.796   0.960  17.530  1.6293 -0.1856 -2.5151
 4222TIP3    H236862   3.712   1.081  17.498 -1.8026 -1.3844  1.1511
 4223TIP3   OH236863   5.778   0.572  18.819 -0.5809  0.3321  0.0928
 4223TIP3    H136864   5.729   0.491  18.805  0.7033 -0.2308 -1.5015
 4223TIP3    H236865   5.717   0.642  18.797 -1.1206 -0.2850 -0.4061
 4224TIP3   OH236866   2.298   1.054  20.650  0.5431  0.8220 -0.2109
 4224TIP3    H136867   2.313   1.126  20.712 -3.6769  2.2748 -0.5610
 4224TIP3    H236868   2.304   1.095  20.564 -0.8894  0.5920 -0.4483
 4225TIP3   OH236869   2.638   5.891  20.353 -0.2114  0.2433 -0.2913
 4225TIP3    H136870   2.581   5.966  20.336 -1.2294  0.0598  1.9775
 4225TIP3    H236871   2.581   5.827  20.397  1.5829 -0.1134  1.6898
 4226TIP3   OH236872   1.252   5.929  17.585 -0.0624  0.1992  0.3878
 4226TIP3    H136873   1.187   5.860  17.570 -1.0504  0.7469  1.8660
 4226TIP3    H236874   1.336   5.883  17.582 -0.5482 -0.6833 -0.7229
 4227TIP3   OH236875   3.827   3.122  21.260  0.0895 -0.2745  0.2638
 4227TIP3    H136876   3.868   3.196  21.215  0.5711 -0.0731  1.0189
 4227TIP3    H236877   3.851   3.134  21.352 -3.0498  0.7945  1.0521
 4228TIP3   OH236878   2.032   4.614  17.683  0.0310  0.6049 -0.5025
 4228TIP3    H136879   2.056   4.690  17.735 -0.1773 -0.6592  1.5776
 4228TIP3    H236880   2.114   4.585  17.643  0.5495  0.6577  0.4896
 4229TIP3   OH236881   1.908   5.599  18.690  0.0014  0.3477  0.7585
 4229TIP3    H136882   1.987   5.649  18.711 -1.5299  3.6295 -0.5587
 4229TIP3    H236883   1.838   5.646  18.734 -1.7602  0.4366 -1.9237
 4230TIP3   OH236884   3.915   3.660  19.722  0.0523 -0.7083  0.3483
 4230TIP3    H136885   3.984   3.606  19.759 -0.6459 -2.0633 -0.2321
 4230TIP3    H236886   3.836   3.606  19.731 -0.4567 -0.2903 -1.3510
 4231TIP3   OH236887   0.098   5.145  18.188 -0.5086 -0.0925  0.3432
 4231TIP3    H136888   0.069   5.092  18.113  0.2237 -0.4101  0.2760
 4231TIP3    H236889   0.155   5.211  18.149 -0.1603 -0.2329  0.6094
 4232TIP3   OH236890   0.372   2.479  19.510 -0.0576 -0.6516  0.1732
 4232TIP3    H136891   0.277   2.473  19.498 -0.5455  0.2621  2.8263
 4232TIP3    H236892   0.392   2.571  19.497  0.2192 -0.6018  0.9171
 4233TIP3   OH236893   0.865   0.768  17.632 -0.0318 -0.0957 -0.5110
 4233TIP3    H136894   0.958   0.753  17.649  0.0322  0.8880  0.0358
 4233TIP3    H236895   0.863   0.828  17.558 -0.2442 -0.5427 -0.8708
 4234TIP3   OH236896   3.782   5.730  19.797  0.0180  0.5257 -0.3242
 4234TIP3    H136897   3.859   5.702  19.747  1.2617  2.6227  0.2548
 4234TIP3    H236898   3.818   5.761  19.880 -1.5120  1.1762  0.1243
 4235TIP3   OH236899   2.411   3.300  19.170 -0.0375  0.3940 -0.2356
 4235TIP3    H136900   2.476   3.366  19.193  1.3995 -0.7222 -0.9277
 4235TIP3    H236901   2.390   3.318  19.079  1.9925 -1.3486 -1.1108
 4236TIP3   OH236902   1.688   3.320  19.134  0.2402 -0.1502  0.1468
 4236TIP3    H136903   1.686   3.247  19.072 -0.5801  0.8606 -1.0628
 4236TIP3    H236904   1.782   3.339  19.144  0.6042 -2.3585  1.7658
 4237TIP3   OH236905   6.666   1.820  18.276 -0.6934 -0.2879 -0.7199
 4237TIP3    H136906   6.657   1.889  18.342 -0.1765  0.2856 -1.2232
 4237TIP3    H236907   6.752   1.781  18.295 -0.3302  0.1976 -1.3311
 4238TIP3   OH236908   4.367   0.510  20.617 -0.5426  0.1630 -0.4288
 4238TIP3    H136909   4.362   0.506  20.522 -1.2374 -0.4563 -0.3717
 4238TIP3    H236910   4.383   0.420  20.644  1.2483  0.5642 -0.0365
 4239TIP3   OH236911   6.143   4.214  18.181 -0.6552  0.1125 -0.3902
 4239TIP3    H136912   6.055   4.202  18.216 -0.5405  1.1365  0.2912
 4239TIP3    H236913   6.132   4.213  18.086 -1.0876 -1.8981 -0.3628
 4240TIP3   OH236914   4.305   1.098  19.669 -0.0416 -0.1081  0.1201
 4240TIP3    H136915   4.300   1.128  19.579  1.3694 -0.6433 -0.1647
 4240TIP3    H236916   4.366   1.159  19.711  0.5021 -0.7668  0.3069
 4241TIP3   OH236917   1.178   1.211  19.384 -0.0439  0.1771  0.2163
 4241TIP3    H136918   1.137   1.211  19.297 -1.1424 -0.5492  0.7166
 4241TIP3    H236919   1.232   1.290  19.384 -1.4688  1.2152 -0.4632
 4242TIP3   OH236920   5.903   5.059  19.010  0.1323  0.5134 -0.4997
 4242TIP3    H136921   5.993   5.061  19.043 -0.6720 -2.1203  2.3146
 4242TIP3    H236922   5.910   5.016  18.924  1.4976 -0.0609 -0.1308
 4243TIP3   OH236923   5.724   6.462  18.513  0.5081 -0.2699 -0.1317
 4243TIP3    H136924   5.774   6.395  18.467 -0.6277 -1.4645  0.3167
 4243TIP3    H236925   5.746   6.448  18.606  0.6794  0.3481 -0.0717
 4244TIP3   OH236926   0.605   3.084  19.284 -0.3384 -0.0170  0.1894
 4244TIP3    H136927   0.540   3.130  19.231  1.6537  1.4696 -1.0790
 4244TIP3    H236928   0.621   3.003  19.236 -3.4216 -1.9954  2.1288
 4245TIP3   OH236929   0.316   0.483  19.304 -0.9697  0.6335 -0.5290
 4245TIP3    H136930   0.411   0.492  19.314 -0.9045 -0.2160 -0.3408
 4245TIP3    H236931   0.298   0.522  19.218 -0.4519  0.8022 -0.5655
 4246TIP3   OH236932   4.457   0.180  19.468  0.2371  0.3478 -0.1966
 4246TIP3    H136933   4.420   0.259  19.509  1.8185  0.7995  0.4101
 4246TIP3    H236934   4.380   0.126  19.449 -0.6734  0.7326  2.0739
 4247TIP3   OH236935   2.931   5.522  19.520  0.3455  0.3202 -0.2965
 4247TIP3    H136936   2.974   5.485  19.596  0.5879  1.4070  0.1170
 4247TIP3    H236937   3.003   5.550  19.463  0.3529  3.7073  1.1492
 4248TIP3   OH236938   5.603   2.423  18.243 -0.1813 -0.0097  0.4462
 4248TIP3    H136939   5.629   2.482  18.173  0.5812 -0.8637 -0.0066
 4248TIP3    H236940   5.631   2.336  18.214  1.3861 -0.2317  2.3565
 4249TIP3   OH236941   3.790   3.430  19.957  0.2817 -0.0108  0.3081
 4249TIP3    H136942   3.755   3.420  20.045 -1.0755  0.0065 -0.1993
 4249TIP3    H236943   3.881   3.401  19.963 -0.2945 -1.7620  1.3181
 4250TIP3   OH236944   6.737   2.161  19.231 -0.0483 -0.4925  0.0009
 4250TIP3    H136945   6.824   2.174  19.269 -0.0733 -0.1667 -0.0536
 4250TIP3    H236946   6.685   2.122  19.302 -0.5786  1.6800  0.8757
 4251TIP3   OH236947   3.732   6.635  20.071  0.3290  0.0079 -0.3057
 4251TIP3    H136948   3.779   6.712  20.102  2.6262 -0.8716 -1.3609
 4251TIP3    H236949   3.787   6.600  20.000 -0.7692 -2.4310 -0.0686
 4252TIP3   OH236950   2.989   3.807  18.216  0.3954  0.3976 -0.0657
 4252TIP3    H136951   3.034   3.833  18.136  1.1321 -1.3142 -0.2435
 4252TIP3    H236952   3.016   3.717  18.231 -0.4473  0.3842  1.6250
 4253TIP3   OH236953   0.447   1.501  19.356  0.2580 -0.3608  0.7811
 4253TIP3    H136954   0.440   1.577  19.298 -0.0279 -0.6567  0.4261
 4253TIP3    H236955   0.440   1.538  19.444 -1.5407 -0.1548  0.5757
 4254TIP3   OH236956   5.775   3.068  20.374  0.4030  0.0392  0.1712
 4254TIP3    H136957   5.741   3.157  20.374  2.1043  0.7297  1.0195
 4254TIP3    H236958   5.838   3.067  20.301 -0.8629 -1.0221 -0.9638
 4255TIP3   OH236959   1.013   0.753  17.335  0.1457  0.0910 -0.2516
 4255TIP3    H136960   1.054   0.767  17.420 -1.0550 -0.5380  0.4557
 4255TIP3    H236961   0.939   0.815  17.334  0.7582  0.8345 -1.2811
 4256TIP3   OH236962   0.789   0.116  18.368 -0.4387  0.5608  0.0309
 4256TIP3    H136963   0.754   0.028  18.380  0.0932  0.2535 -0.6039
 4256TIP3    H236964   0.780   0.133  18.274  2.7763 -0.2925 -0.5767
 4257TIP3   OH236965   4.031   2.074  19.004 -0.2498 -0.2718  0.1533
 4257TIP3    H136966   4.062   2.023  19.078  0.3429  0.0065  0.1058
 4257TIP3    H236967   3.939   2.051  18.995 -0.7629  0.8631  1.9612
 4258TIP3   OH236968   1.701   5.700  20.492 -0.1241 -0.1545  0.2734
 4258TIP3    H136969   1.662   5.782  20.461 -0.8209 -0.7846 -0.5443
 4258TIP3    H236970   1.657   5.632  20.441  3.4861 -0.8220 -2.3354
 4259TIP3   OH236971   3.282   3.737  17.212 -0.3751 -0.4716  0.1022
 4259TIP3    H136972   3.200   3.753  17.260 -0.0536  0.0652  0.4903
 4259TIP3    H236973   3.257   3.743  17.120 -0.9328 -1.1532  0.2010
 4260TIP3   OH236974   5.738   3.627  20.331  0.2525  0.7657  0.1832
 4260TIP3    H136975   5.820   3.668  20.358  1.0450  1.2349 -2.6511
 4260TIP3    H236976   5.672   3.696  20.344  1.0201  1.8355 -1.3604
 4261TIP3   OH236977   3.056   6.663  17.961 -0.0241  0.4881  0.5201
 4261TIP3    H136978   3.095   6.749  17.976 -0.0924  0.6891 -0.4029
 4261TIP3    H236979   2.970   6.682  17.923  0.6352  0.0089 -1.2906
 4262TIP3   OH236980   0.408   2.086  19.706  0.9382 -0.1743  0.2577
 4262TIP3    H136981   0.491   2.038  19.710  0.7590 -0.5182 -0.0880
 4262TIP3    H236982   0.405   2.121  19.618  0.5659 -0.4382  0.1614
 4263TIP3   OH236983   5.524   5.109  19.233 -0.1166 -0.0936 -0.3698
 4263TIP3    H136984   5.555   5.197  19.210 -0.6600  0.4800  0.9857
 4263TIP3    H236985   5.570   5.088  19.314 -0.7356 -0.6553 -0.1600
 4264TIP3   OH236986   1.119   2.995  18.460  0.1298 -0.1133 -0.0904
 4264TIP3    H136987   1.121   3.009  18.554  0.0591  0.3437 -0.1555
 4264TIP3    H236988   1.030   3.018  18.434  0.8590  2.4662 -0.6582
 4265TIP3   OH236989   4.405   5.662  19.899 -0.1596  0.9217  0.6614
 4265TIP3    H136990   4.358   5.620  19.971  0.3053  1.2830  1.1822
 4265TIP3    H236991   4.447   5.589  19.853  1.0570  0.8227  1.8516
 4266TIP3   OH236992   5.184   1.993  18.561  0.6607 -0.5588  0.5672
 4266TIP3    H136993   5.252   1.982  18.495  0.6326 -0.2700  0.4851
 4266TIP3    H236994   5.110   1.942  18.528 -0.0942  1.2331 -0.7020
 4267TIP3   OH236995   4.897   6.172  19.542  0.6735 -0.0699 -0.1476
 4267TIP3    H136996   4.940   6.159  19.627 -0.1612  0.1242  0.3180
 4267TIP3    H236997   4.884   6.083  19.508 -1.5258 -0.3473  1.2443
 4268TIP3   OH236998   6.244   6.035  19.120  0.2500 -0.6122 -0.2707
 4268TIP3    H136999   6.211   5.961  19.170 -0.5864  1.0075  1.7126
 4268TIP3    H237000   6.225   6.111  19.174 -1.3147  1.3857 -3.3134
 4269TIP3   OH237001   3.791   0.318  17.590 -0.7955  0.2255 -0.1204
 4269TIP3    H137002   3.812   0.375  17.516  0.3897 -0.2120 -0.1328
 4269TIP3    H237003   3.704   0.284  17.570 -0.5245  0.1779 -1.2772
 4270TIP3   OH237004   4.656   0.971  20.226 -0.1696  0.1158  0.0025
 4270TIP3    H137005   4.561   0.964  20.217 -0.3169  1.3955  0.3329
 4270TIP3    H237006   4.691   0.931  20.147 -0.9153 -1.5140  0.4455
 4271TIP3   OH237007   4.466   5.975  19.515 -0.1158 -0.1612  0.2255
 4271TIP3    H137008   4.517   5.984  19.435 -0.6297  0.7683 -0.0107
 4271TIP3    H237009   4.393   5.919  19.491  1.8156 -3.2751  1.0866
 4272TIP3   OH237010   4.897   5.403  20.529  0.5213  0.1215  0.2301
 4272TIP3    H137011   4.968   5.421  20.591  0.1478  2.2312  0.1105
 4272TIP3    H237012   4.937   5.414  20.443  0.4956 -0.5504  0.1319
 4273TIP3   OH237013   4.980   0.393  19.840  0.4778  0.0425 -0.3049
 4273TIP3    H137014   5.070   0.389  19.808  0.1320  0.5754 -1.3846
 4273TIP3    H237015   4.947   0.303  19.829  0.5772  0.0668 -0.8345
 4274TIP3   OH237016   2.892   0.643  19.747  0.0591  0.1136 -0.5839
 4274TIP3    H137017   2.844   0.693  19.813  1.6090  1.9801 -0.7660
 4274TIP3    H237018   2.886   0.552  19.776  0.6383  0.8507  2.1002
 4275TIP3   OH237019   6.105   3.080  17.552 -0.5147  0.0961 -0.5058
 4275TIP3    H137020   6.169   3.152  17.549  3.7958 -3.3387 -1.5112
 4275TIP3    H237021   6.143   3.012  17.496 -2.8493 -4.0208  2.3574
 4276TIP3   OH237022   0.333   6.578  20.425 -0.0527 -0.7423  0.1682
 4276TIP3    H137023   0.317   6.492  20.463 -0.5589 -0.1873  1.2375
 4276TIP3    H237024   0.309   6.640  20.494  0.4893  0.2526 -0.5184
 4277TIP3   OH237025   5.793   3.986  19.229  0.2450  0.0891  0.2949
 4277TIP3    H137026   5.713   3.976  19.281 -0.7945  0.5489 -1.1704
 4277TIP3    H237027   5.782   3.927  19.155  0.7403  0.9936 -0.5236
 4278TIP3   OH237028   5.827   6.167  19.015  0.1840 -0.3892  0.1815
 4278TIP3    H137029   5.859   6.190  19.102  0.5946  0.3058 -0.1431
 4278TIP3    H237030   5.893   6.202  18.955 -0.0802 -0.8815 -0.4136
 4279TIP3   OH237031   4.525   6.425  20.066 -0.5527  0.7366  0.6109
 4279TIP3    H137032   4.589   6.478  20.018 -1.1619  0.7510 -0.2237
 4279TIP3    H237033   4.516   6.468  20.151  1.8362 -0.2674  1.4458
 4280TIP3   OH237034   1.856   2.605  19.960  0.3218 -0.2458 -0.0203
 4280TIP3    H137035   1.861   2.630  19.868 -0.7345 -1.8185 -0.5523
 4280TIP3    H237036   1.763   2.585  19.975  0.0124  2.2659  2.0600
 4281TIP3   OH237037   0.161   6.493  20.034 -0.3342  0.3167  0.0134
 4281TIP3    H137038   0.103   6.426  20.072 -2.7180  2.6690  0.8325
 4281TIP3    H237039   0.147   6.485  19.940  0.8699 -1.4816 -0.0760
 4282TIP3   OH237040   6.622   5.781  19.734 -0.1517 -0.0382 -0.3925
 4282TIP3    H137041   6.705   5.815  19.702 -0.3308 -0.1206 -0.9620
 4282TIP3    H237042   6.556   5.840  19.698 -0.3613 -0.1665 -0.2206
 4283TIP3   OH237043   0.005   1.272  20.411  0.1010  0.3476  0.2295
 4283TIP3    H137044   0.017   1.360  20.375 -0.7998  0.5553  0.4173
 4283TIP3    H237045   0.093   1.235  20.412  0.3363  0.8307 -0.9028
 4284TIP3   OH237046   1.996   5.713  20.454 -0.1716 -0.4056 -0.7229
 4284TIP3    H137047   1.905   5.722  20.483 -0.2160 -0.1481 -0.9417
 4284TIP3    H237048   2.007   5.780  20.387 -0.1206 -1.1151 -1.4402
 4285TIP3   OH237049   4.839   0.783  20.087  0.4300 -0.0111 -0.2185
 4285TIP3    H137050   4.858   0.744  20.002  1.5027 -0.9949  0.4587
 4285TIP3    H237051   4.818   0.709  20.144 -2.5152  0.7522 -0.1030
 4286TIP3   OH237052   0.480   3.225  19.101 -0.1115 -0.0171  0.0310
 4286TIP3    H137053   0.452   3.317  19.096  1.6602  0.6040  0.4839
 4286TIP3    H237054   0.435   3.182  19.028  0.0446  1.5275 -1.0364
 4287TIP3   OH237055   1.888   2.187  20.127 -0.0257  0.2656  0.2367
 4287TIP3    H137056   1.959   2.215  20.069 -1.8628 -0.4703 -2.5946
 4287TIP3    H237057   1.911   2.098  20.153  1.2735  0.9308  1.5459
 4288TIP3   OH237058   1.868   6.577  18.652 -0.3937 -0.0816  0.0053
 4288TIP3    H137059   1.773   6.575  18.653 -0.4000 -0.3928 -0.6181
 4288TIP3    H237060   1.890   6.667  18.675 -0.7603 -0.5701  2.4986
 4289TIP3   OH237061   1.458   1.164  20.470 -0.5985  0.0787 -0.0389
 4289TIP3    H137062   1.427   1.249  20.502 -0.9856 -0.4850  1.0940
 4289TIP3    H237063   1.512   1.186  20.394 -1.8685  1.2446 -0.6426
 4290TIP3   OH237064   4.415   1.195  20.791 -0.5133 -0.0700  0.0490
 4290TIP3    H137065   4.429   1.287  20.770 -2.6021  0.6350  1.3532
 4290TIP3    H237066   4.420   1.192  20.887 -3.7709 -0.5471  0.3360
 4291TIP3   OH237067   3.100   5.160  19.679  0.6195 -0.0473  0.3517
 4291TIP3    H137068   3.190   5.148  19.707  1.2024 -0.2193 -1.4655
 4291TIP3    H237069   3.105   5.225  19.609 -0.7486  0.3606  0.5981
 4292TIP3   OH237070   4.705   4.494  18.974 -0.5324 -0.2064  0.0824
 4292TIP3    H137071   4.790   4.480  19.016 -1.3099 -0.0087  1.7883
 4292TIP3    H237072   4.664   4.408  18.972  0.1178 -0.5290 -1.7951
 4293TIP3   OH237073   3.236   3.425  20.689 -0.1034 -0.2145  0.1282
 4293TIP3    H137074   3.293   3.350  20.670 -1.1597 -0.8844 -0.4657
 4293TIP3    H237075   3.294   3.488  20.732  0.4751 -1.9861  2.1210
 4294TIP3   OH237076   4.308   2.255  19.136 -0.2434 -0.2474 -0.1093
 4294TIP3    H137077   4.261   2.185  19.180  2.6193 -1.4448  1.2718
 4294TIP3    H237078   4.329   2.220  19.049 -1.2071  0.0431 -0.4800
 4295TIP3   OH237079   4.015   4.331  17.688 -0.7563  0.0602 -0.0841
 4295TIP3    H137080   3.968   4.379  17.756 -1.9311  0.5082 -1.1898
 4295TIP3    H237081   3.953   4.266  17.656  0.5040 -1.6506  0.7375
 4296TIP3   OH237082   1.272   5.147  18.123 -0.4190  0.7716 -0.2480
 4296TIP3    H137083   1.325   5.142  18.044 -2.9855 -0.8852 -2.0164
 4296TIP3    H237084   1.284   5.061  18.165  1.4607  1.8677  1.6593
 4297TIP3   OH237085   2.266   0.192  20.914  0.3179 -0.4919 -0.1792
 4297TIP3    H137086   2.333   0.222  20.976 -0.2967 -0.8556  0.6822
 4297TIP3    H237087   2.315   0.141  20.850  0.7903 -1.4651  0.9033
 4298TIP3   OH237088   2.840   2.459  18.416 -0.7052  0.0268 -0.0281
 4298TIP3    H137089   2.867   2.494  18.331 -2.0945  1.7516  0.1850
 4298TIP3    H237090   2.918   2.469  18.471  0.3239 -1.4517 -1.1427
 4299TIP3   OH237091   2.396   4.816  19.647 -0.1277 -0.2172 -0.0475
 4299TIP3    H137092   2.310   4.795  19.610 -0.5553  0.2779  0.6385
 4299TIP3    H237093   2.418   4.902  19.610  0.6732 -0.9044 -1.2284
 4300TIP3   OH237094   4.682   4.807  19.668  0.5138  0.0740  0.4808
 4300TIP3    H137095   4.620   4.799  19.740 -0.8182 -1.1214 -0.7179
 4300TIP3    H237096   4.629   4.790  19.589  1.5888  2.6924 -0.9266
 4301TIP3   OH237097   4.673   4.605  19.968 -0.1574 -0.0632  0.4958
 4301TIP3    H137098   4.694   4.698  19.976 -0.5573  0.0226  0.5632
 4301TIP3    H237099   4.737   4.561  20.025  0.0324  0.1685  0.4622
 4302TIP3   OH237100   0.036   1.245  19.747  0.0518 -0.0764  0.6898
 4302TIP3    H137101   0.108   1.204  19.698  0.1357 -0.5513  1.2034
 4302TIP3    H237102   0.022   1.329  19.702  0.2788 -0.4014 -0.0085
 4303TIP3   OH237103   5.366   3.803  19.710  0.3639  0.1744  0.4320
 4303TIP3    H137104   5.458   3.786  19.692  0.1381  0.6813 -1.3568
 4303TIP3    H237105   5.365   3.888  19.754  0.7122  0.5351 -0.2403
 4304TIP3   OH237106   5.607   2.717  20.281 -0.1245  0.0787 -0.1947
 4304TIP3    H137107   5.528   2.749  20.325 -0.0907  0.0725 -0.1278
 4304TIP3    H237108   5.574   2.658  20.213 -0.2694  1.5046 -1.4070
 4305TIP3   OH237109   6.461   0.067  17.968 -0.0045  0.4203 -0.0338
 4305TIP3    H137110   6.494   0.140  18.020  0.3171 -1.2674  2.3320
 4305TIP3    H237111   6.537   0.036  17.919 -0.1051  1.5166 -0.9224
 4306TIP3   OH237112   4.513   4.267  18.931  0.1641 -0.4306  0.3241
 4306TIP3    H137113   4.426   4.301  18.912 -0.3816 -1.1972  1.3314
 4306TIP3    H237114   4.515   4.181  18.890  0.9608  0.1394 -0.8700
 4307TIP3   OH237115   0.557   6.680  20.199 -0.6927 -0.4030  0.3455
 4307TIP3    H137116   0.488   6.687  20.133 -0.2050  0.3385 -0.1010
 4307TIP3    H237117   0.526   6.733  20.272 -0.0094  1.0618 -0.3898
 4308TIP3   OH237118   5.325   3.045  17.793 -0.6030  0.3010 -0.3216
 4308TIP3    H137119   5.287   2.964  17.827  0.5519 -0.2989 -0.3872
 4308TIP3    H237120   5.271   3.066  17.717 -2.4960  1.0250  1.1539
 4309TIP3   OH237121   0.080   6.294  18.957 -0.5241  0.1219 -0.0603
 4309TIP3    H137122   0.003   6.351  18.954 -1.2764 -0.9317 -1.8675
 4309TIP3    H237123   0.136   6.334  19.024 -1.2780  2.6487 -0.8135
 4310TIP3   OH237124   3.032   4.577  17.401  0.1686  0.7114  0.5108
 4310TIP3    H137125   3.015   4.562  17.308 -0.7047 -2.6659  1.0715
 4310TIP3    H237126   3.061   4.668  17.406 -0.2455  1.1687 -2.9677
 4311TIP3   OH237127   4.996   3.595  19.057  0.0359  0.2440 -0.1077
 4311TIP3    H137128   4.952   3.603  18.972  1.0181  0.9084 -0.5702
 4311TIP3    H237129   4.924   3.586  19.120 -0.7298  0.4428 -0.9322
 4312TIP3   OH237130   2.862   4.524  18.751  0.2432  0.4445 -0.4052
 4312TIP3    H137131   2.943   4.473  18.756 -0.1819 -0.2116 -0.0492
 4312TIP3    H237132   2.891   4.615  18.751  1.0504  0.2118 -1.5162
 4313TIP3   OH237133   2.820   3.787  19.244 -0.0196  0.1726 -0.1148
 4313TIP3    H137134   2.842   3.855  19.308 -0.7491  0.1799  0.1426
 4313TIP3    H237135   2.738   3.817  19.206  0.0919 -0.1486 -0.6068
 4314TIP3   OH237136   1.995   0.775  18.709 -0.5845  0.2900  0.2677
 4314TIP3    H137137   1.958   0.739  18.790 -1.0390  1.4340  0.5925
 4314TIP3    H237138   1.931   0.840  18.680  0.0142  0.5441 -0.5190
 4315TIP3   OH237139   2.046   5.810  20.134 -0.2243 -0.2441  0.0532
 4315TIP3    H137140   2.026   5.886  20.189 -0.4282  0.2232 -0.6549
 4315TIP3    H237141   1.967   5.756  20.137  0.6767 -1.5945  2.3682
 4316TIP3   OH237142   4.895   5.655  19.967 -0.2678 -0.1196 -0.1208
 4316TIP3    H137143   4.957   5.721  19.998 -0.0999 -0.4770  0.3198
 4316TIP3    H237144   4.945   5.574  19.966  0.0912  0.0804 -2.5249
 4317TIP3   OH237145   2.497   4.038  20.253 -0.4920 -0.8778 -0.1930
 4317TIP3    H137146   2.564   4.072  20.194  0.3765 -1.5145  0.4078
 4317TIP3    H237147   2.523   4.070  20.340 -0.9297 -1.1818  0.0544
 4318TIP3   OH237148   1.629   1.017  19.713  0.1266 -0.0041 -0.2099
 4318TIP3    H137149   1.558   0.973  19.667  1.1647  0.2066 -2.0957
 4318TIP3    H237150   1.598   1.107  19.726 -1.0584 -0.6278  1.5608
 4319TIP3   OH237151   2.233   1.579  19.375 -0.0879  0.2512  0.8027
 4319TIP3    H137152   2.263   1.597  19.465 -3.1967  0.6306  1.8912
 4319TIP3    H237153   2.193   1.662  19.347  2.6737  0.8611 -1.8946
 4320TIP3   OH237154   0.128   4.210  20.488  0.0079  0.7381  0.3816
 4320TIP3    H137155   0.099   4.191  20.399  0.0809 -0.2565  0.5562
 4320TIP3    H237156   0.047   4.225  20.536 -0.0662  0.6600  0.2820
 4321TIP3   OH237157   2.710   3.589  18.772  0.5549 -0.1852 -0.1731
 4321TIP3    H137158   2.686   3.559  18.859 -0.4471 -0.4809 -0.5380
 4321TIP3    H237159   2.745   3.677  18.785 -0.7682  0.2740  0.3796
 4322TIP3   OH237160   0.014   0.248  20.419  0.0637  0.0478  0.2271
 4322TIP3    H137161   0.053   0.284  20.499  1.1110  1.6318 -0.9423
 4322TIP3    H237162   0.069   0.171  20.398  2.7115  2.1747 -1.3348
 4323TIP3   OH237163   3.470   2.192  18.869  0.6716  0.0976 -0.2201
 4323TIP3    H137164   3.400   2.248  18.901  0.4640  0.3509 -1.0951
 4323TIP3    H237165   3.425   2.118  18.827  0.8434  1.1581 -2.4166
 4324TIP3   OH237166   2.629   3.442  19.225  0.5664 -0.0330  0.4494
 4324TIP3    H137167   2.601   3.459  19.315  1.2756 -0.6079  0.7868
 4324TIP3    H237168   2.707   3.387  19.234  0.4734 -0.3398 -0.5223
 4325TIP3   OH237169   6.382   5.229  18.289 -0.0894  0.2453 -0.1544
 4325TIP3    H137170   6.398   5.158  18.227  4.7350  2.1990 -1.5230
 4325TIP3    H237171   6.368   5.184  18.373  0.2246 -2.3527 -1.3928
 4326TIP3   OH237172   3.645   3.542  19.758 -0.1506  0.3690  0.4596
 4326TIP3    H137173   3.648   3.634  19.784  1.9836  0.4891 -0.0807
 4326TIP3    H237174   3.687   3.495  19.830  1.3983  0.1726 -0.5258
 4327TIP3   OH237175   1.588   6.090  18.514  0.3744  0.8819  0.3653
 4327TIP3    H137176   1.598   5.997  18.498 -1.8676  0.8666 -1.4972
 4327TIP3    H237177   1.677   6.123  18.523  1.2860 -1.1547 -0.6854
 4328TIP3   OH237178   1.341   0.496  17.526  0.1373 -0.6347 -0.0055
 4328TIP3    H137179   1.371   0.408  17.546 -0.8569 -1.3129 -1.3867
 4328TIP3    H237180   1.356   0.507  17.432 -1.1312  0.0869 -0.1580
 4329TIP3   OH237181   6.123   0.388  18.541  0.4734 -0.3946  0.0222
 4329TIP3    H137182   6.060   0.398  18.612  0.9004  1.6942  0.1607
 4329TIP3    H237183   6.203   0.358  18.584  0.4870  0.0500  0.3101
 4330TIP3   OH237184   4.364   1.504  19.583 -0.6616 -0.2952 -0.6390
 4330TIP3    H137185   4.390   1.446  19.512 -0.5718  0.7568 -1.4819
 4330TIP3    H237186   4.350   1.589  19.542  3.0662  1.3842  1.0465
 4331TIP3   OH237187   3.396   1.128  19.133  0.0646  0.4222  0.6902
 4331TIP3    H137188   3.386   1.067  19.207 -1.5787  1.0923  1.0581
 4331TIP3    H237189   3.410   1.213  19.174  0.0126  0.6628  0.2066
 4332TIP3   OH237190   1.763   2.693  19.492 -0.0449  0.5293 -0.3250
 4332TIP3    H137191   1.672   2.704  19.464 -0.0241 -0.1247 -0.6761
 4332TIP3    H237192   1.808   2.659  19.415  0.1741 -0.5741  0.2596
 4333TIP3   OH237193   1.085   3.697  18.554 -0.1736 -0.4581  0.4025
 4333TIP3    H137194   1.029   3.722  18.627 -1.7347 -0.0341 -0.8800
 4333TIP3    H237195   1.040   3.732  18.477  1.5947 -0.5809 -0.7334
 4334TIP3   OH237196   5.691   3.402  19.499 -0.4430 -0.0806 -0.0646
 4334TIP3    H137197   5.756   3.438  19.440 -0.3337 -0.4656 -0.1809
 4334TIP3    H237198   5.636   3.346  19.443 -0.7496  0.0800  0.0694
 4335TIP3   OH237199   4.688   4.876  19.982  0.3698  0.1366 -0.3330
 4335TIP3    H137200   4.682   4.934  20.058 -0.4160 -0.0343 -0.2509
 4335TIP3    H237201   4.684   4.935  19.906 -1.0167  0.1833 -0.2629
 4336TIP3   OH237202   0.294   3.637  19.269  0.1601  0.3665 -0.3785
 4336TIP3    H137203   0.362   3.645  19.202  0.7828 -1.3424  0.0071
 4336TIP3    H237204   0.212   3.650  19.221  0.5932 -0.8103 -1.4899
 4337TIP3   OH237205   3.812   6.284  20.636  0.1307  0.2111  0.1640
 4337TIP3    H137206   3.846   6.355  20.583  1.6452 -0.7334 -0.1962
 4337TIP3    H237207   3.863   6.288  20.717 -1.8257  1.3454  1.4215
 4338TIP3   OH237208   3.015   3.592  19.365 -0.0409  0.7328 -0.5957
 4338TIP3    H137209   2.941   3.622  19.312 -1.0542  1.1701  1.0086
 4338TIP3    H237210   2.985   3.511  19.406 -0.1935  1.6329  1.1602
 4339TIP3   OH237211   0.427   3.101  18.825 -0.1753  0.1844 -0.1612
 4339TIP3    H137212   0.393   3.168  18.766  0.6897  0.5380 -0.2694
 4339TIP3    H237213   0.430   3.021  18.772  0.4575  0.4670 -0.5634
 4340TIP3   OH237214   6.155   0.525  18.988  0.4030 -0.0344  0.1067
 4340TIP3    H137215   6.214   0.461  19.027 -0.0625 -0.5066  0.0470
 4340TIP3    H237216   6.144   0.496  18.897  3.9549  2.7578 -1.4564
 4341TIP3   OH237217   0.022   0.939  17.995 -0.0604 -0.2876  0.4570
 4341TIP3    H137218   0.014   0.971  18.085  2.5161 -0.5903  0.8500
 4341TIP3    H237219  -0.023   1.006  17.943  2.0427  2.1862  1.5949
 4342TIP3   OH237220   1.418   2.578  20.787 -0.2913 -0.0482 -0.0721
 4342TIP3    H137221   1.379   2.527  20.715  2.1954 -1.3679 -0.5830
 4342TIP3    H237222   1.402   2.669  20.763 -0.7168 -0.4909 -1.6066
 4343TIP3   OH237223   3.844   3.830  17.617 -0.2377  0.1508 -0.1637
 4343TIP3    H137224   3.777   3.797  17.678  0.4835  0.8935  1.0834
 4343TIP3    H237225   3.820   3.793  17.532 -1.1982 -1.0424  0.5967
 4344TIP3   OH237226   3.223   1.987  18.119 -0.6886  0.0781 -0.5978
 4344TIP3    H137227   3.227   1.979  18.215 -0.5772  0.7854 -0.5374
 4344TIP3    H237228   3.307   1.952  18.089 -1.0568 -0.9238 -0.5048
 4345TIP3   OH237229   2.157   5.872  17.337 -0.1858 -0.4936  0.6001
 4345TIP3    H137230   2.100   5.796  17.348  1.9811 -2.1747  0.7609
 4345TIP3    H237231   2.212   5.872  17.415 -0.1315  1.2795  0.5935
 4346TIP3   OH237232   3.499   2.934  18.271  0.6696  0.1213 -0.0198
 4346TIP3    H137233   3.430   2.892  18.219  0.1571 -0.4907  1.1092
 4346TIP3    H237234   3.579   2.887  18.248  0.5532  0.2319 -0.6628
 4347TIP3   OH237235   2.888   5.291  18.920 -0.0975 -0.4518  0.2164
 4347TIP3    H137236   2.804   5.301  18.874 -1.7831 -0.7176  3.0073
 4347TIP3    H237237   2.914   5.201  18.903 -0.5588 -0.4905 -0.3315
 4348TIP3   OH237238   5.398   0.255  20.231 -0.7315  0.2460  0.3817
 4348TIP3    H137239   5.379   0.249  20.325 -0.4438 -0.0063  0.4265
 4348TIP3    H237240   5.343   0.188  20.190  0.5330 -0.9668  0.5919
 4349TIP3   OH237241   1.188   1.213  18.574 -0.3657 -0.1002 -0.1044
 4349TIP3    H137242   1.186   1.208  18.669 -0.7049  0.2985 -0.0834
 4349TIP3    H237243   1.099   1.190  18.547 -0.5168  0.6568 -0.2700
 4350TIP3   OH237244   6.468   2.944  19.798  0.6817 -0.2609 -0.2359
 4350TIP3    H137245   6.547   2.934  19.851 -0.2926  0.2161  1.3520
 4350TIP3    H237246   6.496   3.001  19.726  1.7754 -0.0438  0.3337
 4351TIP3   OH237247   5.562   5.232  19.979  0.0457  0.4359 -0.4470
 4351TIP3    H137248   5.539   5.254  20.069  0.8819  2.3096 -0.6485
 4351TIP3    H237249   5.635   5.171  19.987 -0.3505  0.0358  0.1477
 4352TIP3   OH237250   6.126   6.285  17.664  0.2177  0.1412 -0.2677
 4352TIP3    H137251   6.103   6.369  17.705  0.3200 -0.2233  0.5573
 4352TIP3    H237252   6.198   6.307  17.605  0.2726  0.6325 -0.0290
 4353TIP3   OH237253   1.433   5.344  18.956  0.7573 -0.6454 -0.1506
 4353TIP3    H137254   1.434   5.250  18.970 -0.1430 -0.7383 -0.6187
 4353TIP3    H237255   1.447   5.382  19.042  3.6926 -1.1785 -0.2731
 4354TIP3   OH237256   3.470   0.351  18.722  0.0402  0.1109  0.4194
 4354TIP3    H137257   3.498   0.326  18.810 -0.3749  0.7204  0.7356
 4354TIP3    H237258   3.525   0.299  18.664  0.0165 -0.6285  1.0352
 4355TIP3   OH237259   6.417   5.919  19.587  0.5127  0.3428 -0.0464
 4355TIP3    H137260   6.369   5.840  19.563  2.6749 -0.6126 -1.4911
 4355TIP3    H237261   6.410   5.975  19.509 -0.3600  1.2770  0.6844
 4356TIP3   OH237262   6.048   5.597  18.942 -0.0127  0.2653 -0.3367
 4356TIP3    H137263   6.038   5.686  18.978 -2.1549  0.4786 -1.3156
 4356TIP3    H237264   5.991   5.543  18.996  0.9245 -0.4597 -0.0469
 4357TIP3   OH237265   5.608   5.142  20.533 -1.2431  0.3064 -0.1520
 4357TIP3    H137266   5.658   5.093  20.598 -1.1808  0.9281  0.2832
 4357TIP3    H237267   5.618   5.092  20.452 -0.7228 -0.0938  0.1515
 4358TIP3   OH237268   4.717   3.426  19.103  0.4894  0.2352 -0.3316
 4358TIP3    H137269   4.732   3.351  19.161  1.0688 -0.3153 -1.1734
 4358TIP3    H237270   4.737   3.502  19.157  0.9480 -0.2609  0.2187
 4359TIP3   OH237271   4.052   5.492  20.041 -0.0868  0.2717  0.1748
 4359TIP3    H137272   4.069   5.576  20.084 -0.3290  1.1718 -1.4396
 4359TIP3    H237273   4.122   5.435  20.073  0.3472  1.2083  0.9499
 4360TIP3   OH237274   5.012   2.425  18.622 -0.1727  0.2505  0.1379
 4360TIP3    H137275   5.028   2.476  18.701  1.3042  0.1911 -0.0762
 4360TIP3    H237276   5.095   2.379  18.607  0.0772  1.2974 -2.1835
 4361TIP3   OH237277   2.124   4.720  19.595 -0.3553  0.2059 -0.1088
 4361TIP3    H137278   2.067   4.645  19.583  0.1898 -0.0763 -1.0364
 4361TIP3    H237279   2.138   4.725  19.690 -0.5652 -0.7277 -0.0199
 4362TIP3   OH237280   2.259   5.087  18.019  0.3391  0.4228 -0.2400
 4362TIP3    H137281   2.207   5.164  18.042  0.4364  0.1430  0.9983
 4362TIP3    H237282   2.248   5.028  18.094  0.3696 -0.7119 -1.1110
 4363TIP3   OH237283   4.285   3.297  19.128  0.3676  0.4582 -0.7052
 4363TIP3    H137284   4.260   3.206  19.149  0.3701  0.0129 -2.4956
 4363TIP3    H237285   4.214   3.350  19.165 -0.3220 -0.3759 -0.7967
 4364TIP3   OH237286   2.437   5.365  20.909 -0.0093 -0.5680 -0.2667
 4364TIP3    H137287   2.491   5.330  20.838  0.3863 -0.6330  0.0657
 4364TIP3    H237288   2.396   5.288  20.948  1.1457 -0.7041  0.7000
 4365TIP3   OH237289   4.303   5.583  20.170 -0.4069  0.3813  0.1692
 4365TIP3    H137290   4.300   5.489  20.150  0.4834  0.6906 -1.5952
 4365TIP3    H237291   4.257   5.591  20.254 -0.2042 -1.6724  0.5325
 4366TIP3   OH237292   0.451   6.065  19.264 -0.4417 -0.7696  0.4008
 4366TIP3    H137293   0.378   6.126  19.259  0.9191  1.0056  1.0216
 4366TIP3    H237294   0.421   5.995  19.321 -1.6446 -0.0610  0.6663
 4367TIP3   OH237295   4.409   3.011  17.191  0.2203 -0.2628 -0.4740
 4367TIP3    H137296   4.373   2.923  17.193 -1.2952  0.2413 -2.4909
 4367TIP3    H237297   4.333   3.068  17.201  0.8938  0.8184 -1.3208
 4368TIP3   OH237298   5.536   2.164  19.186  0.1517  0.5994  0.2743
 4368TIP3    H137299   5.489   2.167  19.103 -0.0491  1.1490  0.4089
 4368TIP3    H237300   5.495   2.230  19.240  0.8720  0.8718  0.5043
 4369TIP3   OH237301   3.139   5.631  19.127  0.3870  0.1992 -0.1434
 4369TIP3    H137302   3.124   5.617  19.220 -1.6382 -0.1366 -0.4809
 4369TIP3    H237303   3.170   5.547  19.094  0.1591  0.0407  0.0481
 4370TIP3   OH237304   3.104   0.917  19.945  0.2030  0.3958  0.4973
 4370TIP3    H137305   3.132   0.835  19.986  0.0685  0.7869  1.3904
 4370TIP3    H237306   3.073   0.971  20.018 -3.0544 -0.0630 -0.3982
 4371TIP3   OH237307   2.285   2.334  20.465  0.4323  0.4969  0.0226
 4371TIP3    H137308   2.302   2.284  20.545  0.8060 -0.9322 -0.9168
 4371TIP3    H237309   2.371   2.344  20.425  0.4321  2.3146  0.3979
 4372TIP3   OH237310   0.054   0.725  19.143  0.2925  0.4431  0.2218
 4372TIP3    H137311   0.084   0.816  19.133 -0.6903  0.9155  1.3894
 4372TIP3    H237312   0.056   0.709  19.237 -0.1924 -0.5247  0.0783
 4373TIP3   OH237313   3.285   4.457  18.352  0.4657 -0.5163 -0.2639
 4373TIP3    H137314   3.359   4.504  18.390 -0.3818 -0.0431  0.8958
 4373TIP3    H237315   3.243   4.520  18.295 -0.3448 -0.0045  0.8566
 4374TIP3   OH237316   0.531   4.922  19.869 -0.1135  0.3806  0.1781
 4374TIP3    H137317   0.617   4.928  19.909 -0.2799  2.7363  0.2757
 4374TIP3    H237318   0.545   4.944  19.777 -0.6174  0.8012  0.1990
 4375TIP3   OH237319   1.133   2.708  20.503  0.3748  0.7484  0.0817
 4375TIP3    H137320   1.125   2.717  20.408  2.5791 -0.5987 -0.2910
 4375TIP3    H237321   1.218   2.746  20.524 -0.8325  2.7484  1.8554
 4376TIP3   OH237322   5.532   6.498  18.323 -0.1623  0.1464  0.0801
 4376TIP3    H137323   5.604   6.503  18.386  0.5037  2.1597 -0.7754
 4376TIP3    H237324   5.558   6.429  18.262  0.5722  0.1815  0.3409
 4377TIP3   OH237325   2.702   1.846  20.234  0.0629  0.0630 -0.0964
 4377TIP3    H137326   2.625   1.803  20.271  0.1769  0.5278  0.7086
 4377TIP3    H237327   2.715   1.804  20.149 -1.0258 -0.0735 -0.2015
 4378TIP3   OH237328   1.335   1.722  18.697  0.1952 -0.8848 -0.3577
 4378TIP3    H137329   1.266   1.681  18.645 -0.1486 -0.2150 -0.4518
 4378TIP3    H237330   1.321   1.690  18.786  1.9724 -3.5870 -0.9339
 4379TIP3   OH237331   3.680   2.676  18.261 -0.2419 -0.5918  0.5080
 4379TIP3    H137332   3.684   2.591  18.218  1.0673 -0.0956 -0.4169
 4379TIP3    H237333   3.758   2.678  18.317 -0.6761 -0.2903  1.1178
 4380TIP3   OH237334   0.282   0.335  17.674  0.2466 -0.3613 -0.4962
 4380TIP3    H137335   0.262   0.425  17.701  0.9340 -0.5475  0.6993
 4380TIP3    H237336   0.376   0.334  17.661  0.3751 -1.1094  0.3652
 4381TIP3   OH237337   2.272   2.744  20.144 -0.3465 -0.1648 -0.2623
 4381TIP3    H137338   2.177   2.732  20.137 -0.3832 -0.1936  0.2813
 4381TIP3    H237339   2.284   2.838  20.154 -0.3169 -0.1654 -0.2891
 4382TIP3   OH237340   0.966   1.642  17.437  0.6525 -0.6864  0.3364
 4382TIP3    H137341   0.958   1.666  17.345  2.5190  2.0830  0.7860
 4382TIP3    H237342   0.954   1.547  17.438 -2.9547 -0.4675 -2.2444
 4383TIP3   OH237343   3.957   5.667  19.514 -0.0498 -0.0710  0.0261
 4383TIP3    H137344   3.887   5.626  19.463 -1.4639  1.2979  0.7943
 4383TIP3    H237345   4.000   5.727  19.453 -1.7977  1.6356  0.3881
 4384TIP3   OH237346   4.972   5.095  18.086  0.7789 -0.1248  0.2178
 4384TIP3    H137347   4.992   5.134  18.001  1.5938  0.9773  0.8919
 4384TIP3    H237348   5.058   5.074  18.123  0.4846  0.4421  1.2389
 4385TIP3   OH237349   5.152   4.655  17.908 -0.3021 -0.6248  0.2422
 4385TIP3    H137350   5.197   4.738  17.891 -0.9502 -0.2925  0.1093
 4385TIP3    H237351   5.066   4.681  17.941 -1.3710 -1.1926 -1.8784
 4386TIP3   OH237352   2.910   4.009  20.501  0.4186 -0.2052 -0.3185
 4386TIP3    H137353   2.979   3.991  20.437  0.8503 -0.0389  0.0964
 4386TIP3    H237354   2.874   3.923  20.522  0.6852 -0.3217 -0.3336
 4387TIP3   OH237355   5.539   5.663  18.149 -0.1426 -0.0647 -0.4789
 4387TIP3    H137356   5.588   5.679  18.229 -0.0065 -0.9018 -0.3837
 4387TIP3    H237357   5.602   5.678  18.078 -0.3073  0.8322 -0.4435
 4388TIP3   OH237358   4.462   6.693  18.904 -0.1167  0.1883 -0.0591
 4388TIP3    H137359   4.440   6.785  18.918 -0.3307  0.0964  0.2379
 4388TIP3    H237360   4.488   6.687  18.812 -1.2563  0.3186 -0.4019
 4389TIP3   OH237361   3.521   0.834  17.502  0.4474  0.3996  0.0221
 4389TIP3    H137362   3.507   0.839  17.407 -1.3364  1.1910  0.3046
 4389TIP3    H237363   3.509   0.923  17.533  2.1047  0.3614  0.9057
 4390TIP3   OH237364   4.406   1.324  19.369 -0.1750 -0.4381  0.5298
 4390TIP3    H137365   4.345   1.351  19.300  0.4125 -0.4398 -0.0049
 4390TIP3    H237366   4.369   1.243  19.404 -0.3726 -0.5499  0.0701
 4391TIP3   OH237367   1.015   3.355  20.396 -0.2627 -0.3031 -0.2582
 4391TIP3    H137368   1.107   3.382  20.396 -0.4682  0.4247 -1.0733
 4391TIP3    H237369   1.017   3.266  20.360  0.4147 -1.5197  2.4983
 4392TIP3   OH237370   4.047   0.237  18.118 -0.1356  0.2083  0.0651
 4392TIP3    H137371   4.061   0.177  18.192 -0.3250 -1.4181 -1.1679
 4392TIP3    H237372   4.064   0.184  18.040 -4.2747  0.4699 -1.2908
 4393TIP3   OH237373   2.800   3.301  20.533  0.1400 -0.5075  0.8916
 4393TIP3    H137374   2.772   3.209  20.540 -2.4493 -0.2324 -2.7513
 4393TIP3    H237375   2.894   3.296  20.517 -0.1460 -2.7327 -0.6048
 4394TIP3   OH237376   5.590   1.085  18.695  0.6177  0.1179 -0.6573
 4394TIP3    H137377   5.600   1.082  18.600  1.2291  0.3909 -0.6112
 4394TIP3    H237378   5.574   1.177  18.714 -1.1254 -0.1559 -0.6225
 4395TIP3   OH237379   4.144   3.956  18.462 -0.1927  0.0203 -0.0761
 4395TIP3    H137380   4.223   3.904  18.447 -1.0211 -1.4276  0.4062
 4395TIP3    H237381   4.073   3.892  18.462 -1.4677  1.3854 -1.2008
 4396TIP3   OH237382   5.922   6.365  20.563 -0.0821 -0.5148 -0.1373
 4396TIP3    H137383   5.827   6.379  20.566  0.0744  1.3152 -1.7588
 4396TIP3    H237384   5.935   6.305  20.489  0.0086 -1.0740  0.3282
 4397TIP3   OH237385   4.394   6.005  20.905  0.1906  0.2760  0.4331
 4397TIP3    H137386   4.387   5.914  20.933 -0.9985  0.7530  1.8162
 4397TIP3    H237387   4.432   6.000  20.818 -0.1942 -1.5666  0.3226
 4398TIP3   OH237388   3.817   3.355  20.250  0.8077  0.4482  0.6108
 4398TIP3    H137389   3.810   3.447  20.277  1.2895  0.6280  0.1577
 4398TIP3    H237390   3.758   3.308  20.308 -2.2590  1.4875 -1.4401
 4399TIP3   OH237391   2.552   1.971  18.095  0.1028  0.0775  0.3869
 4399TIP3    H137392   2.491   1.950  18.024 -0.0452  1.1953  0.1688
 4399TIP3    H237393   2.630   2.004  18.051  0.5053 -0.4450  0.7012
 4400TIP3   OH237394   1.893   2.555  18.562  0.3433  0.1961 -0.2025
 4400TIP3    H137395   1.974   2.506  18.552  1.9051  2.6194 -0.3580
 4400TIP3    H237396   1.914   2.643  18.530 -2.3352  0.9381 -0.1753
 4401TIP3   OH237397   5.475   3.307  18.816  0.0747  0.5735  0.4258
 4401TIP3    H137398   5.442   3.338  18.901  0.5840 -0.7168  1.1188
 4401TIP3    H237399   5.396   3.295  18.764 -0.3882 -0.1209  1.2499
 4402TIP3   OH237400   0.462   1.764  19.214 -0.0095 -0.2935  0.1000
 4402TIP3    H137401   0.491   1.801  19.131  0.1115 -1.7240 -0.5333
 4402TIP3    H237402   0.533   1.784  19.276  1.5955 -2.2330 -1.0035
 4403TIP3   OH237403   5.773   4.428  20.390 -0.4854  0.0903  0.1311
 4403TIP3    H137404   5.795   4.520  20.403  0.3302  0.0456 -0.8161
 4403TIP3    H237405   5.822   4.403  20.312  2.0605 -2.0928  2.2909
 4404TIP3   OH237406   6.107   1.573  20.179 -0.0120  0.1245  0.1054
 4404TIP3    H137407   6.139   1.660  20.202  2.3238 -0.5251 -0.4054
 4404TIP3    H237408   6.121   1.521  20.259 -0.1181 -0.0870 -0.0133
 4405TIP3   OH237409   0.814   4.332  19.180 -0.4120 -0.2421 -0.3953
 4405TIP3    H137410   0.862   4.341  19.097  0.9290  0.4165  0.4222
 4405TIP3    H237411   0.881   4.343  19.248 -1.2386 -2.1613  0.7984
 4406TIP3   OH237412   2.450   5.002  17.843  0.0367 -0.1537 -0.0910
 4406TIP3    H137413   2.443   4.916  17.884 -1.3580 -0.0675 -0.0920
 4406TIP3    H237414   2.387   5.056  17.890  0.3379  0.6679 -0.6048
 4407TIP3   OH237415   4.466   2.097  19.906 -0.3803  0.0543 -0.4126
 4407TIP3    H137416   4.502   2.109  19.994 -1.1008 -0.9978  0.0507
 4407TIP3    H237417   4.527   2.143  19.848  1.3299 -1.1006  0.3896
 4408TIP3   OH237418   6.070   2.570  20.136  0.0273  0.3289  0.3501
 4408TIP3    H137419   6.114   2.590  20.053 -0.8418  2.1175  0.2737
 4408TIP3    H237420   6.014   2.645  20.152 -0.7047 -0.5158  1.9946
 4409TIP3   OH237421   3.947   4.158  19.554 -0.4366  0.0851  0.2280
 4409TIP3    H137422   4.035   4.147  19.591 -0.4663 -1.7298 -0.1681
 4409TIP3    H237423   3.891   4.106  19.611 -0.6680 -1.7630 -1.5954
 4410TIP3   OH237424   1.969   0.980  19.666  0.1329  0.2793 -0.4179
 4410TIP3    H137425   1.906   1.045  19.698 -1.0190  0.0111 -2.0226
 4410TIP3    H237426   1.990   1.009  19.577 -0.5382 -1.5839 -1.2480
 4411TIP3   OH237427   2.404   0.486  18.259 -0.3427 -0.3219  0.0846
 4411TIP3    H137428   2.388   0.417  18.194 -0.3552  1.2227 -1.6385
 4411TIP3    H237429   2.338   0.553  18.240 -1.0084 -0.2388  2.4040
 4412TIP3   OH237430   1.420   0.406  20.539 -0.5167  0.2943  0.0272
 4412TIP3    H137431   1.387   0.474  20.481  1.3719  0.8619 -0.4481
 4412TIP3    H237432   1.444   0.452  20.619 -0.0457  0.0448  0.0300
 4413TIP3   OH237433   6.305   1.278  19.018 -0.1719 -0.0022  0.1828
 4413TIP3    H137434   6.392   1.250  19.047 -0.3199 -1.9105 -0.9680
 4413TIP3    H237435   6.244   1.224  19.068 -0.5754 -0.2756 -0.5750
 4414TIP3   OH237436   4.967   0.986  19.881 -0.8190 -0.2772  0.1697
 4414TIP3    H137437   4.995   1.040  19.956  1.1869  0.2029 -0.8466
 4414TIP3    H237438   4.989   0.897  19.908  2.3644  0.1008 -0.7165
 4415TIP3   OH237439   2.925   2.341  20.655  0.1262 -0.4843 -0.3824
 4415TIP3    H137440   3.017   2.354  20.678  0.6747 -1.4218 -1.8988
 4415TIP3    H237441   2.921   2.252  20.620 -1.4344 -0.5804 -0.0735
 4416TIP3   OH237442   0.798   2.757  20.422 -0.1765  0.1918  0.4917
 4416TIP3    H137443   0.798   2.836  20.367 -2.2220 -0.6278 -0.7873
 4416TIP3    H237444   0.826   2.788  20.508  2.7091  1.6058 -0.8263
 4417TIP3   OH237445   4.670   2.934  17.143 -0.0104 -0.3450  0.5931
 4417TIP3    H137446   4.582   2.966  17.162  0.2901 -0.1403  1.6876
 4417TIP3    H237447   4.656   2.856  17.090 -0.9604 -1.6293  2.6160
 4418TIP3   OH237448   1.295   4.073  17.633 -0.7036  0.4339 -0.1726
 4418TIP3    H137449   1.384   4.107  17.619 -0.6148 -0.2648 -1.4664
 4418TIP3    H237450   1.304   4.010  17.705  0.2212 -0.9182 -1.4129
 4419TIP3   OH237451   6.261   3.247  19.351  0.3284 -0.6007 -0.2188
 4419TIP3    H137452   6.254   3.214  19.441  1.9294  2.2392  1.0842
 4419TIP3    H237453   6.199   3.194  19.301 -2.2119 -0.9519  2.9766
 4420TIP3   OH237454   0.567   2.551  20.152  0.1723  0.2176  0.2102
 4420TIP3    H137455   0.532   2.535  20.064  2.1739 -1.0122 -0.4232
 4420TIP3    H237456   0.535   2.638  20.174 -2.6938 -0.5170 -0.5324
 4421TIP3   OH237457   6.114   4.576  20.028 -0.0272  0.2630  0.3741
 4421TIP3    H137458   6.163   4.626  19.963 -2.9787  2.3725 -0.4263
 4421TIP3    H237459   6.022   4.594  20.009 -1.2499 -3.3492  1.8303
 4422TIP3   OH237460   0.957   0.487  19.940 -0.2835 -0.3701 -0.5363
 4422TIP3    H137461   0.941   0.558  20.003 -0.6238 -0.6923 -0.2564
 4422TIP3    H237462   0.968   0.409  19.994  0.9757 -0.3902 -0.7927
 4423TIP3   OH237463   4.321   4.608  19.067 -0.1411  0.0021 -0.8727
 4423TIP3    H137464   4.235   4.638  19.097  0.1526 -0.5611  0.6148
 4423TIP3    H237465   4.302   4.549  18.994 -1.0538 -0.4627 -0.2782
 4424TIP3   OH237466   2.614   3.845  19.073  0.0115  0.1356 -0.2113
 4424TIP3    H137467   2.628   3.872  18.982 -2.6871  2.0746 -0.1783
 4424TIP3    H237468   2.575   3.758  19.066  0.9685 -0.2555 -0.8239
 4425TIP3   OH237469   6.340   3.654  19.002  0.3431 -0.1728  0.3825
 4425TIP3    H137470   6.374   3.702  19.077  1.9215  0.7681 -0.8766
 4425TIP3    H237471   6.367   3.705  18.926 -1.2145 -1.0851 -0.8541
 4426TIP3   OH237472   2.537   1.912  17.503 -0.5760 -0.1667 -0.2945
 4426TIP3    H137473   2.590   1.836  17.526 -0.1872  0.4201  0.8304
 4426TIP3    H237474   2.449   1.890  17.533  0.0789  0.9585  2.9318
 4427TIP3   OH237475   5.688   1.551  18.608  0.2370 -0.3872  0.1186
 4427TIP3    H137476   5.751   1.560  18.537 -0.5685  0.1829 -0.5420
 4427TIP3    H237477   5.666   1.640  18.633 -0.3491 -0.5746  0.2978
 4428TIP3   OH237478   5.562   3.941  19.341 -0.0281  0.0413 -0.0587
 4428TIP3    H137479   5.533   3.983  19.422  1.3082  0.7735  0.0662
 4428TIP3    H237480   5.565   3.847  19.362  0.8516  0.2715  0.9349
 4429TIP3   OH237481   4.117   1.950  20.606 -0.7627 -0.6722  0.1277
 4429TIP3    H137482   4.122   1.933  20.700  0.3459 -1.2220 -0.0062
 4429TIP3    H237483   4.164   1.876  20.566 -1.1145 -0.3884 -0.8481
 4430TIP3   OH237484   6.628   6.468  18.871  0.3552 -0.0620  0.0597
 4430TIP3    H137485   6.638   6.532  18.800 -2.7470  0.2514 -0.2596
 4430TIP3    H237486   6.548   6.496  18.917  1.2134 -1.3559  2.5299
 4431TIP3   OH237487   0.276   6.082  18.823 -0.5765 -0.5983  0.2997
 4431TIP3    H137488   0.306   6.012  18.880  0.1093 -0.6873 -0.1630
 4431TIP3    H237489   0.218   6.135  18.878  0.7965 -0.1555  1.3696
 4432TIP3   OH237490   1.069   3.081  20.050 -0.0204 -0.8000  0.1279
 4432TIP3    H137491   1.106   3.004  20.006 -1.5727 -0.7634 -1.3128
 4432TIP3    H237492   1.061   3.053  20.142 -1.8864 -2.9594 -0.5827
 4433TIP3   OH237493   6.338   6.395  20.142 -0.5933  0.2624 -0.1463
 4433TIP3    H137494   6.337   6.354  20.229 -1.8698  0.6852  0.0585
 4433TIP3    H237495   6.265   6.457  20.144  0.9703  2.2085 -0.6274
 4434TIP3   OH237496   2.327   4.110  18.476  0.5855  0.5230 -0.1901
 4434TIP3    H137497   2.371   4.038  18.431  0.1441 -1.2402  1.9959
 4434TIP3    H237498   2.244   4.072  18.505  0.0898  2.1088  0.5562
 4435TIP3   OH237499   4.883   0.093  18.635  0.0910 -0.1970  0.6122
 4435TIP3    H137500   4.883   0.166  18.696  0.9994  1.1608 -0.9109
 4435TIP3    H237501   4.826   0.121  18.563 -0.7301 -1.6271  0.6539
 4436TIP3   OH237502   3.868   4.201  20.134  1.1264 -1.0178  0.0398
 4436TIP3    H137503   3.868   4.294  20.157  0.3146 -1.5463  2.4582
 4436TIP3    H237504   3.826   4.157  20.208  0.0400 -3.1836 -1.7136
 4437TIP3   OH237505   4.218   4.164  20.274  0.0661  0.2685  0.0636
 4437TIP3    H137506   4.271   4.177  20.353 -0.8118 -1.7288  1.0825
 4437TIP3    H237507   4.150   4.231  20.279  0.8766  1.0860  0.2279
 4438TIP3   OH237508   4.489   0.946  19.374  0.6067 -0.2113 -0.1808
 4438TIP3    H137509   4.483   0.921  19.282  0.0933  1.1525 -0.5531
 4438TIP3    H237510   4.490   0.864  19.422 -1.6133 -0.9511 -1.2568
 4439TIP3   OH237511   5.052   5.257  17.870 -0.2787 -0.5542  0.4690
 4439TIP3    H137512   5.131   5.302  17.900 -1.5903  1.4402  1.1573
 4439TIP3    H237513   5.077   5.217  17.786  0.5457  3.0991 -1.2222
 4440TIP3   OH237514   5.174   0.440  19.325 -0.6422 -0.1242  0.0289
 4440TIP3    H137515   5.125   0.453  19.244 -1.7663 -0.7278  0.5937
 4440TIP3    H237516   5.265   0.431  19.296 -0.9204  0.4352 -1.0891
 4441TIP3   OH237517   2.763   5.091  18.663  0.1742 -0.2620  0.2564
 4441TIP3    H137518   2.801   5.164  18.613 -2.0909 -0.9167 -2.7577
 4441TIP3    H237519   2.702   5.133  18.724 -0.7340  0.4586 -1.0998
 4442TIP3   OH237520   3.992   2.852  20.959  0.0332  0.5948  0.5707
 4442TIP3    H137521   4.059   2.790  20.930 -0.7474  0.8518 -2.0406
 4442TIP3    H237522   3.934   2.799  21.014  0.0479 -0.7425 -0.6214
 4443TIP3   OH237523   4.024   4.672  19.314 -0.4212  0.0111  0.2091
 4443TIP3    H137524   4.020   4.648  19.221  2.0400 -1.4613  0.4090
 4443TIP3    H237525   4.012   4.589  19.360 -0.1534  0.5077  1.1899
 4444TIP3   OH237526   3.431   0.278  18.281  0.0085 -0.4838 -0.4188
 4444TIP3    H137527   3.456   0.337  18.210 -0.4103 -0.5804 -0.6496
 4444TIP3    H237528   3.462   0.321  18.360  0.7442 -0.5164 -0.6841
 4445TIP3   OH237529   5.721   2.823  18.585  0.4142 -0.2761  0.2095
 4445TIP3    H137530   5.650   2.822  18.521 -0.1143  0.6213  0.7664
 4445TIP3    H237531   5.796   2.860  18.538  0.1050  0.1180  0.0245
 4446TIP3   OH237532   1.479   2.682  18.313 -0.1082  0.7497  0.2930
 4446TIP3    H137533   1.440   2.644  18.392  1.0139  1.3718  1.1906
 4446TIP3    H237534   1.441   2.633  18.241 -1.3985  0.3589  1.2020
 4447TIP3   OH237535   2.963   3.703  19.039 -0.2263 -0.0151 -0.5969
 4447TIP3    H137536   2.931   3.614  19.023 -0.8248  0.0201  0.3766
 4447TIP3    H237537   2.906   3.738  19.107  0.8988  0.6180  0.0469
 4448TIP3   OH237538   2.740   5.817  20.103  0.0529 -0.0923  0.1949
 4448TIP3    H137539   2.826   5.780  20.122  0.7063  1.6295  0.8175
 4448TIP3    H237540   2.704   5.839  20.189 -0.4360  0.3913 -0.1254
 4449TIP3   OH237541   2.005   5.229  20.152 -0.4209  0.8743  0.0850
 4449TIP3    H137542   1.980   5.308  20.103 -2.1054  0.2223 -0.1962
 4449TIP3    H237543   1.943   5.226  20.225 -0.3306 -0.1357  0.1363
 4450TIP3   OH237544   4.651   4.046  18.106 -0.2795 -0.3972 -0.8134
 4450TIP3    H137545   4.647   3.950  18.106  2.0395 -0.6396  2.2463
 4450TIP3    H237546   4.737   4.066  18.071 -0.0582  0.4758  0.2172
 4451TIP3   OH237547   2.951   1.412  19.955 -0.5640 -0.2597  0.1642
 4451TIP3    H137548   2.996   1.409  19.870 -0.5343  0.6056  0.1394
 4451TIP3    H237549   2.858   1.408  19.933 -0.5526 -0.1560  0.0954
 4452TIP3   OH237550   2.736   0.393  20.346 -0.0483 -0.1422  0.3347
 4452TIP3    H137551   2.651   0.391  20.302  0.3405  0.5726 -0.4797
 4452TIP3    H237552   2.787   0.458  20.297  1.1065 -0.8557  0.5467
 4453TIP3   OH237553   3.441   3.842  18.398  0.0477  0.4636  0.0685
 4453TIP3    H137554   3.532   3.824  18.421  0.7757  1.9415 -1.3855
 4453TIP3    H237555   3.428   3.797  18.314 -0.7131 -0.1262  0.4971
 4454TIP3   OH237556   3.201   1.714  17.537  0.6468  0.3078  0.5336
 4454TIP3    H137557   3.252   1.659  17.478  0.9081  0.9426  0.1547
 4454TIP3    H237558   3.110   1.692  17.519  0.7368  0.2706  0.1286
 4455TIP3   OH237559   4.046   2.684  19.095  0.0111 -0.3294  0.7803
 4455TIP3    H137560   4.029   2.595  19.064  0.7339 -0.6182  1.2004
 4455TIP3    H237561   4.054   2.736  19.015  0.7797 -0.8673  0.4991
 4456TIP3   OH237562   5.393   4.259  19.758  0.0167 -0.1862 -0.1886
 4456TIP3    H137563   5.310   4.308  19.756  1.3306  2.2020  0.3338
 4456TIP3    H237564   5.381   4.195  19.829 -1.2809  0.2910  0.0501
 4457TIP3   OH237565   1.976   5.939  19.035 -0.2267 -0.3474  0.7021
 4457TIP3    H137566   2.052   5.917  19.089  0.0740 -0.3930  0.2731
 4457TIP3    H237567   1.950   5.855  18.995  0.9984  0.0354 -1.0371
 4458TIP3   OH237568   2.026   4.942  19.086  0.2313  0.8202  0.3771
 4458TIP3    H137569   2.093   4.921  19.151  0.9064 -0.3679 -0.6503
 4458TIP3    H237570   2.004   4.858  19.046  0.3230  1.5739 -1.3805
 4459TIP3   OH237571   4.852   4.802  19.266 -0.3290 -0.0280  0.5578
 4459TIP3    H137572   4.898   4.777  19.186 -0.9073  1.5997 -0.3352
 4459TIP3    H237573   4.795   4.728  19.286 -0.5453 -0.2654 -0.8390
 4460TIP3   OH237574   4.500   4.716  18.695  0.5274  0.3605  0.3978
 4460TIP3    H137575   4.427   4.720  18.633  1.2036  1.3568 -0.3479
 4460TIP3    H237576   4.458   4.701  18.780 -0.3884 -1.5010 -0.3199
 4461TIP3   OH237577   4.651   5.360  19.638  0.5195 -0.2549  0.1079
 4461TIP3    H137578   4.684   5.447  19.661  1.6392 -0.3651 -0.9788
 4461TIP3    H237579   4.559   5.362  19.663  0.3286  1.5056 -0.5510
 4462TIP3   OH237580   6.011   5.703  20.382 -0.2216  0.3447  0.4941
 4462TIP3    H137581   6.016   5.700  20.287  2.2088 -0.0703  0.5836
 4462TIP3    H237582   6.029   5.614  20.410 -2.0376  0.2065  1.3647
 4463TIP3   OH237583   3.654   2.420  18.178 -0.0125  0.2410 -0.1334
 4463TIP3    H137584   3.586   2.358  18.206 -0.4338  0.0808 -1.4274
 4463TIP3    H237585   3.726   2.364  18.148  0.1882  0.3974  0.0565
 4464TIP3   OH237586   2.275   5.075  17.653 -0.3189  0.7923  0.1113
 4464TIP3    H137587   2.337   5.074  17.580 -0.8276  1.5239 -0.3487
 4464TIP3    H237588   2.327   5.052  17.729  0.4915  1.2707 -0.2893
 4465TIP3   OH237589   1.105   5.520  18.115  0.0869 -0.1146 -0.2145
 4465TIP3    H137590   1.097   5.614  18.101 -2.8617 -0.4295 -1.3953
 4465TIP3    H237591   1.047   5.502  18.189  1.9879 -0.8632  1.1996
 4466TIP3   OH237592   4.236   3.021  18.778 -0.2228 -0.0920 -0.0704
 4466TIP3    H137593   4.173   2.950  18.788 -0.5523  0.1059 -0.7375
 4466TIP3    H237594   4.196   3.095  18.823  0.3587 -0.4586  1.0924
 4467TIP3   OH237595   6.367   4.755  20.111 -0.4875 -0.2730 -0.5758
 4467TIP3    H137596   6.461   4.748  20.093  0.2722  3.0327  1.3550
 4467TIP3    H237597   6.326   4.749  20.024  1.4742 -1.3616 -1.5049
 4468TIP3   OH237598   1.647   0.388  18.745  0.5904 -0.4675  0.0412
 4468TIP3    H137599   1.716   0.446  18.778  0.0605 -0.8737  1.9823
 4468TIP3    H237600   1.652   0.311  18.801 -0.6471 -1.0429 -0.5955
 4469TIP3   OH237601   1.105   3.364  19.002  0.4749 -0.2714 -0.5218
 4469TIP3    H137602   1.159   3.431  18.961 -1.8850  0.9722 -1.7975
 4469TIP3    H237603   1.028   3.411  19.034 -0.3062 -2.0856  0.4124
 4470TIP3   OH237604   4.509   5.746  20.160 -0.5422 -0.3056  0.2453
 4470TIP3    H137605   4.428   5.695  20.164  0.0869 -1.2882  1.1590
 4470TIP3    H237606   4.576   5.682  20.136  0.4660 -0.2129  2.5562
 4471TIP3   OH237607   3.307   4.163  19.532  0.4715 -0.6103 -0.1716
 4471TIP3    H137608   3.244   4.143  19.602  1.1140 -0.0619  0.5894
 4471TIP3    H237609   3.253   4.180  19.455 -0.3557  0.3819  0.5932
 4472TIP3   OH237610   4.029   2.891  18.311  0.4375 -0.3715  0.0260
 4472TIP3    H137611   4.066   2.956  18.370  0.4793 -0.8639  0.5578
 4472TIP3    H237612   4.024   2.935  18.226  0.0150  0.4752  0.4751
 4473TIP3   OH237613   3.122   1.749  19.116 -0.7269  0.1428  0.5029
 4473TIP3    H137614   3.080   1.740  19.201  0.9170  0.0852  1.3418
 4473TIP3    H237615   3.215   1.755  19.135 -0.3687  0.8802 -1.2493
 4474TIP3   OH237616   0.040   1.284  20.697 -0.5130  0.2626 -0.2056
 4474TIP3    H137617  -0.023   1.319  20.634  0.7719  0.2216 -1.5669
 4474TIP3    H237618   0.079   1.361  20.738 -0.9539  0.3025  0.1443
 4475TIP3   OH237619   1.514   4.867  18.001 -0.6488  0.0016  0.4183
 4475TIP3    H137620   1.587   4.916  18.039  0.6328 -1.6317  0.1472
 4475TIP3    H237621   1.507   4.788  18.056 -0.9204 -0.7996 -0.7303
 4476TIP3   OH237622   1.615   6.449  20.487 -0.1719 -0.2350  0.1848
 4476TIP3    H137623   1.560   6.503  20.543 -0.2330  0.4649 -0.5287
 4476TIP3    H237624   1.650   6.509  20.422 -0.9355 -1.1785 -1.1576
 4477TIP3   OH237625   4.193   2.396  17.727  0.6624  1.0372  0.2933
 4477TIP3    H137626   4.126   2.433  17.669  1.1169 -0.2573 -1.1112
 4477TIP3    H237627   4.202   2.462  17.797 -0.0809  2.5396 -0.9489
 4478TIP3   OH237628   4.023   5.660  18.992 -0.0805 -0.4457 -0.0024
 4478TIP3    H137629   3.949   5.611  19.027  0.1102 -1.4088 -0.8849
 4478TIP3    H237630   4.015   5.651  18.897  0.1667  0.9552 -0.1798
 4479TIP3   OH237631   3.777   5.496  19.366  0.1101  0.1057 -0.0707
 4479TIP3    H137632   3.747   5.434  19.299 -1.7498  0.1185  0.6725
 4479TIP3    H237633   3.730   5.577  19.345  1.2172  0.7695 -0.0262
 4480TIP3   OH237634   2.277   0.773  20.643  0.1825 -0.1055  0.4739
 4480TIP3    H137635   2.284   0.865  20.669  0.2213 -0.2472  0.9799
 4480TIP3    H237636   2.256   0.776  20.550  3.1693  0.3766 -0.2755
 4481TIP3   OH237637   5.105   2.366  17.140  0.0052 -0.1301 -0.3565
 4481TIP3    H137638   5.046   2.292  17.158  0.6281 -0.7173 -0.6552
 4481TIP3    H237639   5.053   2.444  17.160 -1.3110 -0.5788 -1.7887
 4482TIP3   OH237640   1.892   1.174  18.384 -0.0309  0.1591  0.3203
 4482TIP3    H137641   1.850   1.166  18.298 -0.2985 -0.6987  0.5172
 4482TIP3    H237642   1.844   1.244  18.428 -0.7383 -0.2649  0.2380
 4483TIP3   OH237643   2.382   4.851  18.517 -0.4591 -0.4682 -0.3054
 4483TIP3    H137644   2.468   4.857  18.558  0.6809  0.3969 -2.6817
 4483TIP3    H237645   2.324   4.902  18.575  0.9326  0.2301  0.5184
 4484TIP3   OH237646   4.923   2.502  19.938 -0.1165  0.3468  0.1286
 4484TIP3    H137647   4.841   2.506  19.890 -0.5156  1.2068  0.8343
 4484TIP3    H237648   4.987   2.543  19.880 -0.6551  1.6517  0.4143
 4485TIP3   OH237649   3.031   0.023  19.500 -0.3100 -0.5037 -0.0824
 4485TIP3    H137650   2.963   0.039  19.436  1.2466  0.5989 -1.5480
 4485TIP3    H237651   3.056   0.110  19.531  1.5717 -0.7000 -0.8736
 4486TIP3   OH237652   3.669   4.861  19.606 -0.0078 -0.4344  0.5799
 4486TIP3    H137653   3.587   4.840  19.560 -1.0044  0.9090  1.6353
 4486TIP3    H237654   3.654   4.831  19.696  0.2820  0.6245  0.9980
 4487TIP3   OH237655   1.002   4.597  17.377  0.0351  0.5049  0.0999
 4487TIP3    H137656   1.042   4.515  17.408  0.7690  0.9217  0.2802
 4487TIP3    H237657   0.952   4.571  17.300  1.7995  0.1722 -0.9914
 4488TIP3   OH237658   2.631   5.497  20.044  0.2968  0.4742 -0.1304
 4488TIP3    H137659   2.566   5.533  20.104 -0.7271  0.8332 -1.4131
 4488TIP3    H237660   2.695   5.453  20.101  0.0244  1.8393  1.2883
 4489TIP3   OH237661   5.084   3.388  19.482 -0.3069 -0.5870 -0.0772
 4489TIP3    H137662   5.095   3.296  19.506  0.0857 -0.9959 -1.6898
 4489TIP3    H237663   5.130   3.396  19.398 -0.4361  1.0576 -0.0175
 4490TIP3   OH237664   5.632   4.950  19.033  0.1159  0.4099  0.0183
 4490TIP3    H137665   5.606   4.973  19.122  0.4214 -0.6850  0.4035
 4490TIP3    H237666   5.718   4.991  19.022  0.4546 -0.1413  0.5352
 4491TIP3   OH237667   6.022   1.263  19.972  0.0242 -0.8858 -0.1211
 4491TIP3    H137668   6.032   1.176  20.012 -0.2173 -1.0516 -0.4165
 4491TIP3    H237669   6.023   1.246  19.878  0.1864 -0.5421 -0.1860
 4492TIP3   OH237670   1.831   4.558  17.506  0.7909 -0.6530  0.5980
 4492TIP3    H137671   1.772   4.510  17.564 -0.8852 -0.2398 -0.6986
 4492TIP3    H237672   1.918   4.545  17.544  0.1109 -2.7888  1.5502
 4493TIP3   OH237673   2.584   2.576  19.008  0.5807 -0.5871  0.2572
 4493TIP3    H137674   2.549   2.650  19.057 -0.8721 -0.2519 -1.1675
 4493TIP3    H237675   2.569   2.500  19.065  0.5585 -0.0028  1.0457
 4494TIP3   OH237676   1.084   0.170  17.703 -0.1312 -0.5147  0.1927
 4494TIP3    H137677   1.034   0.095  17.670 -0.1069 -1.6714  2.5562
 4494TIP3    H237678   1.165   0.168  17.653 -0.2241 -1.9545  0.0397
 4495TIP3   OH237679   3.034   3.400  20.166 -0.4798 -0.5373  0.0269
 4495TIP3    H137680   2.995   3.396  20.253  1.0745 -0.0982  0.7939
 4495TIP3    H237681   3.011   3.487  20.133 -2.1498 -1.1791 -0.5670
 4496TIP3   OH237682   1.842   2.077  19.545 -0.2084 -0.4469  0.4755
 4496TIP3    H137683   1.822   2.075  19.638 -2.4120  1.0016  0.1036
 4496TIP3    H237684   1.765   2.039  19.503 -0.4866  1.4638 -0.8621
 4497TIP3   OH237685   3.732   5.582  20.854 -0.0317  0.0691  0.5134
 4497TIP3    H137686   3.731   5.676  20.835  1.9716  0.1284  0.5166
 4497TIP3    H237687   3.780   5.543  20.780  2.4608 -0.4368  2.2609
 4498TIP3   OH237688   3.105   3.946  19.546 -0.3629  0.1222  0.1063
 4498TIP3    H137689   3.125   3.859  19.580 -1.5452 -0.3129 -0.2614
 4498TIP3    H237690   3.100   4.002  19.624  0.9720 -0.0052  0.2945
 4499TIP3   OH237691   3.162   4.915  17.202 -0.3846 -0.0991 -0.1292
 4499TIP3    H137692   3.149   5.010  17.202  0.3540  0.0071  0.5060
 4499TIP3    H237693   3.115   4.885  17.124  0.3416  0.9202 -1.0010
 4500TIP3   OH237694   4.351   3.705  20.278 -0.5010  0.0835  0.6691
 4500TIP3    H137695   4.296   3.627  20.274 -0.3459 -0.2230  2.9101
 4500TIP3    H237696   4.295   3.771  20.319  0.1051  0.4187  0.9620
 4501TIP3   OH237697   5.902   6.720  17.774 -0.3850 -0.0231  0.4285
 4501TIP3    H137698   5.852   6.758  17.701 -0.5665 -0.2311  0.4452
 4501TIP3    H237699   5.866   6.632  17.784  0.9136 -0.6774 -0.4495
 4502TIP3   OH237700   4.885   0.753  20.484  0.0744  0.4601 -0.3362
 4502TIP3    H137701   4.824   0.820  20.513  0.0737  0.0841  0.5737
 4502TIP3    H237702   4.941   0.797  20.419 -2.0003  0.4527 -2.2547
 4503TIP3   OH237703   1.363   3.844  20.714 -0.4316  0.3456  0.4056
 4503TIP3    H137704   1.330   3.768  20.761 -1.6119  0.1237 -0.7110
 4503TIP3    H237705   1.326   3.835  20.626  0.4598  1.5366 -0.1106
 4504TIP3   OH237706   5.003   1.399  18.117  0.0168 -0.4999  0.1198
 4504TIP3    H137707   5.022   1.449  18.196  1.1945 -1.3155  0.3867
 4504TIP3    H237708   5.068   1.428  18.053 -1.5010  0.8207 -0.8861
 4505TIP3   OH237709   1.500   5.857  17.747  0.6304  0.4201 -0.1920
 4505TIP3    H137710   1.521   5.768  17.721  1.7314  0.5929  0.0387
 4505TIP3    H237711   1.463   5.848  17.835 -2.0711 -0.0564 -1.2725
 4506TIP3   OH237712   0.641   0.993  19.174  0.0560  0.1951 -0.3851
 4506TIP3    H137713   0.607   0.908  19.147  0.9248 -0.4147  0.3742
 4506TIP3    H237714   0.666   1.036  19.092  1.2333 -0.9959 -0.6775
 4507TIP3   OH237715   4.212   5.313  20.398 -0.4051  0.1633  0.1732
 4507TIP3    H137716   4.218   5.402  20.434  0.0703  0.3925 -0.4596
 4507TIP3    H237717   4.303   5.290  20.379 -0.2838 -1.1859  2.0504
 4508TIP3   OH237718   1.649   1.045  17.877 -0.4893  0.3586 -0.0226
 4508TIP3    H137719   1.726   1.061  17.823  1.5452  0.9312  2.8116
 4508TIP3    H237720   1.577   1.085  17.828  1.2880  1.3642 -1.9901
 4509TIP3   OH237721   6.599   2.638  18.902  0.4119  0.8894 -0.6487
 4509TIP3    H137722   6.543   2.646  18.979 -2.5355 -2.0234 -2.2588
 4509TIP3    H237723   6.571   2.710  18.844 -0.9103  0.1423 -0.9637
 4510TIP3   OH237724   0.928   6.356  20.320  0.0787  0.3631 -0.5692
 4510TIP3    H137725   1.001   6.322  20.371 -0.4882 -0.2672 -0.1701
 4510TIP3    H237726   0.875   6.404  20.383  0.6665  1.6953 -1.0506
 4511TIP3   OH237727   1.447   5.268  19.819  0.0696  0.0298 -0.8080
 4511TIP3    H137728   1.475   5.215  19.743 -0.3102  1.1515 -1.7624
 4511TIP3    H237729   1.497   5.349  19.811  0.5344 -0.1005  0.5589
 4512TIP3   OH237730   6.331   5.541  20.351 -0.8202  0.3374 -0.1461
 4512TIP3    H137731   6.328   5.617  20.409 -0.0260 -0.2734  0.7433
 4512TIP3    H237732   6.421   5.540  20.317 -0.7397 -0.3263  0.0547
 4513TIP3   OH237733   4.046   6.638  19.211  0.0477  0.5638  0.1141
 4513TIP3    H137734   4.056   6.727  19.180  1.0648  0.6399  0.6335
 4513TIP3    H237735   3.964   6.640  19.262 -2.1224  0.2399 -3.0757
 4514TIP3   OH237736   4.187   6.677  18.813 -0.4330  0.2475 -0.4307
 4514TIP3    H137737   4.135   6.644  18.886 -0.7356  0.2444 -0.6452
 4514TIP3    H237738   4.278   6.668  18.842 -0.4666 -1.3930 -0.7122
 4515TIP3   OH237739   4.754   6.112  19.233 -0.4031 -0.5095 -0.0063
 4515TIP3    H137740   4.842   6.075  19.232 -0.3816 -0.4602 -0.9565
 4515TIP3    H237741   4.697   6.040  19.258 -0.1624 -0.7230 -0.0758
 4516TIP3   OH237742   2.665   3.873  17.721  0.5008  0.3358  0.1815
 4516TIP3    H137743   2.662   3.904  17.631 -0.8705  0.9187  0.4012
 4516TIP3    H237744   2.742   3.816  17.725 -0.1985 -0.8161 -1.7236
 4517TIP3   OH237745   4.607   3.094  18.614  0.1709 -0.4550  0.1125
 4517TIP3    H137746   4.684   3.054  18.574 -1.1139 -1.5448 -1.4525
 4517TIP3    H237747   4.637   3.178  18.648  2.1147 -1.0461 -0.0608
 4518TIP3   OH237748   0.289   6.332  19.534 -0.2803 -0.2140 -0.5493
 4518TIP3    H137749   0.204   6.327  19.578  0.0387  0.4736  0.1767
 4518TIP3    H237750   0.268   6.342  19.442 -1.0051  0.3835 -0.3286
 4519TIP3   OH237751   1.278   0.267  18.059  0.1021  0.3838 -0.3139
 4519TIP3    H137752   1.189   0.256  18.025  0.1486  0.0548 -0.3320
 4519TIP3    H237753   1.299   0.182  18.099 -1.1801  1.6376  3.4706
 4520TIP3   OH237754   6.312   1.863  19.842 -0.2105 -0.1347  0.5962
 4520TIP3    H137755   6.334   1.950  19.875 -1.7918  0.6260 -0.2485
 4520TIP3    H237756   6.382   1.807  19.875  1.4121  1.6154  0.3066
 4521TIP3   OH237757   2.487   1.057  17.961  0.2257 -0.0978  0.1190
 4521TIP3    H137758   2.408   1.091  18.002  0.4235  0.8733 -0.2624
 4521TIP3    H237759   2.498   0.970  17.998  0.1831  0.5762  1.8163
 4522TIP3   OH237760   2.532   1.011  17.454  0.4500 -0.8496  0.2490
 4522TIP3    H137761   2.467   0.983  17.519 -0.5298  0.0224 -0.3314
 4522TIP3    H237762   2.546   0.934  17.399 -0.7414 -0.8016 -0.1369
 4523TIP3   OH237763   2.269   5.046  18.692  0.1622  0.0582  0.1001
 4523TIP3    H137764   2.261   5.138  18.668  0.8968  0.7259  2.1268
 4523TIP3    H237765   2.194   5.030  18.750  1.5040  0.2398  1.9844
 4524TIP3   OH237766   4.740   4.054  20.488  0.0746  0.7631 -0.2795
 4524TIP3    H137767   4.766   4.072  20.578 -0.2000 -0.4898  0.0715
 4524TIP3    H237768   4.717   3.961  20.488 -0.1456  0.7999 -1.5921
 4525TIP3   OH237769   3.694   1.707  18.060  0.1838  0.0382 -0.1154
 4525TIP3    H137770   3.714   1.613  18.068 -0.2374  0.0724  2.1014
 4525TIP3    H237771   3.776   1.745  18.028  0.3696 -1.0654 -1.0422
 4526TIP3   OH237772   0.239   3.580  19.518  0.4324 -0.0099  0.3709
 4526TIP3    H137773   0.148   3.550  19.522  0.3487  0.2909  0.6946
 4526TIP3    H237774   0.254   3.596  19.425  0.4620 -1.0025  0.1888
 4527TIP3   OH237775   5.728   1.841  18.755 -0.6271  0.2191  0.1334
 4527TIP3    H137776   5.665   1.912  18.740 -0.4867  0.1433 -0.8738
 4527TIP3    H237777   5.811   1.885  18.774 -0.4359  0.3406 -0.9353
 4528TIP3   OH237778   6.504   2.540  20.684  0.2706 -0.0313  0.1200
 4528TIP3    H137779   6.433   2.585  20.729 -0.3113  0.8678 -1.5911
 4528TIP3    H237780   6.460   2.475  20.629  0.6854  0.8088 -1.2612
 4529TIP3   OH237781   5.579   0.221  17.937  0.1410  0.2926  0.0881
 4529TIP3    H137782   5.574   0.160  18.011 -0.4085 -1.2920 -1.1921
 4529TIP3    H237783   5.567   0.166  17.860  2.8148  1.5548 -1.3467
 4530TIP3   OH237784   5.850   4.247  20.691  0.1263  0.0597  0.3506
 4530TIP3    H137785   5.777   4.263  20.751  0.8738  0.8252  1.0764
 4530TIP3    H237786   5.872   4.334  20.656 -1.2822 -0.5096 -2.2711
 4531TIP3   OH237787   0.521   1.047  17.728  0.6382  0.4854  0.0775
 4531TIP3    H137788   0.583   1.100  17.677  1.6501 -0.1536  0.6228
 4531TIP3    H237789   0.460   1.111  17.765  1.9232  1.3078  0.8480
 4532TIP3   OH237790   4.051   5.682  19.798 -0.5330  0.5282 -0.3547
 4532TIP3    H137791   4.044   5.627  19.720 -0.9484 -0.3068  0.2575
 4532TIP3    H237792   4.040   5.621  19.872  0.7848  1.1333  0.3927
 4533TIP3   OH237793   0.612   6.209  19.102 -0.0284 -0.3739 -0.7001
 4533TIP3    H137794   0.537   6.158  19.133  0.0006 -0.6834 -1.1294
 4533TIP3    H237795   0.653   6.243  19.182 -2.5826  2.6813 -0.5319
 4534TIP3   OH237796   1.251   3.553  20.627  0.3513  0.4055  0.0711
 4534TIP3    H137797   1.162   3.575  20.600 -0.1636  0.1556  1.4744
 4534TIP3    H237798   1.301   3.553  20.546 -0.1754  3.9173 -0.4060
 4535TIP3   OH237799   4.017   5.342  19.254  0.0854  0.1507  0.1261
 4535TIP3    H137800   4.097   5.367  19.299 -0.5940 -0.7115  1.8956
 4535TIP3    H237801   3.946   5.371  19.311 -0.8809  0.4231 -1.1471
 4536TIP3   OH237802   4.220   6.159  17.537  0.2407  0.0246  0.3680
 4536TIP3    H137803   4.305   6.135  17.499 -0.2239 -0.6747 -0.2398
 4536TIP3    H237804   4.203   6.247  17.504  1.7288  1.0981  2.2177
 4537TIP3   OH237805   2.503   4.802  17.322  0.1756  0.3604  0.0809
 4537TIP3    H137806   2.419   4.768  17.354 -0.4294  1.6462 -0.0973
 4537TIP3    H237807   2.486   4.894  17.302  0.8019 -0.0734 -2.8808
 4538TIP3   OH237808   5.587   2.554  20.649  0.5280 -0.2027 -0.4501
 4538TIP3    H137809   5.546   2.518  20.728  1.1563 -1.3369 -0.6322
 4538TIP3    H237810   5.603   2.646  20.671 -0.5096 -0.1681  0.2546
 4539TIP3   OH237811   3.283   3.555  17.984 -0.3988 -0.0365 -0.2706
 4539TIP3    H137812   3.237   3.634  17.956 -0.1453  0.2453  0.1136
 4539TIP3    H237813   3.375   3.571  17.964 -0.5456 -0.9400 -1.8369
 4540TIP3   OH237814   2.027   3.057  20.596 -0.1974 -0.0305 -0.4950
 4540TIP3    H137815   1.983   3.138  20.572  0.0095 -0.0375 -0.9085
 4540TIP3    H237816   2.120   3.076  20.583 -0.0269  0.1466  0.8389
 4541TIP3   OH237817   6.117   4.346  20.355 -0.1301  0.5712 -0.1591
 4541TIP3    H137818   6.197   4.308  20.391 -1.2865 -1.3703  0.5077
 4541TIP3    H237819   6.120   4.438  20.383  2.1040  0.7114 -0.6556
 4542TIP3   OH237820   5.533   0.525  17.526  0.1741  0.1795  0.5053
 4542TIP3    H137821   5.583   0.594  17.482 -0.4278  0.4271  0.1983
 4542TIP3    H237822   5.555   0.445  17.479  1.9284 -0.0970  1.7011
 4543TIP3   OH237823   4.589   6.520  20.326 -0.8101 -0.3004 -0.2018
 4543TIP3    H137824   4.656   6.584  20.349  0.0504 -1.0105 -0.6772
 4543TIP3    H237825   4.512   6.547  20.375 -0.1035  0.3876  0.5499
 4544TIP3   OH237826   1.445   5.088  19.034  0.2280 -0.0149  0.3785
 4544TIP3    H137827   1.466   4.998  19.061 -0.2066 -0.3329 -0.3011
 4544TIP3    H237828   1.363   5.108  19.080 -1.0976 -0.9524 -1.4431
 4545TIP3   OH237829   3.626   1.158  18.069 -0.5158  0.1054 -0.2335
 4545TIP3    H137830   3.542   1.173  18.112 -0.0738  1.2904  0.2578
 4545TIP3    H237831   3.657   1.245  18.045  0.5703 -0.3145 -0.4179
 4546TIP3   OH237832   0.007   5.508  19.980 -0.1974  0.3679  0.1361
 4546TIP3    H137833  -0.057   5.438  19.969  0.6736 -0.5151  0.5758
 4546TIP3    H237834  -0.046   5.587  19.995 -1.1753 -0.4473  1.1067
 4547TIP3   OH237835   5.997   2.906  16.886  0.1402 -0.1510 -0.0926
 4547TIP3    H137836   6.009   2.996  16.916 -1.0448 -0.4479  1.4288
 4547TIP3    H237837   5.920   2.909  16.830  0.3991 -0.1329 -0.4478
 4548TIP3   OH237838   3.829   2.146  20.205 -0.5055  0.0284  0.2780
 4548TIP3    H137839   3.881   2.226  20.198 -1.4531  0.5806 -0.9400
 4548TIP3    H237840   3.885   2.084  20.252  1.0486  0.7480 -0.5533
 4549TIP3   OH237841   4.345   0.637  20.342  0.2273 -0.1265 -0.3695
 4549TIP3    H137842   4.268   0.606  20.295  0.4578 -0.3339 -0.6176
 4549TIP3    H237843   4.321   0.724  20.373  0.1402  0.0998 -1.0497
 4550TIP3   OH237844   4.370   3.107  20.090 -0.0338  0.2554 -0.0969
 4550TIP3    H137845   4.392   3.014  20.097 -0.8419  0.0589 -0.0845
 4550TIP3    H237846   4.437   3.143  20.032  0.4361 -0.2763  0.1036
 4551TIP3   OH237847   0.941   3.602  19.568  0.0199 -0.2015 -0.0109
 4551TIP3    H137848   0.906   3.564  19.649  0.9570  0.5427  0.7786
 4551TIP3    H237849   0.867   3.602  19.507 -0.0820 -3.1287 -0.0359
 4552TIP3   OH237850   0.125   1.566  20.698 -0.0751 -0.0542  0.6863
 4552TIP3    H137851   0.057   1.628  20.671 -0.0742  0.0483  0.9164
 4552TIP3    H237852   0.166   1.539  20.616 -1.0425 -0.8827  0.4503
 4553TIP3   OH237853   3.307   6.386  17.909  0.2894  0.0886 -0.4275
 4553TIP3    H137854   3.384   6.428  17.946  0.1938 -0.6296  0.6251
 4553TIP3    H237855   3.237   6.405  17.971 -0.7587  1.8838 -2.0207
 4554TIP3   OH237856   1.108   0.375  19.469 -0.1213  0.4257 -0.0489
 4554TIP3    H137857   1.148   0.292  19.496  1.4768  0.8331 -1.0209
 4554TIP3    H237858   1.072   0.412  19.550  1.3082 -0.0823  0.8616
 4555TIP3   OH237859   6.283   6.625  18.051 -0.1620 -0.0876  0.8673
 4555TIP3    H137860   6.205   6.682  18.056 -0.8577 -1.0290  1.0443
 4555TIP3    H237861   6.351   6.681  18.013 -0.3103  1.4133  2.6291
 4556TIP3   OH237862   1.857   5.475  17.951  0.0917 -0.0075 -0.1292
 4556TIP3    H137863   1.783   5.468  18.012  0.3272 -1.7290 -0.0107
 4556TIP3    H237864   1.873   5.569  17.945 -1.1436  0.3118  1.0110
 4557TIP3   OH237865   1.040   5.044  17.099 -0.3547  0.5936 -0.5045
 4557TIP3    H137866   1.074   4.973  17.153 -1.0067 -1.1497 -2.2421
 4557TIP3    H237867   0.947   5.049  17.121 -0.6120 -0.0901 -1.3680
 4558TIP3   OH237868   4.169   6.651  20.890 -0.1501 -0.4934  0.1886
 4558TIP3    H137869   4.216   6.731  20.866 -0.5075 -0.0384  0.9518
 4558TIP3    H237870   4.215   6.581  20.845  0.0245  0.1665 -0.6872
 4559TIP3   OH237871   2.555   4.324  19.828  0.3874 -0.5677 -0.2413
 4559TIP3    H137872   2.464   4.298  19.813 -0.1433  1.0569 -0.0204
 4559TIP3    H237873   2.550   4.417  19.853  2.2681  0.2067 -2.4128
 4560TIP3   OH237874   4.613   4.625  19.214  0.0731  0.4566  0.0903
 4560TIP3    H137875   4.553   4.563  19.257 -1.7947  1.8534 -0.3374
 4560TIP3    H237876   4.628   4.587  19.127 -0.1678  0.0708  0.2145
 4561TIP3   OH237877   0.336   4.801  20.013 -0.2169  0.1785 -0.3213
 4561TIP3    H137878   0.383   4.718  20.006  0.7954  0.5540  1.5601
 4561TIP3    H237879   0.365   4.851  19.937  0.5652 -0.4954 -0.4801
 4562TIP3   OH237880   0.050   2.164  18.245 -0.5036 -0.5966  0.1127
 4562TIP3    H137881  -0.044   2.145  18.240 -1.2309  2.4413 -0.1941
 4562TIP3    H237882   0.073   2.192  18.157  0.5232 -0.7059  0.3391
 4563TIP3   OH237883   0.560   6.602  19.342  0.2261 -0.0112 -0.2883
 4563TIP3    H137884   0.495   6.594  19.411  0.9186  1.8116  0.6572
 4563TIP3    H237885   0.515   6.653  19.274 -0.0647 -0.7548 -0.6577
 4564TIP3   OH237886   2.045   4.073  18.501 -0.3692 -0.5245  0.3401
 4564TIP3    H137887   2.044   4.151  18.445  2.0294 -1.1790 -0.7361
 4564TIP3    H237888   1.982   4.092  18.571  0.4696  2.5431  0.3677
 4565TIP3   OH237889   5.873   3.327  18.351 -0.0493 -0.7603 -0.3582
 4565TIP3    H137890   5.809   3.381  18.397 -0.6497 -0.6915 -1.2537
 4565TIP3    H237891   5.820   3.269  18.296  0.6496 -0.9275 -0.8599
 4566TIP3   OH237892   6.554   4.864  19.098 -0.1964  0.0055  0.1610
 4566TIP3    H137893   6.484   4.823  19.148 -1.9665  2.6989  0.1189
 4566TIP3    H237894   6.635   4.839  19.144 -0.7887 -4.6788 -0.7924
 4567TIP3   OH237895   3.975   5.173  18.572 -0.3228 -0.0061 -0.5927
 4567TIP3    H137896   3.905   5.142  18.514 -1.5010 -1.5234  1.4978
 4567TIP3    H237897   4.024   5.094  18.595 -0.2591  0.4418  0.9133
 4568TIP3   OH237898   2.359   3.783  20.257 -0.1429 -0.4003 -0.1443
 4568TIP3    H137899   2.388   3.729  20.184 -1.6184 -0.4908 -0.6959
 4568TIP3    H237900   2.400   3.868  20.242 -0.4819 -0.3999 -1.1216
 4569TIP3   OH237901   4.671   0.129  19.021  0.6261  0.3050  0.1350
 4569TIP3    H137902   4.583   0.165  19.005  0.3959 -0.1162  0.4549
 4569TIP3    H237903   4.693   0.158  19.109  1.1608  1.1154 -0.2519
 4570TIP3   OH237904   5.421   3.039  19.110 -0.2820  0.1719 -0.1585
 4570TIP3    H137905   5.397   3.132  19.116 -0.6186  0.0616  0.2981
 4570TIP3    H237906   5.513   3.036  19.135  0.4776  0.6990 -2.6493
 4571TIP3   OH237907   5.332   0.467  20.030 -0.3545  0.1417  0.2423
 4571TIP3    H137908   5.356   0.403  20.098 -0.8111 -0.8956 -0.5414
 4571TIP3    H237909   5.236   0.474  20.038 -0.5767 -1.0074 -1.1463
 4572TIP3   OH237910   0.176   1.274  19.174  0.7410 -0.6936 -0.2222
 4572TIP3    H137911   0.100   1.331  19.168  1.3954  0.1171 -1.0598
 4572TIP3    H237912   0.229   1.313  19.244  0.3606 -1.2992  0.4097
 4573TIP3   OH237913   2.616   4.426  20.583 -0.1565  0.3887 -0.4804
 4573TIP3    H137914   2.689   4.426  20.644 -1.1937  0.9862  0.8306
 4573TIP3    H237915   2.581   4.337  20.588 -1.2916  0.8721  1.1975
 4574TIP3   OH237916   1.606   3.010  18.656  0.0026 -0.1510  0.1256
 4574TIP3    H137917   1.545   3.014  18.582 -0.6100 -2.5766  0.4072
 4574TIP3    H237918   1.564   2.950  18.718  2.3510 -1.3974  0.6326
 4575TIP3   OH237919   2.254   3.959  17.932  0.1303  0.4500 -0.9574
 4575TIP3    H137920   2.260   3.912  17.848 -2.2592  0.1558 -1.0301
 4575TIP3    H237921   2.230   3.892  17.995  3.4045  0.3609  0.3955
 4576TIP3   OH237922   2.289   1.221  17.231  0.2693  0.0714  0.3415
 4576TIP3    H137923   2.280   1.126  17.226 -1.3118  0.2426 -2.6039
 4576TIP3    H237924   2.360   1.242  17.171 -0.0951  0.7921  0.1440
 4577TIP3   OH237925   2.590   4.761  19.295 -0.1252  0.1897 -0.2615
 4577TIP3    H137926   2.495   4.775  19.303 -0.3214 -0.0670 -1.7436
 4577TIP3    H237927   2.599   4.666  19.283  0.5143 -0.0555  1.8037
 4578TIP3   OH237928   2.335   0.688  16.945  0.2830 -0.1039 -0.4353
 4578TIP3    H137929   2.285   0.753  16.897 -0.5566  0.1734  0.7835
 4578TIP3    H237930   2.318   0.605  16.899  1.2321  0.4737 -1.8929
 4579TIP3   OH237931   4.900   6.600  17.536 -0.0058 -0.3895 -0.7191
 4579TIP3    H137932   4.989   6.571  17.515 -0.2953 -0.1538 -2.4693
 4579TIP3    H237933   4.850   6.582  17.456 -1.9350 -1.9618  0.7469
 4580TIP3   OH237934   6.651   4.107  19.680 -0.1075 -0.2986  0.3036
 4580TIP3    H137935   6.708   4.087  19.754 -0.1811  0.1157  0.4785
 4580TIP3    H237936   6.566   4.072  19.705  0.2577 -1.7142 -0.3366
 4581TIP3   OH237937   5.484   4.831  18.064 -0.3169 -0.0395  0.0645
 4581TIP3    H137938   5.444   4.890  18.000  0.4804  0.4923  0.0520
 4581TIP3    H237939   5.546   4.886  18.113 -0.0909 -0.6989  0.5311
 4582TIP3   OH237940   3.107   0.190  18.023 -0.6051 -0.0379  0.4139
 4582TIP3    H137941   3.144   0.160  18.106  0.0830  2.0454  0.9150
 4582TIP3    H237942   3.162   0.264  17.998  0.8250 -2.1166 -3.2631
 4583TIP3   OH237943   4.500   2.911  19.142  0.4130 -0.1061  0.0771
 4583TIP3    H137944   4.475   2.971  19.212 -0.3451  0.6462 -0.8052
 4583TIP3    H237945   4.590   2.887  19.162  0.3965  0.5405  1.0012
 4584TIP3   OH237946   2.087   6.384  20.372  0.0726 -0.1713 -0.3536
 4584TIP3    H137947   2.041   6.356  20.294 -0.1442 -0.0817 -0.2599
 4584TIP3    H237948   2.023   6.373  20.443 -0.4391  1.6401 -0.4710
 4585TIP3   OH237949   5.940   3.108  20.157 -0.2418  0.0471  0.1167
 4585TIP3    H137950   5.940   3.201  20.179  1.4699  0.2366 -0.5267
 4585TIP3    H237951   5.932   3.105  20.062  1.7941 -0.3177 -0.1014
 4586TIP3   OH237952   0.566   4.706  19.125  0.6868 -0.2197  0.2505
 4586TIP3    H137953   0.488   4.689  19.177  1.2177  0.5231  1.3366
 4586TIP3    H237954   0.639   4.671  19.177  1.0222 -1.8519 -1.2192
 4587TIP3   OH237955   5.393   2.447  19.206 -0.2892 -0.1708  0.1413
 4587TIP3    H137956   5.472   2.501  19.199 -0.3243 -0.2623 -1.3767
 4587TIP3    H237957   5.341   2.489  19.275 -0.0442  1.3887 -0.5728
 4588TIP3   OH237958   2.756   5.874  18.083  0.3585 -0.7888 -0.1321
 4588TIP3    H137959   2.757   5.951  18.140  1.4210 -1.8758  1.4219
 4588TIP3    H237960   2.758   5.909  17.995  2.1101  0.9899  0.5366
 4589TIP3   OH237961   4.134   6.052  20.635  0.4808  0.0486 -0.1105
 4589TIP3    H137962   4.113   5.978  20.691  1.6408  0.0590  0.3575
 4589TIP3    H237963   4.073   6.044  20.561 -0.7582 -0.2140  0.9080
 4590TIP3   OH237964   6.035   5.809  20.114  0.0862 -0.2453 -0.2412
 4590TIP3    H137965   6.090   5.828  20.038  0.2577 -0.7891 -0.2544
 4590TIP3    H237966   5.977   5.739  20.084 -2.0101  1.6481 -0.8966
 4591TIP3   OH237967   3.056   0.776  19.585 -0.0614  0.3938  0.4321
 4591TIP3    H137968   2.995   0.729  19.642 -1.6065  0.3388 -1.1677
 4591TIP3    H237969   3.142   0.743  19.609 -0.9890 -2.7397 -0.0778
 4592TIP3   OH237970   3.753   0.297  20.200 -0.6436  0.1062  0.4813
 4592TIP3    H137971   3.719   0.350  20.128  0.7874  0.1687 -0.1834
 4592TIP3    H237972   3.798   0.360  20.257  2.1093 -0.4303 -0.9305
 4593TIP3   OH237973   0.176   1.922  19.017  0.4356 -0.2027  0.4730
 4593TIP3    H137974   0.117   1.885  18.950 -0.0032 -1.2979  1.4320
 4593TIP3    H237975   0.254   1.867  19.012  1.9233  1.9048 -1.5406
 4594TIP3   OH237976   1.196   2.724  19.090  0.1239 -0.0423  0.3427
 4594TIP3    H137977   1.145   2.729  19.009  0.3964 -0.1259  0.1641
 4594TIP3    H237978   1.178   2.807  19.134  0.1059  0.0767  0.1178
 4595TIP3   OH237979   3.854   2.317  19.777  0.0606  0.4001  0.4163
 4595TIP3    H137980   3.867   2.401  19.733  0.8726 -0.2359 -0.6035
 4595TIP3    H237981   3.938   2.298  19.819  0.5302 -0.7937 -0.9819
 4596TIP3   OH237982   1.119   6.356  17.689  0.3350  0.7306 -0.4289
 4596TIP3    H137983   1.196   6.304  17.667  0.2168  0.4833 -0.2659
 4596TIP3    H237984   1.054   6.331  17.623  0.4726  1.1273 -0.7210
 4597TIP3   OH237985   6.402   2.703  19.073  0.2026 -0.2524  0.0109
 4597TIP3    H137986   6.449   2.653  19.140  0.5880 -0.9701 -0.7807
 4597TIP3    H237987   6.310   2.677  19.085  0.1141  0.4493  0.9536
 4598TIP3   OH237988   2.575   1.336  17.686  0.4689  0.2445 -0.0298
 4598TIP3    H137989   2.556   1.310  17.776  0.3605  0.7156  0.0857
 4598TIP3    H237990   2.495   1.380  17.656  0.6656  0.4911 -0.1994
 4599TIP3   OH237991   4.646   6.462  20.680 -0.3534 -0.2848 -0.2657
 4599TIP3    H137992   4.625   6.530  20.616  0.5590 -0.6970 -1.0314
 4599TIP3    H237993   4.638   6.505  20.765  2.2366  1.4388 -0.7725
 4600TIP3   OH237994   1.358   3.871  18.579  0.0899  0.2713  0.0873
 4600TIP3    H137995   1.357   3.799  18.642  1.0707  0.9993  0.9748
 4600TIP3    H237996   1.291   3.848  18.515 -1.1608 -0.3582  1.5511
 4601TIP3   OH237997   6.407   4.079  19.885  0.7711 -0.1772  0.4578
 4601TIP3    H137998   6.342   4.068  19.815  1.2647  0.7905 -0.1748
 4601TIP3    H237999   6.391   4.006  19.944 -1.8405  0.7710  1.0785
 4602TIP3   OH238000   0.853   0.481  17.751  0.4524  0.2351 -0.4593
 4602TIP3    H138001   0.835   0.423  17.677 -1.8239 -0.1156  0.3013
 4602TIP3    H238002   0.948   0.496  17.746  0.4357  0.0173 -3.2510
 4603TIP3   OH238003   2.358   5.500  18.846 -0.0869 -0.0745  0.4134
 4603TIP3    H138004   2.411   5.456  18.912  0.8993 -2.5095 -1.8046
 4603TIP3    H238005   2.270   5.464  18.856  0.0313 -0.3413  0.4741
 4604TIP3   OH238006   4.423   6.294  17.975 -0.1829  0.2525  0.4132
 4604TIP3    H138007   4.423   6.355  18.050  0.0904  0.0264  0.5985
 4604TIP3    H238008   4.369   6.221  18.004  1.6844 -0.8604  1.2458
 4605TIP3   OH238009   5.096   5.833  19.999  0.0018  0.3142  0.3386
 4605TIP3    H138010   5.081   5.839  19.904  2.4955  0.1808 -0.1378
 4605TIP3    H238011   5.170   5.891  20.015  1.8434 -2.1538  1.5625
 4606TIP3   OH238012   6.181   0.259  20.166 -0.1685  0.0596 -0.2699
 4606TIP3    H138013   6.156   0.249  20.258 -1.0404 -1.1026 -0.5989
 4606TIP3    H238014   6.272   0.233  20.162 -0.8193 -2.4755 -0.1127
 4607TIP3   OH238015   6.163   2.837  17.127 -0.1646 -0.2532  0.4540
 4607TIP3    H138016   6.090   2.850  17.066 -0.6696 -1.2572  0.8190
 4607TIP3    H238017   6.199   2.752  17.103 -0.3780 -0.6687  1.5614
 4608TIP3   OH238018   3.816   2.912  18.694 -0.1825  0.1956  0.9470
 4608TIP3    H138019   3.792   2.953  18.777 -0.7182 -1.3950  1.6283
 4608TIP3    H238020   3.751   2.944  18.632 -0.7816  0.1499  1.5311
 4609TIP3   OH238021   1.950   0.388  17.734  0.0591 -0.4168 -0.7220
 4609TIP3    H138022   1.989   0.366  17.819 -0.1478  0.1442 -0.4760
 4609TIP3    H238023   1.955   0.484  17.730 -3.3437 -0.0717  0.3460
 4610TIP3   OH238024   5.502   2.532  19.534 -0.2558  0.3849 -0.0855
 4610TIP3    H138025   5.422   2.580  19.512 -0.8342 -0.7069 -0.4029
 4610TIP3    H238026   5.545   2.518  19.449  1.3823  2.7980  0.2453
 4611TIP3   OH238027   4.352   6.645  19.697 -0.4106  0.0040  0.0238
 4611TIP3    H138028   4.309   6.718  19.742 -0.7691  0.5335 -1.1286
 4611TIP3    H238029   4.440   6.676  19.678 -0.0953 -0.4019  0.7633
 4612TIP3   OH238030   4.891   4.084  18.018 -0.4123  0.1887 -0.2145
 4612TIP3    H138031   4.956   4.153  18.021 -0.2980  0.0653  0.1832
 4612TIP3    H238032   4.941   4.003  18.026 -0.4841  0.0271 -1.3460
 4613TIP3   OH238033   4.861   5.773  18.995 -0.2826  0.1049 -0.8914
 4613TIP3    H138034   4.774   5.792  18.958 -1.4306 -2.2098  0.3904
 4613TIP3    H238035   4.864   5.678  19.000  0.5552  0.1638  3.0737
 4614TIP3   OH238036   5.353   2.901  20.667  0.6763 -0.4108 -0.7804
 4614TIP3    H138037   5.372   2.847  20.744 -0.0909 -1.2721 -1.1859
 4614TIP3    H238038   5.378   2.990  20.693 -0.5018 -0.5131  0.8224
 4615TIP3   OH238039   2.228   6.027  18.590  0.3327  0.1487  0.0967
 4615TIP3    H138040   2.242   6.107  18.642  0.7545  0.3978 -0.3858
 4615TIP3    H238041   2.315   5.986  18.586  0.3255  0.1835 -0.4902
 4616TIP3   OH238042   5.565   0.208  18.482  0.7201 -0.1143 -0.0740
 4616TIP3    H138043   5.588   0.117  18.497  0.3909 -0.6677 -2.5247
 4616TIP3    H238044   5.556   0.215  18.387 -0.3524  2.2108  0.1372
 4617TIP3   OH238045   2.541   4.482  19.540  0.2532 -0.3066  0.4666
 4617TIP3    H138046   2.469   4.420  19.528 -1.2286  1.3966 -0.0680
 4617TIP3    H238047   2.505   4.549  19.599  1.5497  0.3804  0.5168
 4618TIP3   OH238048   2.824   2.883  18.201  0.1996  0.5780 -0.0417
 4618TIP3    H138049   2.795   2.974  18.209  0.0839  0.6054 -0.7209
 4618TIP3    H238050   2.748   2.831  18.229  1.1499  0.6860  3.1205
 4619TIP3   OH238051   3.513   4.533  20.075 -0.8812 -0.5559  0.0949
 4619TIP3    H138052   3.497   4.493  19.990  1.2189 -0.1410 -0.5400
 4619TIP3    H238053   3.484   4.624  20.065  0.9784 -0.0319 -0.7698
 4620TIP3   OH238054   5.536   1.223  19.487  0.6846 -0.3948  0.6906
 4620TIP3    H138055   5.558   1.170  19.410  0.6642 -1.4299  1.3859
 4620TIP3    H238056   5.523   1.159  19.557  0.5310  0.5290  1.5140
 4621TIP3   OH238057   0.766   2.921  19.707 -0.9058 -0.9815 -0.0738
 4621TIP3    H138058   0.748   2.886  19.794 -1.3740  1.3837  0.8547
 4621TIP3    H238059   0.839   2.869  19.674 -0.0374 -1.2645  2.1619
 4622TIP3   OH238060   4.401   6.436  18.224 -0.4044 -0.0579  0.3209
 4622TIP3    H138061   4.459   6.466  18.293 -0.2474 -0.3674  0.3226
 4622TIP3    H238062   4.402   6.341  18.230 -0.2468 -0.0978 -0.2217
 4623TIP3   OH238063   4.460   0.390  20.000 -0.1997  0.0734 -0.2624
 4623TIP3    H138064   4.487   0.481  19.987  1.0447 -0.0346  1.2563
 4623TIP3    H238065   4.509   0.340  19.935 -0.1719  0.3834 -0.4792
 4624TIP3   OH238066   1.467   4.657  19.749 -0.1271 -0.2059 -0.1756
 4624TIP3    H138067   1.504   4.726  19.695  0.1079 -1.3832 -1.5670
 4624TIP3    H238068   1.388   4.696  19.788  1.6816  1.8626  1.6898
 4625TIP3   OH238069   5.566   4.983  17.655 -0.1552 -0.0448  0.3078
 4625TIP3    H138070   5.476   4.956  17.672  0.5639 -2.2171  1.0980
 4625TIP3    H238071   5.610   4.902  17.629  1.4459  1.0803 -0.6721
 4626TIP3   OH238072   1.947   3.345  17.465 -0.0655  0.3149 -0.1269
 4626TIP3    H138073   1.925   3.269  17.519 -0.3835  1.0814  0.8862
 4626TIP3    H238074   2.042   3.345  17.459 -0.0698 -0.1916 -0.1734
 4627TIP3   OH238075   0.633   2.421  20.710  0.3906  0.0849 -0.3471
 4627TIP3    H138076   0.586   2.494  20.669  0.5109  0.2567 -0.1792
 4627TIP3    H238077   0.691   2.463  20.774  0.7787 -0.1235 -0.5583
 4628TIP3   OH238078   4.556   6.698  20.581  0.2781 -0.9129 -0.1666
 4628TIP3    H138079   4.587   6.748  20.656  1.3767  0.1107 -1.2541
 4628TIP3    H238080   4.462   6.689  20.595  0.1345  0.9640  0.3837
 4629TIP3   OH238081   5.953   2.173  18.696 -0.2455 -0.4800 -0.1184
 4629TIP3    H138082   5.948   2.105  18.763  0.7874 -1.0514 -0.6059
 4629TIP3    H238083   6.042   2.207  18.701  0.1771 -1.2023 -1.8197
 4630TIP3   OH238084   2.515   6.547  19.094 -0.0520 -0.0034 -0.1628
 4630TIP3    H138085   2.585   6.589  19.045 -0.8010 -0.9576 -2.1550
 4630TIP3    H238086   2.556   6.468  19.130  0.0795 -0.1990 -0.7330
 4631TIP3   OH238087   4.841   3.379  17.326  0.5408 -0.4469  0.2721
 4631TIP3    H138088   4.834   3.286  17.302  0.3957 -0.5808  0.8204
 4631TIP3    H238089   4.755   3.415  17.304  0.5962 -0.4401  0.0621
 4632TIP3   OH238090   3.156   6.307  20.450  0.5261 -0.2807  0.1655
 4632TIP3    H138091   3.140   6.392  20.410  0.4034 -0.3088  0.1556
 4632TIP3    H238092   3.247   6.311  20.479  0.6355 -0.2805 -0.1675
 4633TIP3   OH238093   5.984   2.871  20.704  0.5915 -0.5637  0.0074
 4633TIP3    H138094   6.030   2.831  20.630 -0.2572 -0.6765 -0.4737
 4633TIP3    H238095   6.023   2.830  20.781  1.1239 -0.8386 -0.4022
 4634TIP3   OH238096   5.865   3.811  19.570  0.3758  0.2340  0.0185
 4634TIP3    H138097   5.775   3.778  19.565 -0.6303  2.8777 -1.6290
 4634TIP3    H238098   5.862   3.878  19.638  0.4182  1.9421 -1.5716
 4635TIP3   OH238099   0.962   2.480  18.795 -0.1756  0.0620  0.0932
 4635TIP3    H138100   1.004   2.498  18.711  1.3223  0.8254  0.9505
 4635TIP3    H238101   0.960   2.564  18.839 -0.7785 -0.3590  0.8949
 4636TIP3   OH238102   4.305   0.361  18.281 -0.2091  0.0678 -0.3024
 4636TIP3    H138103   4.219   0.370  18.238 -0.9700 -0.0106  1.1401
 4636TIP3    H238104   4.292   0.400  18.367  1.5720  1.1381 -0.4756
 4637TIP3   OH238105   3.945   1.427  20.409  0.4082  0.3098 -0.4516
 4637TIP3    H138106   3.993   1.348  20.433  0.1415  0.0568 -0.7297
 4637TIP3    H238107   3.961   1.437  20.315 -2.3271 -1.4195 -1.2381
 4638TIP3   OH238108   1.236   5.148  19.209 -0.6022  0.1258  0.3539
 4638TIP3    H138109   1.214   5.228  19.162 -0.5572  1.2144  2.1044
 4638TIP3    H238110   1.246   5.175  19.300 -0.0803 -1.7875  0.9209
 4639TIP3   OH238111   0.669   1.248  17.589 -1.0927 -0.3296 -0.2312
 4639TIP3    H138112   0.754   1.284  17.565 -1.3713  1.3317  1.0737
 4639TIP3    H238113   0.636   1.208  17.509  0.0527  0.7780 -1.2945
 4640TIP3   OH238114   3.758   0.124  19.892  0.2103 -0.4090  0.5246
 4640TIP3    H138115   3.838   0.119  19.945  1.4119  0.4164 -1.1198
 4640TIP3    H238116   3.763   0.049  19.833 -0.6205 -0.7554  0.8683
 4641TIP3   OH238117   3.038   2.110  19.797  0.2905 -0.4564  0.0036
 4641TIP3    H138118   2.947   2.137  19.812  0.2295 -0.2607 -0.6721
 4641TIP3    H238119   3.036   2.070  19.710  1.1319  0.9294 -0.6971
 4642TIP3   OH238120   2.172   1.785  20.098 -0.0897 -0.2635  0.2795
 4642TIP3    H138121   2.257   1.830  20.090 -0.3646  0.2228  0.0514
 4642TIP3    H238122   2.118   1.846  20.149 -1.3754  1.0067 -2.4128
 4643TIP3   OH238123   2.251   1.057  16.973  0.3428 -0.0050  0.1614
 4643TIP3    H138124   2.240   1.150  16.990 -1.4245 -0.0362 -0.5704
 4643TIP3    H238125   2.215   1.014  17.051 -0.8843 -0.0717 -0.4202
 4644TIP3   OH238126   4.963   0.617  19.429 -0.5707 -0.2981  0.5051
 4644TIP3    H138127   5.048   0.575  19.417  0.0374  1.4577 -2.2276
 4644TIP3    H238128   4.904   0.567  19.372 -0.6926  0.2183  0.1737
 4645TIP3   OH238129   1.500   5.044  17.595  0.1062 -0.2341 -0.2057
 4645TIP3    H138130   1.481   5.092  17.515 -1.2306 -1.9088 -0.9625
 4645TIP3    H238131   1.422   5.052  17.649  0.6463  0.1088  0.5550
 4646TIP3   OH238132   1.056   0.161  20.572  0.0841  0.1691 -0.1438
 4646TIP3    H138133   1.092   0.236  20.618 -2.9511  2.2144 -0.7585
 4646TIP3    H238134   1.128   0.126  20.521  2.0031  1.6037  1.4388
 4647TIP3   OH238135   2.085   4.434  17.966  0.0955  0.1625  0.0116
 4647TIP3    H138136   2.092   4.528  17.950 -2.0495  0.4142  0.1963
 4647TIP3    H238137   2.136   4.394  17.896 -0.9579  1.4351 -1.5572
 4648TIP3   OH238138   1.856   4.618  19.869  0.5272  0.6389 -0.2067
 4648TIP3    H138139   1.802   4.634  19.792  0.8865  2.2353 -0.1544
 4648TIP3    H238140   1.819   4.674  19.937  0.6147 -0.2681  0.6225
 4649TIP3   OH238141   6.140   0.912  17.583 -0.1284  0.6471  0.2923
 4649TIP3    H138142   6.181   0.894  17.498  0.1165 -0.5817  0.6615
 4649TIP3    H238143   6.153   0.832  17.634 -2.6441  0.3445  0.5665
 4650TIP3   OH238144   4.459   4.824  18.997 -0.2925  0.2980 -0.4563
 4650TIP3    H138145   4.553   4.804  19.002 -0.3316  0.0091 -0.8638
 4650TIP3    H238146   4.416   4.742  19.022 -0.4345  0.7235  0.7473
 4651TIP3   OH238147   3.258   1.555  18.463 -0.1788 -0.2693  0.5868
 4651TIP3    H138148   3.200   1.576  18.536  0.4749  0.1118  1.0110
 4651TIP3    H238149   3.315   1.485  18.497 -0.1211 -0.3599  0.3120
 4652TIP3   OH238150   0.076   4.341  19.545 -0.2601  0.4931 -0.2620
 4652TIP3    H138151  -0.003   4.377  19.505 -0.2178  1.4320  0.4657
 4652TIP3    H238152   0.044   4.281  19.613 -0.3290 -0.6938 -1.2993
 4653TIP3   OH238153   0.777   5.023  18.006  0.2965  0.0953  0.3772
 4653TIP3    H138154   0.796   5.061  17.921  0.4983  0.2728  0.5017
 4653TIP3    H238155   0.843   5.059  18.065  2.2601 -2.5417 -0.0389
 4654TIP3   OH238156   5.740   0.513  19.427  0.2579  0.1927 -0.2997
 4654TIP3    H138157   5.786   0.486  19.348  0.7092  0.5760 -0.1726
 4654TIP3    H238158   5.700   0.597  19.405  3.1403  2.0299  0.8382
 4655TIP3   OH238159   4.152   2.554  18.277  0.7250 -0.3708 -0.3046
 4655TIP3    H138160   4.144   2.469  18.319  1.6786 -0.3116  0.0128
 4655TIP3    H238161   4.065   2.592  18.282  0.1998 -1.4696 -0.7698
 4656TIP3   OH238162   2.077   6.493  19.108  0.3700 -0.1203 -0.2182
 4656TIP3    H138163   2.050   6.563  19.049  1.1965  0.1547 -0.2861
 4656TIP3    H238164   2.146   6.533  19.162  0.5676 -0.7648  0.0167
 4657TIP3   OH238165   5.949   1.852  18.177 -0.1702 -0.5972 -0.0430
 4657TIP3    H138166   5.875   1.829  18.233  0.0641  3.1697  2.1851
 4657TIP3    H238167   5.908   1.880  18.095 -0.9432 -1.4802  0.0300
 4658TIP3   OH238168   4.896   2.976  19.895 -0.0679 -0.2853 -0.4736
 4658TIP3    H138169   4.876   3.020  19.978 -0.9700  0.1004 -0.8841
 4658TIP3    H238170   4.826   3.003  19.836 -0.6459 -2.2550 -0.7581
 4659TIP3   OH238171   0.946   0.312  19.125  0.2850 -0.0466 -0.4172
 4659TIP3    H138172   0.886   0.312  19.200  0.5735  0.3275 -0.1787
 4659TIP3    H238173   0.958   0.405  19.105  3.0379  0.1113  1.3950
 4660TIP3   OH238174   4.875   4.034  20.726  0.4315  0.5247 -0.4333
 4660TIP3    H138175   4.966   4.032  20.753 -0.0047 -0.3027  1.0724
 4660TIP3    H238176   4.847   3.942  20.729 -0.1160  0.5952 -2.1396
 4661TIP3   OH238177   6.444   5.037  19.933 -0.0639 -0.6911  0.2894
 4661TIP3    H138178   6.453   5.056  20.026  4.6643  0.4179 -0.1335
 4661TIP3    H238179   6.498   4.959  19.919  2.1221  1.0488 -1.8543
 4662TIP3   OH238180   4.900   2.928  18.799  0.1371 -0.5639  0.2929
 4662TIP3    H138181   4.881   2.971  18.716  2.5977 -0.8627 -0.4972
 4662TIP3    H238182   4.828   2.866  18.811 -0.0205 -0.8648 -1.8733
 4663TIP3   OH238183   5.295   2.708  20.476  0.0925  0.2733  0.4816
 4663TIP3    H138184   5.332   2.776  20.533 -1.9021  0.6725  1.3656
 4663TIP3    H238185   5.234   2.755  20.420  1.1030 -0.3211 -1.1962
 4664TIP3   OH238186   2.354   1.131  19.337 -0.9278  0.0860  0.4413
 4664TIP3    H138187   2.304   1.122  19.256 -1.7828  1.2553  0.8172
 4664TIP3    H238188   2.411   1.206  19.323  1.3163 -1.6061 -0.2295
 4665TIP3   OH238189   5.954   4.741  18.460  0.3215  0.4753  0.2809
 4665TIP3    H138190   6.000   4.666  18.498 -0.0538 -0.0228 -0.2313
 4665TIP3    H238191   5.912   4.707  18.381 -0.1528  1.1402  0.2322
 4666TIP3   OH238192   3.395   2.786  20.460 -0.8204  0.2773 -0.6364
 4666TIP3    H138193   3.347   2.707  20.484 -0.5936  0.8685  2.1240
 4666TIP3    H238194   3.466   2.754  20.404 -0.1167 -1.6987  1.2138
 4667TIP3   OH238195   2.375   1.945  17.885 -0.3401 -0.1864 -0.1533
 4667TIP3    H138196   2.357   1.941  17.791 -1.6672 -1.5906  0.1179
 4667TIP3    H238197   2.338   2.029  17.913  0.8584  0.6500 -1.0165
 4668TIP3   OH238198   5.188   1.855  19.651 -0.3108  0.2630 -0.6265
 4668TIP3    H138199   5.261   1.794  19.663 -0.6650 -0.0291  0.1124
 4668TIP3    H238200   5.217   1.935  19.694 -0.7259 -0.1069  0.3858
 4669TIP3   OH238201   2.498   3.659  20.060 -0.0767  0.1319 -0.5489
 4669TIP3    H138202   2.580   3.660  20.011  0.6506 -1.5911  0.5217
 4669TIP3    H238203   2.443   3.597  20.013  0.2191 -0.6858  0.1533
 4670TIP3   OH238204   4.015   5.789  19.286  0.2432  0.4882 -0.2597
 4670TIP3    H138205   4.018   5.748  19.199 -2.8524 -0.0419 -0.2218
 4670TIP3    H238206   3.934   5.839  19.286  1.1269  2.0779  1.7158
 4671TIP3   OH238207   2.055   1.806  19.330  0.1225 -0.3222 -0.3141
 4671TIP3    H138208   2.033   1.899  19.334 -0.6528 -0.4421 -1.4016
 4671TIP3    H238209   2.010   1.774  19.252 -0.0615 -1.7359  0.3397
 4672TIP3   OH238210   5.557   4.721  20.088 -0.0835  0.2434  0.2897
 4672TIP3    H138211   5.563   4.662  20.013  1.6249  2.2675 -1.3017
 4672TIP3    H238212   5.489   4.784  20.065  0.0861  0.5692  0.6509
 4673TIP3   OH238213   0.700   4.208  19.803 -0.3126 -0.0828 -0.7090
 4673TIP3    H138214   0.659   4.125  19.778  1.0246 -0.9072 -0.2371
 4673TIP3    H238215   0.628   4.271  19.802 -1.5095 -1.3936 -0.3153
 4674TIP3   OH238216   5.612   4.557  19.846 -0.1734  0.0458  0.2267
 4674TIP3    H138217   5.587   4.541  19.755  0.5905  0.2808 -0.0338
 4674TIP3    H238218   5.633   4.470  19.881  1.6602  0.1640 -0.4831
 4675TIP3   OH238219   4.942   4.419  19.082  0.7239  0.2040 -0.7235
 4675TIP3    H138220   4.985   4.339  19.112  1.1880  0.1757 -1.4344
 4675TIP3    H238221   5.010   4.486  19.087  0.5336  0.4022 -0.7815
 4676TIP3   OH238222   2.383   4.835  21.067 -0.3011 -0.4638 -0.0128
 4676TIP3    H138223   2.444   4.784  21.120 -0.3735 -0.0993  0.4322
 4676TIP3    H238224   2.410   4.819  20.977 -0.0985 -0.9945  0.1407
 4677TIP3   OH238225   6.631   3.708  20.079 -0.3519  0.0841  0.6571
 4677TIP3    H138226   6.562   3.772  20.065 -0.8010 -0.2868  1.1187
 4677TIP3    H238227   6.710   3.760  20.096 -0.5943  0.5074  0.4852
 4678TIP3   OH238228   5.794   5.811  17.418  0.2754  0.5462  0.6728
 4678TIP3    H138229   5.815   5.727  17.376 -1.7128  0.1492  0.3862
 4678TIP3    H238230   5.801   5.794  17.512  2.8108  0.9155  0.6245
 4679TIP3   OH238231   5.063   5.913  19.733 -0.4867 -0.0159 -0.5839
 4679TIP3    H138232   5.120   5.875  19.665 -1.3652  1.1345 -2.0285
 4679TIP3    H238233   4.976   5.911  19.694 -1.0615  0.4725  0.6378
 4680TIP3   OH238234   0.486   2.808  17.795  0.4846  0.2729  0.0751
 4680TIP3    H138235   0.435   2.811  17.714  0.5583  0.3211  0.0304
 4680TIP3    H238236   0.501   2.900  17.818 -0.2086  0.2671  0.5768
 4681TIP3   OH238237   0.203   5.802  20.037 -0.3795 -0.4484  0.3116
 4681TIP3    H138238   0.218   5.895  20.023 -0.2405 -0.5250 -0.0629
 4681TIP3    H238239   0.110   5.789  20.016 -0.4424 -0.3672  0.5299
 4682TIP3   OH238240   5.653   3.640  18.215 -0.0142 -0.1293  0.2344
 4682TIP3    H138241   5.574   3.681  18.179 -1.0637  0.7558  3.2522
 4682TIP3    H238242   5.719   3.709  18.214 -0.5729  0.4476  1.5738
 4683TIP3   OH238243   6.527   2.431  19.702  0.3403 -0.0086 -0.1947
 4683TIP3    H138244   6.517   2.489  19.626 -0.3036 -0.9895 -0.8896
 4683TIP3    H238245   6.474   2.472  19.770  0.1227  0.3747 -0.5854
 4684TIP3   OH238246   3.988   0.075  21.004 -0.0843 -0.1942 -0.2681
 4684TIP3    H138247   3.960   0.048  21.092 -0.9103  0.4868 -0.3034
 4684TIP3    H238248   4.058   0.014  20.981 -0.4677 -0.9518  0.5005
 4685TIP3   OH238249   3.865   3.938  18.482 -0.0512 -0.0538  0.0169
 4685TIP3    H138250   3.803   3.908  18.548 -0.0429  0.0086  0.0532
 4685TIP3    H238251   3.878   3.862  18.425  0.7475 -0.4337  0.6937
 4686TIP3   OH238252   1.203   1.711  17.205 -0.3244 -0.8589 -0.4971
 4686TIP3    H138253   1.215   1.805  17.221  1.1590 -1.0494 -0.3964
 4686TIP3    H238254   1.280   1.685  17.155 -0.1520 -2.2463  0.4250
 4687TIP3   OH238255   2.178   6.114  20.551 -0.3218  0.0707 -0.2883
 4687TIP3    H138256   2.239   6.186  20.535  0.8761 -0.7284  0.4723
 4687TIP3    H238257   2.215   6.040  20.503  0.0745 -0.7704  1.2225
 4688TIP3   OH238258   1.476   5.922  19.126 -0.5807  0.5647  0.5589
 4688TIP3    H138259   1.421   6.000  19.134 -0.2640  0.8773 -0.2716
 4688TIP3    H238260   1.565   5.953  19.141 -0.4040  0.4599 -0.2122
 4689TIP3   OH238261   2.787   5.695  20.493 -0.1751  0.5895 -0.1304
 4689TIP3    H138262   2.794   5.776  20.442  1.2369  1.3388  1.1597
 4689TIP3    H238263   2.860   5.700  20.555 -0.5214 -1.3256  0.4879
 4690TIP3   OH238264   4.059   4.636  17.930  0.1531 -0.5414 -0.3126
 4690TIP3    H138265   4.089   4.724  17.951 -0.1380 -0.8359  1.6063
 4690TIP3    H238266   4.124   4.578  17.969 -0.9864 -1.1584  0.7792
 4691TIP3   OH238267   1.346   1.484  17.949  0.3235 -0.7176 -0.0013
 4691TIP3    H138268   1.320   1.392  17.958  1.0015 -1.1021 -1.5481
 4691TIP3    H238269   1.436   1.480  17.915 -0.3823  0.4482 -2.1851
 4692TIP3   OH238270   6.000   6.691  19.613 -0.2243  0.0313  0.5092
 4692TIP3    H138271   5.978   6.780  19.586  0.7962  0.3578  0.7086
 4692TIP3    H238272   5.962   6.681  19.700  0.5454  0.6456  0.9244
 4693TIP3   OH238273   3.356   2.782  17.747 -0.1057 -0.0883 -0.5063
 4693TIP3    H138274   3.431   2.727  17.722  0.2148 -0.9771  2.0723
 4693TIP3    H238275   3.370   2.865  17.701  0.9203 -1.1821 -2.2869
 4694TIP3   OH238276   2.260   0.717  18.173 -0.5046  0.0055  0.1191
 4694TIP3    H138277   2.180   0.767  18.184 -1.0085 -1.0340  1.3694
 4694TIP3    H238278   2.234   0.640  18.121  0.1158  0.6220 -1.1665
 4695TIP3   OH238279   2.219   0.972  20.306 -0.1993  0.0225  0.1122
 4695TIP3    H138280   2.129   0.939  20.307 -0.3253  0.2089 -1.8248
 4695TIP3    H238281   2.273   0.893  20.301 -0.2652 -0.0700  0.7790
 4696TIP3   OH238282   1.530   5.642  20.709 -0.4242 -0.3178  0.4268
 4696TIP3    H138283   1.601   5.642  20.644 -0.5070  2.5728  0.2240
 4696TIP3    H238284   1.570   5.675  20.789 -0.9306 -1.3724  1.1365
 4697TIP3   OH238285   5.099   5.201  20.635  0.5226  0.4863  0.5317
 4697TIP3    H138286   5.031   5.156  20.684  0.0019  1.1378  0.4127
 4697TIP3    H238287   5.105   5.288  20.675  0.1647  0.9917 -0.4713
 4698TIP3   OH238288   3.941   0.726  18.683  0.5119 -0.2616  0.4030
 4698TIP3    H138289   3.906   0.637  18.684 -0.6292  0.1782  0.6775
 4698TIP3    H238290   3.981   0.737  18.769  0.3128 -0.3833  0.5118
 4699TIP3   OH238291   4.421   5.280  18.414 -0.2105  0.1763  0.0870
 4699TIP3    H138292   4.423   5.236  18.499 -0.0548  1.2537  0.6662
 4699TIP3    H238293   4.477   5.357  18.426  2.0312 -1.0340 -1.8091
 4700TIP3   OH238294   2.804   2.980  19.208 -0.1502  0.3578 -0.2458
 4700TIP3    H138295   2.783   2.893  19.242 -0.1179  1.7201  3.8001
 4700TIP3    H238296   2.898   2.989  19.222 -0.2205  1.1574 -0.2433
 4701TIP3   OH238297   4.102   4.728  20.910 -0.1329 -0.6751 -0.4696
 4701TIP3    H138298   4.109   4.632  20.915 -0.5542 -0.6819  0.0259
 4701TIP3    H238299   4.009   4.746  20.920  0.0944 -0.1430  0.8341
 4702TIP3   OH238300   0.859   1.228  20.577 -0.2228 -0.5052 -0.5337
 4702TIP3    H138301   0.848   1.193  20.488  0.7861 -1.0574 -0.4590
 4702TIP3    H238302   0.953   1.222  20.593 -0.5629 -2.0028  1.2001
 4703TIP3   OH238303   6.345   0.741  19.021  0.2955 -0.2781  0.3363
 4703TIP3    H138304   6.281   0.670  19.031  0.1701 -0.3756 -1.0087
 4703TIP3    H238305   6.426   0.697  18.995  0.0011  0.0884 -1.3573
 4704TIP3   OH238306   0.953   6.424  17.919 -0.2025 -0.3142 -0.6997
 4704TIP3    H138307   0.990   6.488  17.980 -1.8378 -1.1737  1.2815
 4704TIP3    H238308   1.014   6.424  17.845  0.4113  2.7404 -0.3234
 4705TIP3   OH238309   0.603   3.416  18.820 -0.1018  0.0882 -0.4577
 4705TIP3    H138310   0.617   3.340  18.764  3.5140  0.5305 -0.4093
 4705TIP3    H238311   0.584   3.487  18.760 -1.6310 -0.4487 -0.6430
 4706TIP3   OH238312   5.108   2.951  19.310  0.1049  0.5335  0.4039
 4706TIP3    H138313   5.137   2.862  19.290 -0.3118  0.3024  0.8176
 4706TIP3    H238314   5.152   3.005  19.244 -0.1161 -0.0419 -0.2281
 4707TIP3   OH238315   4.838   2.187  18.440 -0.2608 -0.0754 -0.2553
 4707TIP3    H138316   4.847   2.104  18.393 -0.4506  0.2332 -0.8511
 4707TIP3    H238317   4.898   2.179  18.514  0.8210 -0.1830 -1.1064
 4708TIP3   OH238318   1.441   5.671  20.214 -0.0914 -0.2452 -0.3931
 4708TIP3    H138319   1.473   5.759  20.232  1.2689 -1.2842  3.2620
 4708TIP3    H238320   1.346   5.676  20.223 -0.1094  0.9823 -1.1372
 4709TIP3   OH238321   4.325   1.758  19.985 -0.1130  0.1849 -0.2172
 4709TIP3    H138322   4.391   1.740  19.918  0.0841 -1.4924  0.3765
 4709TIP3    H238323   4.250   1.791  19.936  0.4570  0.1794 -1.1256
 4710TIP3   OH238324   1.393   1.054  18.521  0.0833  0.4421  0.4183
 4710TIP3    H138325   1.395   0.985  18.587  1.7337 -0.9309 -0.9522
 4710TIP3    H238326   1.316   1.107  18.543 -0.4805 -1.0464  2.2904
 4711TIP3   OH238327   2.761   2.056  19.152  0.1160 -0.3208  0.1503
 4711TIP3    H138328   2.689   2.101  19.109  0.1779 -0.7399 -0.3931
 4711TIP3    H238329   2.816   2.023  19.081 -0.3164 -1.8925  0.5005
 4712TIP3   OH238330   3.964   4.015  19.303 -0.0876  0.0332 -0.1126
 4712TIP3    H138331   3.926   4.093  19.344 -0.9295 -0.7309  0.5727
 4712TIP3    H238332   3.966   3.950  19.373  0.5665 -0.5856 -0.6978
 4713TIP3   OH238333   4.808   4.492  20.495 -0.5851 -0.2512 -0.1370
 4713TIP3    H138334   4.757   4.471  20.574 -2.9256  1.8826 -0.9533
 4713TIP3    H238335   4.745   4.483  20.423  0.8245  0.2861 -1.4907
 4714TIP3   OH238336   0.685   1.451  19.808  0.4826  0.1409 -1.0932
 4714TIP3    H138337   0.764   1.402  19.831 -0.4576 -0.9127 -0.0345
 4714TIP3    H238338   0.640   1.396  19.745 -0.1210  0.0584 -0.5961
 4715TIP3   OH238339   2.955   3.506  20.687 -0.1145 -0.1647  0.1590
 4715TIP3    H138340   2.910   3.423  20.673  2.2475 -1.1008 -3.3857
 4715TIP3    H238341   3.047   3.482  20.700  0.4617  1.8508  0.2655
 4716TIP3   OH238342   3.800   4.940  17.901  0.3837  0.0439  0.7117
 4716TIP3    H138343   3.889   4.903  17.904  0.7115  0.5156 -1.7064
 4716TIP3    H238344   3.743   4.864  17.894  0.2863 -0.4400  4.3759
 4717TIP3   OH238345   3.649   2.302  19.974 -0.3066 -0.1330  0.0492
 4717TIP3    H138346   3.729   2.333  19.932 -0.1876  0.5443  0.7396
 4717TIP3    H238347   3.614   2.236  19.915  0.3344  0.1490 -0.6572
 4718TIP3   OH238348   2.957   0.401  18.516  0.1116 -0.0425 -0.6218
 4718TIP3    H138349   2.987   0.487  18.545  1.9698 -0.7111 -0.4430
 4718TIP3    H238350   2.868   0.393  18.551  0.8502  0.7544  1.5789
 4719TIP3   OH238351   1.689   4.808  18.816 -0.4292  0.1701 -0.1318
 4719TIP3    H138352   1.619   4.824  18.752  1.3570 -0.4587 -2.3999
 4719TIP3    H238353   1.768   4.836  18.771  1.2544 -2.6981  0.7738
 4720TIP3   OH238354   1.834   1.348  19.822  0.5319 -0.3944  0.1265
 4720TIP3    H138355   1.861   1.329  19.732 -0.4970 -2.0261  0.1190
 4720TIP3    H238356   1.744   1.317  19.827 -0.5290  2.5345  0.8789
 4721TIP3   OH238357   4.519   4.802  19.389  0.2474  0.5493 -0.0619
 4721TIP3    H138358   4.573   4.785  19.312 -1.6693  1.5378 -1.7353
 4721TIP3    H238359   4.456   4.729  19.390  0.0205  0.7456  0.3576
 4722TIP3   OH238360   2.870   5.831  20.981  0.4450 -0.3761  0.0949
 4722TIP3    H138361   2.788   5.870  20.954  0.4229  0.1207  0.8393
 4722TIP3    H238362   2.927   5.906  21.001  1.3210 -0.6939 -1.0661
 4723TIP3   OH238363   5.113   5.092  19.668 -0.3741 -0.4881 -0.1112
 4723TIP3    H138364   5.058   5.013  19.673  0.3304 -1.0924 -1.5108
 4723TIP3    H238365   5.050   5.163  19.655 -1.0823 -0.6713  1.9122
 4724TIP3   OH238366   3.799   4.271  18.713 -0.6403  0.1396  0.3741
 4724TIP3    H138367   3.888   4.286  18.679 -0.4793  0.2387  0.8301
 4724TIP3    H238368   3.800   4.180  18.744 -0.1607  0.6469  1.9491
 4725TIP3   OH238369   5.788   0.643  18.445  0.1389 -0.4841  0.3581
 4725TIP3    H138370   5.864   0.696  18.468  0.8118 -1.7931  1.2036
 4725TIP3    H238371   5.814   0.553  18.461 -0.9678 -1.1215 -1.1097
 4726TIP3   OH238372   6.386   1.707  20.535 -0.0017  0.2124 -0.0482
 4726TIP3    H138373   6.307   1.761  20.540 -0.0158  0.1454  0.5943
 4726TIP3    H238374   6.353   1.618  20.523 -0.0421  0.1363  0.6007
 4727TIP3   OH238375   0.293   2.450  18.954 -0.2167 -0.1455 -0.5474
 4727TIP3    H138376   0.360   2.459  19.021 -1.4986 -0.9814  0.9001
 4727TIP3    H238377   0.341   2.433  18.873  1.2905 -0.9309  0.4865
 4728TIP3   OH238378   1.180   2.837  20.000 -0.0325  0.1177  0.0712
 4728TIP3    H138379   1.164   2.791  19.918 -1.4197  1.9291 -0.7525
 4728TIP3    H238380   1.273   2.861  19.996  0.1402 -0.6343 -0.5172
 4729TIP3   OH238381   5.505   1.882  19.254 -0.2521 -0.0068  0.0514
 4729TIP3    H138382   5.500   1.977  19.265 -0.5455 -0.0717  0.4913
 4729TIP3    H238383   5.599   1.862  19.258 -0.3005 -0.0126  2.4944
 4730TIP3   OH238384   5.811   5.358  20.623 -0.2841 -0.4889  0.1255
 4730TIP3    H138385   5.846   5.290  20.681  1.1771  0.5042  0.4746
 4730TIP3    H238386   5.888   5.409  20.598 -1.2330  0.5117 -0.8150
 4731TIP3   OH238387   3.282   5.842  18.326 -0.3645  0.0057  0.6976
 4731TIP3    H138388   3.345   5.868  18.259 -1.8247  1.3705 -0.2087
 4731TIP3    H238389   3.215   5.792  18.279 -1.1983  0.6416  1.1689
 4732TIP3   OH238390   4.842   0.966  18.580 -0.0882  0.3573 -0.1431
 4732TIP3    H138391   4.896   0.912  18.637 -0.4319 -0.0053 -0.1551
 4732TIP3    H238392   4.872   1.055  18.596  1.0326  0.1042 -0.7162
 4733TIP3   OH238393   1.099   6.703  19.796 -0.0431 -0.3636  0.4406
 4733TIP3    H138394   1.119   6.693  19.889 -1.9619 -1.8054  0.7620
 4733TIP3    H238395   1.098   6.798  19.782  1.0828 -0.1455  1.6718
 4734TIP3   OH238396   4.066   1.753  18.681  0.5200  0.6217  0.3843
 4734TIP3    H138397   4.152   1.749  18.722  1.8834 -2.0337 -2.3822
 4734TIP3    H238398   4.075   1.818  18.612  0.0833  0.7961  0.4860
 4735TIP3   OH238399   4.618   5.571  19.203 -0.2880  0.2762 -0.0754
 4735TIP3    H138400   4.525   5.572  19.181 -0.1638 -1.2582 -0.7780
 4735TIP3    H238401   4.661   5.538  19.124  0.8774  1.1129  0.1882
 4736TIP3   OH238402   4.829   0.835  19.171 -0.0135  0.3585  0.0969
 4736TIP3    H138403   4.780   0.883  19.238  1.6403  0.1465  1.5617
 4736TIP3    H238404   4.920   0.840  19.201  0.4511 -2.0817 -0.6752
 4737TIP3   OH238405   1.631   5.189  18.268  0.1143 -0.1328 -0.4378
 4737TIP3    H138406   1.629   5.128  18.342  2.2519  0.7317  0.4158
 4737TIP3    H238407   1.676   5.141  18.198  0.4022 -0.0849 -0.2893
 4738TIP3   OH238408   4.105   1.850  18.119  0.0771 -0.3005  0.2249
 4738TIP3    H138409   4.027   1.851  18.064  0.5209  2.8497 -0.5261
 4738TIP3    H238410   4.174   1.815  18.062 -0.5064 -2.2605  0.6220
 4739TIP3   OH238411   1.405   1.111  18.204 -0.5685  0.2079 -0.0371
 4739TIP3    H138412   1.432   1.200  18.181  1.9275 -0.3250  0.5152
 4739TIP3    H238413   1.429   1.102  18.296  0.3887 -1.4199 -0.4168
 4740TIP3   OH238414   5.101   3.320  17.414 -0.7453 -0.1613 -0.1527
 4740TIP3    H138415   5.152   3.400  17.423 -0.8338 -0.2567  1.7150
 4740TIP3    H238416   5.012   3.350  17.393 -0.5153  0.1469 -0.7079
 4741TIP3   OH238417   4.788   4.604  20.850 -0.2368 -0.0124  0.2663
 4741TIP3    H138418   4.834   4.642  20.775 -2.3413  2.7490  0.2215
 4741TIP3    H238419   4.767   4.679  20.906 -0.3909 -1.7660  2.6996
 4742TIP3   OH238420   3.480   3.417  20.247 -0.0299 -0.2064  0.4896
 4742TIP3    H138421   3.494   3.474  20.322  1.1182  0.4532 -0.1896
 4742TIP3    H238422   3.409   3.459  20.197  2.6572  2.3805 -1.5307
 4743TIP3   OH238423   5.086   1.324  17.360  0.0144  0.1546 -0.0341
 4743TIP3    H138424   5.021   1.385  17.396  0.1978  0.1655  0.2833
 4743TIP3    H238425   5.156   1.381  17.329 -0.6039  0.2123 -1.3799
 4744TIP3   OH238426   3.596   5.987  20.992  0.1739  0.5236  0.2237
 4744TIP3    H138427   3.534   5.996  21.065 -0.6363  0.0632 -0.3838
 4744TIP3    H238428   3.597   6.073  20.950 -0.5147  0.3781 -0.1078
 4745TIP3   OH238429   3.366   6.360  20.162  0.3734  0.1938 -0.2615
 4745TIP3    H138430   3.315   6.440  20.150  0.4683  0.1239 -1.1968
 4745TIP3    H238431   3.423   6.356  20.086  0.7018 -0.5235  0.0119
 4746TIP3   OH238432   5.916   2.627  18.505  0.1293 -0.1086  0.0813
 4746TIP3    H138433   5.924   2.558  18.571  0.7709 -0.0405  0.0748
 4746TIP3    H238434   5.849   2.686  18.541  0.8184  0.1913  0.9095
 4747TIP3   OH238435   3.438   2.136  17.915 -0.6374  0.2202  0.0678
 4747TIP3    H138436   3.515   2.108  17.865 -1.5906  1.6468 -2.3892
 4747TIP3    H238437   3.377   2.063  17.909  0.3709 -0.8612  1.9108
 4748TIP3   OH238438   3.746   5.831  17.513 -0.3566 -0.2526  0.5861
 4748TIP3    H138439   3.689   5.902  17.543 -1.8646 -1.2295  0.1093
 4748TIP3    H238440   3.726   5.822  17.420 -0.7567 -1.8213  0.8080
 4749TIP3   OH238441   3.288   3.047  20.470 -0.6556 -0.0211  0.0194
 4749TIP3    H138442   3.354   2.979  20.484  0.0297  0.4634 -0.7958
 4749TIP3    H238443   3.279   3.052  20.375 -1.1802  0.5815  0.0951
 4750TIP3   OH238444   3.670   1.594  19.835 -0.4980 -0.0609  0.2320
 4750TIP3    H138445   3.581   1.611  19.865 -1.0665  0.5886 -1.6399
 4750TIP3    H238446   3.700   1.678  19.801  0.5195 -0.4707  0.0753
 4751TIP3   OH238447   5.106   5.568  17.760 -0.2663  0.9238  0.1466
 4751TIP3    H138448   5.063   5.542  17.841  3.0386 -1.8802  1.2488
 4751TIP3    H238449   5.154   5.648  17.782  0.3614  0.3504  0.9127
 4752TIP3   OH238450   4.608   5.489  18.413 -0.9686  0.3708  0.1587
 4752TIP3    H138451   4.660   5.569  18.403 -1.2479  0.5217 -0.0918
 4752TIP3    H238452   4.598   5.479  18.508 -0.4076  0.2928  0.2120
 4753TIP3   OH238453   1.264   5.066  17.768  0.3722 -0.4347 -0.1002
 4753TIP3    H138454   1.332   5.131  17.789  0.1378 -0.9222  2.4977
 4753TIP3    H238455   1.188   5.094  17.819 -0.6427 -1.2412 -1.1080
 4754TIP3   OH238456   3.246   5.935  20.752 -0.0827 -0.2650  0.2457
 4754TIP3    H138457   3.326   5.887  20.732 -0.2191 -0.1469 -0.5865
 4754TIP3    H238458   3.233   5.994  20.678 -0.2712  0.6052  0.9494
 4755TIP3   OH238459   3.510   1.737  20.475  0.3927 -0.1247  0.1515
 4755TIP3    H138460   3.603   1.723  20.493  0.3454 -1.0723 -0.3006
 4755TIP3    H238461   3.484   1.663  20.420 -1.0187 -0.7466  1.5640
 4756TIP3   OH238462   2.094   0.574  19.542 -0.0300  0.0038  0.2984
 4756TIP3    H138463   2.108   0.609  19.630 -1.9919 -1.1795  1.1610
 4756TIP3    H238464   2.012   0.614  19.512  0.2722 -0.1056 -0.7231
 4757TIP3   OH238465   3.364   4.023  19.001  0.3554  0.3716  0.3702
 4757TIP3    H138466   3.335   4.095  18.946 -0.7798  1.2325  2.0077
 4757TIP3    H238467   3.282   3.982  19.031  0.9559 -0.5210  0.8321
 4758TIP3   OH238468   4.220   3.016  19.107 -1.0586 -0.7350 -0.2982
 4758TIP3    H138469   4.282   2.945  19.120 -0.6316 -0.1377  1.1357
 4758TIP3    H238470   4.147   2.976  19.060 -0.8847 -2.1571  0.5742
 4759TIP3   OH238471   6.217   4.777  18.833  0.5414 -0.4713  0.3831
 4759TIP3    H138472   6.254   4.690  18.818 -0.0573 -0.7484  0.5028
 4759TIP3    H238473   6.270   4.835  18.779 -0.8297 -1.2785 -1.9834
 4760TIP3   OH238474   6.208   4.004  17.573 -0.0505  0.0325  0.7601
 4760TIP3    H138475   6.166   3.937  17.628 -1.0847 -0.5488 -0.6563
 4760TIP3    H238476   6.177   3.984  17.485  2.7613 -0.0132 -0.3055
 4761TIP3   OH238477   2.577   1.926  18.932  0.4206 -0.0268  0.1057
 4761TIP3    H138478   2.557   2.020  18.936 -1.3889 -0.3923  0.7140
 4761TIP3    H238479   2.671   1.922  18.921  0.8614  1.8649  2.3606
 4762TIP3   OH238480   1.464   1.668  20.357 -0.2350 -0.5412 -0.4821
 4762TIP3    H138481   1.481   1.700  20.446 -2.7031 -2.3860  0.8028
 4762TIP3    H238482   1.550   1.665  20.315  1.1069 -0.1245  2.0259
 4763TIP3   OH238483   4.385   2.283  19.418  0.2851 -0.0318  0.5515
 4763TIP3    H138484   4.478   2.305  19.420  0.3726 -0.4201  0.9004
 4763TIP3    H238485   4.358   2.303  19.329  0.8833 -0.6223  0.2252
 4764TIP3   OH238486   0.514   0.896  18.031 -0.7663 -0.2027 -0.0276
 4764TIP3    H138487   0.553   0.859  17.952 -1.7887 -1.7469  0.1436
 4764TIP3    H238488   0.581   0.956  18.065 -0.5451  1.0269 -2.3778
 4765TIP3   OH238489   0.322   6.717  20.026 -0.0088  0.5900 -0.1225
 4765TIP3    H138490   0.280   6.779  20.086 -0.2379 -0.1894  0.5426
 4765TIP3    H238491   0.262   6.643  20.023  1.2436 -0.5168  0.7668
 4766TIP3   OH238492   2.191   1.292  19.943  0.0461  0.2181 -0.5444
 4766TIP3    H138493   2.107   1.280  19.987  1.1747 -1.1550  1.4302
 4766TIP3    H238494   2.238   1.355  19.997  2.2811 -3.0771  1.7913
 4767TIP3   OH238495   4.635   6.311  18.680 -0.1401 -0.0744 -0.0098
 4767TIP3    H138496   4.674   6.276  18.760  0.9078  1.0738  0.0051
 4767TIP3    H238497   4.627   6.405  18.696  0.3018  0.2035 -1.3393
 4768TIP3   OH238498   5.494   5.400  18.061 -0.2670  0.0556 -0.0210
 4768TIP3    H138499   5.510   5.486  18.100 -0.6919 -0.0441  0.3788
 4768TIP3    H238500   5.568   5.387  18.001  1.6030 -0.7387  2.3102
 4769TIP3   OH238501   0.319   5.374  17.430  0.2096  0.2987  0.0350
 4769TIP3    H138502   0.356   5.305  17.374 -0.4627 -0.4214  0.4622
 4769TIP3    H238503   0.253   5.330  17.482 -0.3093  1.2969  0.2501
 4770TIP3   OH238504   4.120   5.916  17.855 -0.8892 -0.0869 -0.2984
 4770TIP3    H138505   4.200   5.875  17.821 -0.8293  0.5217 -0.9247
 4770TIP3    H238506   4.149   6.001  17.887 -1.0679 -0.3855  0.6871
 4771TIP3   OH238507   0.633   6.225  17.042  0.7243  0.4613 -0.3221
 4771TIP3    H138508   0.726   6.206  17.048  0.4564 -0.7497  0.2505
 4771TIP3    H238509   0.602   6.169  16.971  0.0403 -0.8962  0.9798
 4772TIP3   OH238510   0.724   0.950  20.687 -0.3071 -0.7589 -0.0461
 4772TIP3    H138511   0.708   0.999  20.768  0.0441 -1.0337  0.1929
 4772TIP3    H238512   0.819   0.951  20.677 -0.3606 -0.5686 -0.5570
 4773TIP3   OH238513   4.173   3.284  18.880 -0.0317 -0.3785  0.1375
 4773TIP3    H138514   4.225   3.279  18.960  2.4118 -1.7322 -1.4102
 4773TIP3    H238515   4.135   3.372  18.882 -0.6772 -0.6125  3.0891
 4774TIP3   OH238516   3.082   1.148  19.785  0.3659 -0.4966  0.0464
 4774TIP3    H138517   2.999   1.160  19.738  0.7775 -1.0746 -0.8378
 4774TIP3    H238518   3.071   1.066  19.833  0.5118 -0.7068 -0.2745
 4775TIP3   OH238519   5.694   6.585  18.073 -0.0706  0.1472 -0.0735
 4775TIP3    H138520   5.720   6.555  17.986  0.7643  1.2646 -0.2346
 4775TIP3    H238521   5.599   6.574  18.075  0.0901 -1.4945 -0.4790
 4776TIP3   OH238522   1.029   4.999  18.843  0.2380  0.3984 -0.2758
 4776TIP3    H138523   1.062   4.960  18.924  0.9502  0.3684 -0.5682
 4776TIP3    H238524   1.012   5.091  18.865  0.6757  0.4537 -0.1505
 4777TIP3   OH238525   6.578   1.520  18.079 -0.2578  0.2081 -0.2601
 4777TIP3    H138526   6.670   1.544  18.095 -0.4939  1.6274 -0.8332
 4777TIP3    H238527   6.580   1.473  17.996  0.2742 -2.3227  1.0987
 4778TIP3   OH238528   0.897   5.618  20.647  0.1344 -0.0262 -0.5791
 4778TIP3    H138529   0.803   5.623  20.660  0.3504  0.2866  1.1077
 4778TIP3    H238530   0.924   5.709  20.633  0.1218 -0.1893 -1.8101
 4779TIP3   OH238531   4.629   3.738  17.751 -0.3516  0.0986  0.3609
 4779TIP3    H138532   4.596   3.778  17.670 -3.8584 -2.8089  0.0925
 4779TIP3    H238533   4.700   3.680  17.721  1.3708  2.2030  0.1113
 4780TIP3   OH238534   0.754   4.080  20.338  0.2364  0.6162 -0.4319
 4780TIP3    H138535   0.752   4.045  20.249 -2.0933 -1.4488  0.3353
 4780TIP3    H238536   0.840   4.055  20.371  0.2377 -0.6900 -1.3332
 4781TIP3   OH238537   0.466   5.359  19.697  0.0590  0.1117 -0.2923
 4781TIP3    H138538   0.558   5.360  19.668  0.8100 -3.3948  1.3898
 4781TIP3    H238539   0.467   5.409  19.779  1.1378 -1.8287  0.9855
 4782TIP3   OH238540   2.535   0.433  19.928 -0.0836 -0.3492  0.3976
 4782TIP3    H138541   2.545   0.486  20.008  0.4332 -0.2416  0.2627
 4782TIP3    H238542   2.624   0.414  19.900 -0.2215  0.9135 -1.0258
 4783TIP3   OH238543   6.422   2.647  19.830 -0.2850  0.2912 -0.5681
 4783TIP3    H138544   6.420   2.740  19.807 -0.8530  0.0275 -1.6640
 4783TIP3    H238545   6.450   2.646  19.921 -0.0880  1.5265 -0.5911
 4784TIP3   OH238546   5.473   3.848  18.702  0.0636 -0.6780  0.2786
 4784TIP3    H138547   5.406   3.861  18.769 -1.3754  0.9526 -1.4006
 4784TIP3    H238548   5.459   3.759  18.671  0.5253 -1.3359  1.8311
 4785TIP3   OH238549   0.724   3.426  20.333 -0.4476 -0.3718  0.0055
 4785TIP3    H138550   0.809   3.385  20.348 -0.6769 -0.4525  1.2049
 4785TIP3    H238551   0.680   3.369  20.270  0.1289 -0.6875 -0.1111
 4786TIP3   OH238552   1.663   3.535  20.398 -0.0267  0.4333  0.1497
 4786TIP3    H138553   1.661   3.624  20.434  1.7187  0.2165  0.8686
 4786TIP3    H238554   1.571   3.513  20.384 -0.5155  2.1852  0.3637
 4787TIP3   OH238555   3.998   0.538  18.305 -0.0392  0.0800 -0.6362
 4787TIP3    H138556   4.014   0.450  18.336 -0.0955  0.1404 -0.4351
 4787TIP3    H238557   3.970   0.587  18.382  1.1629  0.5808 -0.5006
 4788TIP3   OH238558   6.657   0.639  19.361  0.1396  0.3691  0.3467
 4788TIP3    H138559   6.580   0.694  19.367  0.4221  0.7091  0.9950
 4788TIP3    H238560   6.626   0.557  19.322 -0.7823  0.0743  1.6438
 4789TIP3   OH238561   2.046   6.222  16.792 -0.0685  0.4858 -0.3225
 4789TIP3    H138562   2.086   6.230  16.879 -0.1225  1.2866 -0.3647
 4789TIP3    H238563   2.051   6.310  16.756 -0.3071  0.2137 -1.0226
 4790TIP3   OH238564   3.751   5.121  18.155  0.0103  0.4272 -0.6844
 4790TIP3    H138565   3.758   5.035  18.113  0.1088  0.9019 -1.6621
 4790TIP3    H238566   3.771   5.104  18.247  2.5945 -0.1851 -1.2737
 4791TIP3   OH238567   2.105   0.485  20.339  0.3141 -0.5558 -0.2840
 4791TIP3    H138568   2.124   0.441  20.422 -0.7183 -0.0187  0.2645
 4791TIP3    H238569   2.009   0.483  20.333  0.0446  2.9731  0.5715
 4792TIP3   OH238570   3.718   2.828  20.577  0.3194 -0.3459 -0.7847
 4792TIP3    H138571   3.757   2.879  20.506  0.1511 -0.1420 -0.7316
 4792TIP3    H238572   3.693   2.894  20.642 -0.1894 -0.4681 -0.8548
 4793TIP3   OH238573   1.117   2.272  20.836 -0.4242  0.2203 -0.3123
 4793TIP3    H138574   1.030   2.237  20.858 -1.2202  1.6138 -1.0953
 4793TIP3    H238575   1.099   2.344  20.775  1.3075  0.3862 -0.6690
 4794TIP3   OH238576   4.045   4.088  18.674  0.4314 -0.3511 -0.1531
 4794TIP3    H138577   3.999   4.023  18.728 -1.6988  0.4141 -0.9475
 4794TIP3    H238578   4.076   4.039  18.598 -1.6631 -0.4063 -1.0288
 4795TIP3   OH238579   0.968   2.316  19.699  0.5896  0.6386  0.4442
 4795TIP3    H138580   0.898   2.283  19.642  0.0760  2.1802  0.1311
 4795TIP3    H238581   0.928   2.388  19.747  1.4335  0.2880  1.7152
 4796TIP3   OH238582   6.164   2.813  20.424  0.2407 -0.3261 -0.0453
 4796TIP3    H138583   6.225   2.870  20.377  0.1791 -0.9871 -0.9552
 4796TIP3    H238584   6.086   2.809  20.367  0.6294 -2.1091 -0.5258
 4797TIP3   OH238585   1.341   4.141  18.550 -0.2271 -0.3307 -0.2821
 4797TIP3    H138586   1.346   4.047  18.563 -0.4926 -0.4263 -0.8504
 4797TIP3    H238587   1.431   4.172  18.562 -0.0697 -0.7078 -0.4948
 4798TIP3   OH238588   4.122   2.749  19.597  0.6944  0.2179 -0.0031
 4798TIP3    H138589   4.090   2.837  19.611  2.0643  0.6332  0.7160
 4798TIP3    H238590   4.158   2.722  19.682  1.6012 -0.4571 -0.5700
 4799TIP3   OH238591   6.313   1.294  19.525 -0.3826 -0.3489  0.4142
 4799TIP3    H138592   6.356   1.275  19.608  0.4464 -1.1646 -0.1877
 4799TIP3    H238593   6.305   1.390  19.523 -0.1415 -0.3041  1.2910
 4800TIP3   OH238594   2.662   6.685  20.739  0.0414 -0.1611  0.0221
 4800TIP3    H138595   2.732   6.630  20.702  0.9728  0.3265  1.0023
 4800TIP3    H238596   2.681   6.688  20.833 -0.9195  0.5429  0.2074
 4801TIP3   OH238597   3.195   6.269  18.748  0.1191 -1.1084 -0.0840
 4801TIP3    H138598   3.197   6.215  18.827  1.9447  0.9893  1.3973
 4801TIP3    H238599   3.130   6.337  18.767  1.8810  0.5001  0.4633
 4802TIP3   OH238600   2.616   0.983  20.350 -0.9159  0.0312 -0.1215
 4802TIP3    H138601   2.643   1.067  20.313 -0.3629 -0.5475 -1.0497
 4802TIP3    H238602   2.562   0.943  20.282 -0.5336 -0.7031 -0.0016
 4803TIP3   OH238603   4.598   5.120  20.098  0.0428 -0.0133 -0.4990
 4803TIP3    H138604   4.671   5.182  20.104  1.5121 -1.7289  0.2813
 4803TIP3    H238605   4.535   5.150  20.163  1.0313  0.2941  0.3421
 4804TIP3   OH238606   3.746   1.619  20.905  0.7070  0.3150  0.6022
 4804TIP3    H138607   3.684   1.669  20.851  2.5860 -0.7174 -2.8556
 4804TIP3    H238608   3.831   1.659  20.887  1.3980  0.3102  3.4663
 4805TIP3   OH238609   2.763   0.867  19.600 -0.5064 -0.0649  0.1198
 4805TIP3    H138610   2.741   0.871  19.507 -1.4968 -0.9184  0.2834
 4805TIP3    H238611   2.822   0.792  19.608  1.9224  1.7024 -0.1898
 4806TIP3   OH238612   1.286   2.098  18.769  0.1184 -0.1667  0.4720
 4806TIP3    H138613   1.252   2.187  18.776  0.7854  0.0970  0.4219
 4806TIP3    H238614   1.381   2.108  18.770  0.2124 -0.8041 -0.4476
 4807TIP3   OH238615   5.333   4.826  19.919 -0.1608  0.1495 -0.8158
 4807TIP3    H138616   5.384   4.802  19.842  1.4707 -0.3896  0.3768
 4807TIP3    H238617   5.323   4.921  19.912  0.6654  0.2129 -1.3094
 4808TIP3   OH238618   3.619   1.107  20.019 -0.0420 -0.3922  0.0421
 4808TIP3    H138619   3.544   1.081  19.966  0.6421 -0.1274 -1.0940
 4808TIP3    H238620   3.609   1.202  20.030 -0.2102 -0.4547  0.4364
 4809TIP3   OH238621   5.047   5.365  17.146  0.2273 -0.7471  0.2756
 4809TIP3    H138622   5.108   5.304  17.103  0.0355 -0.2649 -0.7112
 4809TIP3    H238623   4.971   5.311  17.168  0.4777 -1.0812  0.3295
 4810TIP3   OH238624   4.454   3.354  19.344  0.0929 -0.2523  0.6017
 4810TIP3    H138625   4.438   3.448  19.356  0.7631 -0.2820  1.9384
 4810TIP3    H238626   4.424   3.336  19.255  1.1455  1.4943 -0.1603
 4811TIP3   OH238627   6.029   1.742  19.293  0.0334  0.1030  0.4634
 4811TIP3    H138628   6.038   1.827  19.250  3.3609 -0.6856 -0.6926
 4811TIP3    H238629   5.985   1.762  19.376  0.2165  2.8431 -0.0042
 4812TIP3   OH238630   4.852   1.746  19.057 -0.2380  0.0737  0.0490
 4812TIP3    H138631   4.829   1.819  18.999 -0.8023  1.5950  2.0721
 4812TIP3    H238632   4.836   1.780  19.145  3.9800 -0.8006  1.3941
 4813TIP3   OH238633   4.849   5.343  18.221 -0.2347  0.2676 -0.1490
 4813TIP3    H138634   4.779   5.309  18.277 -1.1304 -0.7726 -1.8057
 4813TIP3    H238635   4.866   5.272  18.158  1.3781  1.0211 -0.6278
 4814TIP3   OH238636   1.097   0.305  18.273 -0.6857 -0.6400 -0.0362
 4814TIP3    H138637   1.040   0.359  18.218 -0.3239  0.3926  0.5831
 4814TIP3    H238638   1.179   0.299  18.224  0.5259  2.3623  1.4041
 4815TIP3   OH238639   4.543   1.363  17.926 -0.0050  0.3652 -0.4804
 4815TIP3    H138640   4.498   1.439  17.889  0.5526  1.0355  0.1851
 4815TIP3    H238641   4.636   1.384  17.920  0.1174  0.8412  1.8755
 4816TIP3   OH238642   5.236   6.002  19.351  0.2020  0.4094  0.0638
 4816TIP3    H138643   5.198   6.090  19.354  0.8010  0.6854 -0.1749
 4816TIP3    H238644   5.287   6.001  19.270 -1.9672 -1.0752 -1.3853
 4817TIP3   OH238645   2.156   4.770  20.638  0.6511 -0.0357  0.3118
 4817TIP3    H138646   2.158   4.821  20.556 -0.3691  0.1143  0.3621
 4817TIP3    H238647   2.222   4.702  20.625 -0.7034 -1.1201 -1.3879
 4818TIP3   OH238648   1.962   2.594  19.686  0.3593  0.2976 -0.4501
 4818TIP3    H138649   1.880   2.629  19.650 -1.0691 -0.1459  2.0910
 4818TIP3    H238650   1.977   2.513  19.637 -1.8864 -0.6430  0.2686
 4819TIP3   OH238651   0.805   3.482  19.757 -0.5238  0.0204 -0.6914
 4819TIP3    H138652   0.717   3.520  19.750 -0.9033 -0.6764  0.0942
 4819TIP3    H238653   0.802   3.430  19.838  0.5049 -0.2907 -0.8430
 4820TIP3   OH238654   4.744   1.662  17.784 -0.4516  0.9804 -0.9298
 4820TIP3    H138655   4.792   1.592  17.828 -0.1362  1.2267 -0.8768
 4820TIP3    H238656   4.712   1.622  17.703 -0.3361  0.7553 -0.8634
 4821TIP3   OH238657   4.751   1.294  18.802  0.3464 -0.4111  0.2628
 4821TIP3    H138658   4.755   1.220  18.864 -1.6163 -0.4948  0.3515
 4821TIP3    H238659   4.713   1.365  18.853 -0.0038 -0.0637 -0.4720
 4822TIP3   OH238660   2.966   5.022  20.164  0.0003 -0.4353  0.7177
 4822TIP3    H138661   3.010   4.946  20.201 -0.1432 -0.1618  1.4482
 4822TIP3    H238662   2.955   4.999  20.071 -0.1878 -1.3762  0.9563
 4823TIP3   OH238663   2.182   0.869  16.787  0.1193  0.0158  0.0187
 4823TIP3    H138664   2.205   0.930  16.857  1.1210 -1.4634  1.0346
 4823TIP3    H238665   2.088   0.855  16.797  0.0816  0.5464  0.4506
 4824TIP3   OH238666   0.319   3.879  19.442  0.1204  0.5072  0.0944
 4824TIP3    H138667   0.267   3.799  19.437  0.4037  0.3415 -0.3488
 4824TIP3    H238668   0.279   3.937  19.377 -1.0225  1.3049  1.4665
 4825TIP3   OH238669   0.447   2.295  19.858  0.4754 -0.6288  0.1168
 4825TIP3    H138670   0.472   2.361  19.793  0.4323 -1.4007 -0.6977
 4825TIP3    H238671   0.425   2.218  19.806 -0.0789 -1.0928  1.0286
 4826TIP3   OH238672   2.182   6.521  18.486 -0.3694  0.0351  0.2561
 4826TIP3    H138673   2.136   6.483  18.560  1.1950  1.1372  1.8812
 4826TIP3    H238674   2.125   6.592  18.456 -0.5233  0.2691  1.0957
 4827TIP3   OH238675   4.017   5.477  18.114 -0.3723 -0.5271 -0.1711
 4827TIP3    H138676   4.068   5.441  18.186 -0.5605 -0.3611  0.0442
 4827TIP3    H238677   3.930   5.440  18.125 -0.9754  1.0934  0.8994
 4828TIP3   OH238678   5.934   5.864  19.019 -0.1297  1.0346 -0.2444
 4828TIP3    H138679   5.873   5.884  18.948  1.0101  2.6728 -0.8277
 4828TIP3    H238680   5.885   5.882  19.099 -1.2026 -0.1405 -0.6132
 4829TIP3   OH238681   6.527   3.869  19.055 -0.3983  0.1253  0.5305
 4829TIP3    H138682   6.534   3.952  19.008  1.4807 -0.3734 -0.1489
 4829TIP3    H238683   6.524   3.894  19.147 -1.7140  1.0086  0.2743
 4830TIP3   OH238684   0.528   0.383  19.902  0.3412 -1.1684  0.1422
 4830TIP3    H138685   0.452   0.400  19.847  1.6370 -1.1345 -1.7383
 4830TIP3    H238686   0.528   0.288  19.914 -0.2318 -1.1236  0.5355
 4831TIP3   OH238687   1.640   1.486  17.944  0.2599  0.2431  0.3592
 4831TIP3    H138688   1.656   1.406  17.895  0.7223 -0.1473  1.1263
 4831TIP3    H238689   1.671   1.556  17.887  2.2891 -0.3121  0.7117
 4832TIP3   OH238690   1.882   0.067  17.441 -1.0803 -0.2413  0.5370
 4832TIP3    H138691   1.975   0.048  17.455 -0.1335  3.4020  0.1774
 4832TIP3    H238692   1.859   0.016  17.363  0.3470 -1.8126  1.0786
 4833TIP3   OH238693   1.027   2.521  18.518  0.0763 -0.3400 -0.0063
 4833TIP3    H138694   1.045   2.428  18.530  0.2763 -0.3244 -0.1789
 4833TIP3    H238695   1.105   2.555  18.474  0.4959  0.1336  1.0763
 4834TIP3   OH238696   2.389   5.780  18.750  0.1970  0.0749  0.5448
 4834TIP3    H138697   2.331   5.839  18.798 -1.2125 -0.9855  0.2060
 4834TIP3    H238698   2.388   5.699  18.800  1.0339 -0.1218  0.2725
 4835TIP3   OH238699   3.731   6.496  17.655  0.3736 -0.0688 -0.1218
 4835TIP3    H138700   3.763   6.512  17.566  1.0563 -0.8871 -0.0341
 4835TIP3    H238701   3.691   6.579  17.681  1.5048  0.6642 -0.6366
 4836TIP3   OH238702   5.192   3.134  18.210 -0.1019 -0.1372  0.0508
 4836TIP3    H138703   5.248   3.177  18.275  0.6288 -0.1212 -0.5753
 4836TIP3    H238704   5.120   3.195  18.196 -0.1526 -0.0464  0.6874
 4837TIP3   OH238705   6.702   1.688  19.564  0.1005 -0.4941  0.0340
 4837TIP3    H138706   6.767   1.630  19.523  0.3388 -0.6775  0.6567
 4837TIP3    H238707   6.643   1.628  19.610 -1.1820 -0.4130 -1.4235
 4838TIP3   OH238708   0.128   0.913  18.435 -0.6513 -0.0448 -0.8115
 4838TIP3    H138709   0.214   0.911  18.392 -0.0674  0.9898  0.2335
 4838TIP3    H238710   0.107   0.822  18.452 -0.1866 -0.3697 -1.8959
 4839TIP3   OH238711   0.936   1.692  17.172 -0.0692  0.2608  0.2043
 4839TIP3    H138712   1.031   1.686  17.164 -0.2568 -2.1143 -1.5889
 4839TIP3    H238713   0.905   1.604  17.151 -2.7053  1.1224  0.1168
 4840TIP3   OH238714   1.028   0.957  20.721 -0.6414 -0.3240  0.0973
 4840TIP3    H138715   1.053   0.932  20.632 -0.1981  0.7087 -0.0938
 4840TIP3    H238716   1.064   1.046  20.731 -2.4034  0.3801  0.5870
 4841TIP3   OH238717   6.690   4.811  17.366 -0.4397 -0.2055  0.5730
 4841TIP3    H138718   6.645   4.765  17.436 -1.2918 -0.5989 -0.2091
 4841TIP3    H238719   6.776   4.834  17.403 -0.5706 -1.0947  1.4669
 4842TIP3   OH238720   6.701   0.471  20.254  0.4430 -0.0856  0.7218
 4842TIP3    H138721   6.711   0.392  20.306  0.2669 -1.3581 -1.0940
 4842TIP3    H238722   6.756   0.457  20.177 -1.9615  0.1546 -1.1720
 4843TIP3   OH238723   5.321   0.904  20.133 -0.1230 -0.3758  0.0263
 4843TIP3    H138724   5.354   0.933  20.218 -2.7411  0.1086  0.9681
 4843TIP3    H238725   5.256   0.836  20.154 -0.5374 -0.5306 -1.5965
 4844TIP3   OH238726   5.594   3.885  20.355 -0.3806 -0.0390 -0.1410
 4844TIP3    H138727   5.610   3.913  20.445  1.0951 -2.2501  0.3527
 4844TIP3    H238728   5.500   3.869  20.351 -0.4211 -0.2041  1.0855
 4845TIP3   OH238729   1.615   4.278  18.886 -0.1228  0.1572 -0.3582
 4845TIP3    H138730   1.681   4.253  18.951  1.3175  0.0622 -1.7917
 4845TIP3    H238731   1.626   4.373  18.876 -1.9841  0.5926  1.2335
 4846TIP3   OH238732   6.157   4.851  19.625  0.3522 -0.3988 -0.2584
 4846TIP3    H138733   6.122   4.923  19.571  0.8810  0.9185  1.0858
 4846TIP3    H238734   6.184   4.785  19.562  0.4444  0.8583 -1.5941
 4847TIP3   OH238735   5.300   0.702  18.225  0.3657  0.1420  0.0701
 4847TIP3    H138736   5.343   0.704  18.310 -0.0257 -1.9458  0.3667
 4847TIP3    H238737   5.348   0.636  18.175  0.4934  1.2236 -1.3025
 4848TIP3   OH238738   2.445   5.941  17.928  0.8516 -0.3852 -0.0926
 4848TIP3    H138739   2.407   6.029  17.922  0.6027 -0.0059  4.2620
 4848TIP3    H238740   2.538   5.953  17.909  0.4587  0.3365 -1.7417
 4849TIP3   OH238741   4.295   0.132  16.706  0.2545 -0.0608 -0.4567
 4849TIP3    H138742   4.277   0.184  16.628 -1.4816 -1.0477 -0.7766
 4849TIP3    H238743   4.259   0.045  16.685  0.3020 -0.5129  1.2108
 4850TIP3   OH238744   4.998   0.129  17.940  0.5656 -0.1930  0.1020
 4850TIP3    H138745   5.072   0.089  17.893 -0.5534 -2.0174 -0.2234
 4850TIP3    H238746   5.036   0.159  18.022  2.2312  1.5995 -1.2410
 4851TIP3   OH238747   0.824   6.195  18.896 -0.1489 -0.2596  0.4880
 4851TIP3    H138748   0.858   6.106  18.905 -0.3471 -0.2786  1.1473
 4851TIP3    H238749   0.742   6.194  18.947 -1.2360 -0.2664 -1.1830
 4852TIP3   OH238750   3.495   3.040  19.784  0.1419 -0.7075  0.6248
 4852TIP3    H138751   3.440   3.061  19.859 -0.3106  0.9165 -0.1102
 4852TIP3    H238752   3.479   3.111  19.722  0.3556 -2.0791 -1.0929
 4853TIP3   OH238753   1.156   4.070  17.402  0.1131 -0.0312  0.2872
 4853TIP3    H138754   1.198   4.063  17.488 -0.3851 -1.2327  0.4427
 4853TIP3    H238755   1.112   3.986  17.389  0.6151 -0.0735 -1.3826
 4854TIP3   OH238756   5.128   3.296  17.743 -0.1155  0.0891 -0.1657
 4854TIP3    H138757   5.178   3.222  17.710  1.3062  0.3011  1.3849
 4854TIP3    H238758   5.169   3.373  17.703  1.0183  0.2777  1.2661
 4855TIP3   OH238759   0.249   1.787  20.305 -0.0373 -0.6412 -0.1912
 4855TIP3    H138760   0.155   1.806  20.300 -0.0320 -0.3376  0.6985
 4855TIP3    H238761   0.288   1.839  20.234 -0.7824 -2.6684 -2.2499
 4856TIP3   OH238762   4.324   2.437  20.117 -0.4710  0.5026 -0.4252
 4856TIP3    H138763   4.262   2.430  20.044  1.1409  1.0392 -1.9099
 4856TIP3    H238764   4.407   2.406  20.081  0.5389  1.4693  0.9762
 4857TIP3   OH238765   3.466   6.363  18.672  0.3408  0.6693 -0.0349
 4857TIP3    H138766   3.432   6.311  18.745  0.7113  1.0546  0.4188
 4857TIP3    H238767   3.429   6.322  18.594 -1.8092  1.5207  0.4619
 4858TIP3   OH238768   1.632   2.689  20.328  0.2194 -0.1197 -0.0962
 4858TIP3    H138769   1.682   2.629  20.384 -1.1842 -1.6018 -0.3205
 4858TIP3    H238770   1.542   2.682  20.361  0.2804  3.5979  1.2901
 4859TIP3   OH238771   3.968   3.561  17.424  0.2781 -0.0942  0.3570
 4859TIP3    H138772   3.940   3.496  17.489  1.0304  0.1734  0.9734
 4859TIP3    H238773   3.894   3.621  17.417  0.0819 -0.2809  0.7718
 4860TIP3   OH238774   2.571   6.216  18.008 -0.7130 -0.1248 -0.0566
 4860TIP3    H138775   2.645   6.175  17.963 -0.7590 -1.2432  0.8506
 4860TIP3    H238776   2.610   6.283  18.063 -0.6494  1.2305 -1.6619
 4861TIP3   OH238777   1.089   1.437  17.792 -0.9842 -0.1596 -0.3707
 4861TIP3    H138778   1.086   1.457  17.886  1.3753  0.8430 -0.4519
 4861TIP3    H238779   1.069   1.521  17.750 -1.7042 -0.5298 -0.7808
 4862TIP3   OH238780   3.259   3.584  18.313  0.2748  0.2969  0.5106
 4862TIP3    H138781   3.349   3.608  18.335  0.2381  0.6303  0.3066
 4862TIP3    H238782   3.209   3.602  18.393  0.4018  0.0502  0.6440
 4863TIP3   OH238783   6.398   4.972  18.737 -0.2800 -0.5496 -0.0055
 4863TIP3    H138784   6.493   4.961  18.736 -0.4347 -2.0994 -0.6995
 4863TIP3    H238785   6.382   5.042  18.801  1.2768 -0.6569  0.5322
 4864TIP3   OH238786   3.091   0.025  18.299  0.0291  0.1082  0.2558
 4864TIP3    H138787   3.007   0.002  18.339  0.2269 -0.3277  0.4288
 4864TIP3    H238788   3.133   0.083  18.362 -0.5781  1.1586 -0.2922
 4865TIP3   OH238789   5.068   0.715  17.549 -1.1358 -0.6453 -0.3112
 4865TIP3    H138790   5.157   0.686  17.569 -0.7922  0.3763 -0.2938
 4865TIP3    H238791   5.080   0.782  17.482 -1.7791  0.4229  0.6151
 4866TIP3   OH238792   5.703   5.956  18.915  0.3755  0.2122 -0.4178
 4866TIP3    H138793   5.740   6.042  18.935 -0.3780 -0.0138  2.4743
 4866TIP3    H238794   5.609   5.972  18.902  0.4187 -0.0329 -1.0517
 4867TIP3   OH238795   0.755   5.142  19.738  0.0694 -0.4647 -0.0473
 4867TIP3    H138796   0.720   5.200  19.671  0.0249 -1.6393 -1.0822
 4867TIP3    H238797   0.735   5.185  19.821 -3.7472 -0.9685 -0.5595
 4868TIP3   OH238798   0.185   6.043  20.410  0.1669  0.0239 -0.2293
 4868TIP3    H138799   0.137   5.961  20.422 -0.3025  0.3463  0.1271
 4868TIP3    H238800   0.264   6.017  20.362 -0.8945 -0.3595 -1.8647
 4869TIP3   OH238801   3.889   3.610  20.387 -0.4205  0.0787 -0.3281
 4869TIP3    H138802   3.900   3.702  20.411 -0.6286  0.4968 -1.7391
 4869TIP3    H238803   3.962   3.566  20.429  0.6517  1.1681 -0.9700
 4870TIP3   OH238804   0.720   1.038  18.351  0.2609 -0.5643  0.3752
 4870TIP3    H138805   0.750   1.072  18.267 -1.3105  0.4097  0.1712
 4870TIP3    H238806   0.695   0.948  18.333  1.7144 -0.9804  0.2622
 4871TIP3   OH238807   4.571   0.240  20.831  0.7536  0.3166 -0.7830
 4871TIP3    H138808   4.596   0.205  20.917  0.0117 -1.3670 -1.2129
 4871TIP3    H238809   4.484   0.203  20.815  0.4082  1.5132 -1.7762
 4872TIP3   OH238810   5.450   0.515  18.403 -0.3955  0.1271  0.1498
 4872TIP3    H138811   5.465   0.481  18.491  0.2443 -0.6789 -0.2559
 4872TIP3    H238812   5.482   0.605  18.406  0.5107 -0.2008  0.4852
 4873TIP3   OH238813   0.602   4.757  19.573  0.3453  0.2272  0.3167
 4873TIP3    H138814   0.562   4.844  19.566  0.1097  0.4529  3.2471
 4873TIP3    H238815   0.682   4.763  19.521  0.7788  2.5089  1.1434
 4874TIP3   OH238816   3.740   3.464  18.253 -0.2142  0.8333 -0.2476
 4874TIP3    H138817   3.747   3.414  18.333 -1.6808  1.9529  0.6527
 4874TIP3    H238818   3.725   3.399  18.184 -0.5146 -0.0422  0.6329
 4875TIP3   OH238819   5.312   1.344  20.117  0.5369  0.1252 -0.4349
 4875TIP3    H138820   5.354   1.368  20.200  0.7012 -1.5658  0.0084
 4875TIP3    H238821   5.264   1.422  20.091  1.4794  1.0977  0.6212
 4876TIP3   OH238822   0.309   4.366  17.624 -0.0701 -0.2983 -0.3152
 4876TIP3    H138823   0.233   4.391  17.571  0.9636  1.2225 -1.1811
 4876TIP3    H238824   0.360   4.447  17.632  1.2080 -1.1548  0.6576
 4877TIP3   OH238825   1.443   0.691  19.678 -0.1208  0.4715  0.6818
 4877TIP3    H138826   1.459   0.603  19.711 -0.3471 -0.0292 -0.4945
 4877TIP3    H238827   1.421   0.679  19.586  1.6676  1.8956 -0.0054
 4878TIP3   OH238828   5.333   3.348  17.946 -0.1708  0.0869  0.5262
 4878TIP3    H138829   5.389   3.372  17.871  0.4532  0.3539  1.0636
 4878TIP3    H238830   5.251   3.320  17.907  0.0680  0.4496 -0.2555
 4879TIP3   OH238831   0.537   1.982  18.417 -0.1067 -0.2687 -0.2848
 4879TIP3    H138832   0.555   1.903  18.467  0.1081  0.9520  1.7153
 4879TIP3    H238833   0.442   1.995  18.427 -0.2352 -0.5517 -1.0751
 4880TIP3   OH238834   5.156   4.063  19.644 -0.0137  0.0751 -0.0254
 4880TIP3    H138835   5.073   4.106  19.662 -0.2826 -1.2893  2.5001
 4880TIP3    H238836   5.198   4.055  19.730  1.2967 -2.0675 -0.7808
 4881TIP3   OH238837   0.980   2.487  19.157 -0.0727 -0.4210  0.8585
 4881TIP3    H138838   0.980   2.531  19.242 -0.5563 -0.3949  0.8530
 4881TIP3    H238839   1.030   2.544  19.099 -0.4695 -0.0085  0.9173
 4882TIP3   OH238840   5.708   5.323  19.344 -0.4832 -0.1798 -0.3272
 4882TIP3    H138841   5.800   5.344  19.362 -0.6690  1.5337 -1.2068
 4882TIP3    H238842   5.661   5.405  19.360 -2.0240 -1.2421  0.9721
 4883TIP3   OH238843   0.732   4.621  19.769 -0.0111 -0.2995  0.4253
 4883TIP3    H138844   0.796   4.568  19.721  1.6350  1.4524  0.5566
 4883TIP3    H238845   0.661   4.635  19.706  1.3768  0.6254 -0.9987
 4884TIP3   OH238846   5.089   6.550  18.445 -0.3822  0.0764  0.1682
 4884TIP3    H138847   5.048   6.596  18.371 -0.1005 -0.5585 -0.3866
 4884TIP3    H238848   5.145   6.484  18.404  0.1102  0.0043  0.9462
 4885TIP3   OH238849   0.952   2.821  20.672  0.2359 -0.3372  0.2513
 4885TIP3    H138850   1.012   2.785  20.607  0.0094  2.3821 -1.5965
 4885TIP3    H238851   0.977   2.777  20.754  3.7764 -0.3753 -0.7071
 4886TIP3   OH238852   2.853   5.194  17.144 -0.1576 -0.0838  0.2011
 4886TIP3    H138853   2.796   5.248  17.200  0.1080  0.7918 -0.3576
 4886TIP3    H238854   2.919   5.160  17.204 -0.4329  0.0628  0.5969
 4887TIP3   OH238855   3.551   2.553  20.349 -0.5757 -0.4028 -0.5334
 4887TIP3    H138856   3.588   2.591  20.269 -0.5232  0.9702  0.1201
 4887TIP3    H238857   3.510   2.472  20.319 -0.9641  0.3019 -2.0412
 4888TIP3   OH238858   2.310   0.200  18.496 -0.5600 -0.2226  0.3729
 4888TIP3    H138859   2.310   0.150  18.577  1.3077  0.5687  0.9177
 4888TIP3    H238860   2.370   0.273  18.513 -1.2467  0.7767 -1.2340
 4889TIP3   OH238861   3.682   6.674  19.141  0.6239 -0.4494  0.0304
 4889TIP3    H138862   3.598   6.653  19.100  0.6650 -0.9238  0.1819
 4889TIP3    H238863   3.723   6.736  19.081 -0.1136  0.2952  0.2761
 4890TIP3   OH238864   5.045   2.463  18.916  0.5403 -0.1441 -0.5493
 4890TIP3    H138865   5.139   2.480  18.915  1.0163 -2.2326  1.2921
 4890TIP3    H238866   5.026   2.440  19.007 -1.9198  0.8997 -0.7096
 4891TIP3   OH238867   6.515   6.728  20.318  0.3471 -0.7306  0.4217
 4891TIP3    H138868   6.610   6.712  20.311  0.5553  0.0679  1.2052
 4891TIP3    H238869   6.486   6.668  20.387  0.4645 -0.3319  0.8274
 4892TIP3   OH238870   5.480   1.644  20.530 -0.4063 -0.5042  0.3738
 4892TIP3    H138871   5.541   1.570  20.528 -0.4261 -0.5097 -0.1668
 4892TIP3    H238872   5.452   1.649  20.621  0.4486 -0.4607  0.6459
 4893TIP3   OH238873   3.300   3.729  20.994  0.3127 -0.4312  0.0205
 4893TIP3    H138874   3.245   3.761  20.922 -0.5450 -0.5699  0.6026
 4893TIP3    H238875   3.240   3.720  21.068  0.4391 -3.4611 -0.1183
 4894TIP3   OH238876   6.534   2.468  20.062  0.2171 -0.1792  0.0623
 4894TIP3    H138877   6.501   2.548  20.104 -1.3009 -0.0318 -1.3365
 4894TIP3    H238878   6.628   2.468  20.082  0.6054  2.8392 -1.2529
 4895TIP3   OH238879   2.225   5.016  19.779  0.0789  0.0438  0.2308
 4895TIP3    H138880   2.179   4.977  19.704 -0.3212 -0.4877  0.7466
 4895TIP3    H238881   2.194   5.107  19.780 -1.0344 -0.3246  0.6131
 4896TIP3   OH238882   1.783   4.208  19.132  0.2402 -0.2938  0.4052
 4896TIP3    H138883   1.735   4.140  19.178  0.0591  0.8193  1.9283
 4896TIP3    H238884   1.875   4.190  19.152  0.4486 -1.6140 -1.3973
 4897TIP3   OH238885   3.602   2.582  20.614  0.2136 -0.3437 -0.1885
 4897TIP3    H138886   3.560   2.560  20.531 -1.8384  2.1069  0.0868
 4897TIP3    H238887   3.636   2.670  20.601  0.3033 -0.1134  1.4115
 4898TIP3   OH238888   2.848   0.627  20.235  0.2682 -0.5313 -0.2981
 4898TIP3    H138889   2.841   0.677  20.316  0.0709 -0.1899 -0.5211
 4898TIP3    H238890   2.842   0.693  20.166 -1.5322 -0.9873 -0.6400
 4899TIP3   OH238891   3.675   2.415  19.447  0.3495  0.0102  0.2699
 4899TIP3    H138892   3.705   2.339  19.397  1.7863  0.6973  0.0375
 4899TIP3    H238893   3.595   2.385  19.490 -0.6398 -0.7875 -1.9732
 4900TIP3   OH238894   4.394   3.308  18.721  0.2915  0.9836 -0.0464
 4900TIP3    H138895   4.312   3.290  18.767  1.1816  0.4040  1.3995
 4900TIP3    H238896   4.457   3.249  18.763  1.0718  0.0403 -2.3765
 4901TIP3   OH238897   3.635   2.711  19.468  0.3286  0.3376 -0.2748
 4901TIP3    H138898   3.647   2.618  19.484 -0.3261 -0.0492 -1.8069
 4901TIP3    H238899   3.559   2.735  19.521  0.9675  0.1960  0.7206
 4902TIP3   OH238900   4.437   5.759  20.488  0.0345 -0.1745 -0.1883
 4902TIP3    H138901   4.412   5.810  20.565  0.5583 -0.2239  0.0209
 4902TIP3    H238902   4.480   5.822  20.430 -1.3337  0.1015 -0.9384
 4903TIP3   OH238903   4.031   4.898  20.546  0.6013 -0.4881 -0.1278
 4903TIP3    H138904   4.034   4.916  20.452  1.0573  0.7270  0.1054
 4903TIP3    H238905   3.941   4.870  20.562  0.6331 -1.1358 -0.9898
 4904TIP3   OH238906   3.815   0.995  20.908  0.2712 -0.3459 -0.3711
 4904TIP3    H138907   3.900   0.969  20.945  0.9779  1.5441 -0.5279
 4904TIP3    H238908   3.791   1.073  20.957 -1.0127 -0.4156 -0.8644
 4905TIP3   OH238909   3.811   2.111  20.821  0.0397 -0.0218  0.2925
 4905TIP3    H138910   3.798   2.188  20.876 -1.2100 -0.7283  1.0421
 4905TIP3    H238911   3.873   2.057  20.870  0.1047  0.0359  0.2729
 4906TIP3   OH238912   4.084   1.204  20.435 -0.2185  0.4391  0.0137
 4906TIP3    H138913   4.090   1.164  20.348 -1.4613  0.6380 -0.1731
 4906TIP3    H238914   4.073   1.131  20.495 -0.7958  0.3902 -0.1503
 4907TIP3   OH238915   1.332   0.935  19.778  0.1388  0.5978  0.1143
 4907TIP3    H138916   1.253   0.951  19.727 -0.3634 -1.2156  0.2572
 4907TIP3    H238917   1.376   0.863  19.733  0.9413  0.5895  0.8794
 4908TIP3   OH238918   1.163   1.276  19.663  0.2970 -0.0678  0.0778
 4908TIP3    H138919   1.191   1.234  19.582  1.5963  3.1082 -1.2983
 4908TIP3    H238920   1.244   1.290  19.712  0.4685  3.3649 -0.9413
 4909TIP3   OH238921   4.478   5.004  16.718 -0.6830 -0.5261  0.2524
 4909TIP3    H138922   4.519   4.924  16.752 -0.0932  0.1886  1.2639
 4909TIP3    H238923   4.500   5.072  16.781  0.0830  0.7726 -1.3184
 4910TIP3   OH238924   4.001   5.335  18.973  0.4757 -0.2699  0.1751
 4910TIP3    H138925   4.008   5.243  18.998 -3.0982 -0.6698  0.2129
 4910TIP3    H238926   4.037   5.383  19.048  0.1680 -1.6408  1.2457
 4911TIP3   OH238927   3.747   0.475  19.985  0.2771  0.0579 -0.0154
 4911TIP3    H138928   3.815   0.460  19.920 -0.0591  1.0112 -0.6158
 4911TIP3    H238929   3.665   0.460  19.937 -0.0315  2.2042 -0.2844
 4912TIP3   OH238930   5.496   6.738  18.973  0.2530  0.0939 -0.3432
 4912TIP3    H138931   5.517   6.645  18.977  1.8149  0.4707  1.6975
 4912TIP3    H238932   5.401   6.740  18.959 -0.0678 -1.8518  1.1073
 4913TIP3   OH238933   2.244   2.716  18.985  0.2320  1.0195 -1.2125
 4913TIP3    H138934   2.331   2.752  18.970  0.5192 -0.3817 -3.3237
 4913TIP3    H238935   2.189   2.757  18.917 -0.7995  1.9016  0.0979
 4914TIP3   OH238936   2.832   0.037  20.102  0.0052  0.0879 -0.3903
 4914TIP3    H138937   2.861  -0.049  20.133 -1.0655 -0.0159  0.4052
 4914TIP3    H238938   2.817   0.087  20.183 -2.2886  0.0234 -0.7268
 4915TIP3   OH238939   2.104   2.490  18.912  0.5815  0.4111 -0.1791
 4915TIP3    H138940   2.172   2.546  18.950  0.6776  0.2734 -0.1484
 4915TIP3    H238941   2.048   2.467  18.986  1.6758 -1.1699  0.1988
 4916TIP3   OH238942   4.497   0.602  18.743 -0.4716 -0.1140  0.4155
 4916TIP3    H138943   4.466   0.633  18.658 -1.3872 -1.4444  0.2339
 4916TIP3    H238944   4.429   0.542  18.773 -0.7323  1.1773  2.6377
 4917TIP3   OH238945   5.921   2.539  18.922  0.1967  0.4815 -0.0960
 4917TIP3    H138946   5.954   2.477  18.987 -0.5709 -0.4106 -0.5367
 4917TIP3    H238947   5.988   2.607  18.918  1.4031 -0.6647 -0.0919
 4918TIP3   OH238948   1.683   6.531  19.806  0.0580 -0.3519 -0.3427
 4918TIP3    H138949   1.737   6.607  19.783 -0.2726 -0.1815 -0.5594
 4918TIP3    H238950   1.658   6.493  19.721 -1.6074  0.5855 -0.3199
 4919TIP3   OH238951   1.402   0.035  18.682 -0.0162 -0.0437 -0.2007
 4919TIP3    H138952   1.329   0.089  18.651 -0.8063 -1.4063 -0.8265
 4919TIP3    H238953   1.361  -0.048  18.707  1.3240 -0.8520 -0.5891
 4920TIP3   OH238954   5.130   1.464  18.364 -0.2077  0.2239 -0.4706
 4920TIP3    H138955   5.151   1.504  18.449 -0.1070  0.6067 -0.6743
 4920TIP3    H238956   5.099   1.376  18.386  1.4140 -0.3061 -0.1436
 4921TIP3   OH238957   4.269   4.146  17.686 -0.1266 -0.1986  0.0325
 4921TIP3    H138958   4.269   4.082  17.614  0.2463 -0.7963  0.5557
 4921TIP3    H238959   4.190   4.197  17.672 -0.8674 -1.3005  0.0530
 4922TIP3   OH238960   3.114   1.378  18.307 -0.2487 -0.4274 -0.0064
 4922TIP3    H138961   3.150   1.452  18.354 -0.4718 -0.7177  0.6284
 4922TIP3    H238962   3.154   1.301  18.347  0.7562 -0.6276 -1.3197
 4923TIP3   OH238963   0.906   6.727  17.641  0.0345 -0.3126 -0.0171
 4923TIP3    H138964   0.842   6.790  17.607  0.9377  0.0192 -1.1342
 4923TIP3    H238965   0.869   6.642  17.618  0.8576 -0.0888 -2.3394
 4924TIP3   OH238966   0.924   1.230  19.478 -0.5636  0.1018 -0.2486
 4924TIP3    H138967   0.892   1.209  19.390 -0.1957  1.3143 -0.6940
 4924TIP3    H238968   1.018   1.213  19.474 -0.7112 -0.9317  0.2723
 4925TIP3   OH238969   1.651   1.561  19.658 -0.2875 -0.2094  0.0937
 4925TIP3    H138970   1.596   1.560  19.580 -1.3281 -0.8447  0.8038
 4925TIP3    H238971   1.712   1.633  19.644 -1.2401  0.4582 -0.7732
 4926TIP3   OH238972   4.567   5.215  17.776  0.2665 -0.0206 -1.0008
 4926TIP3    H138973   4.494   5.154  17.769  1.0698 -0.9806 -1.2160
 4926TIP3    H238974   4.623   5.178  17.844  0.8669  0.3612 -1.2788
 4927TIP3   OH238975   6.720   6.571  18.432  0.2278 -0.1361  0.3607
 4927TIP3    H138976   6.722   6.579  18.528  0.9894 -0.5353  0.3907
 4927TIP3    H238977   6.799   6.616  18.403  0.2456 -0.4290 -0.0464
 4928TIP3   OH238978   3.281   5.342  20.000  0.1708 -0.1265 -0.7221
 4928TIP3    H138979   3.341   5.350  19.926  1.8730 -0.7880  0.5241
 4928TIP3    H238980   3.259   5.432  20.023 -0.2069  0.0913 -1.8820
 4929TIP3   OH238981   2.670   4.646  18.909  0.2693  0.1616  0.1370
 4929TIP3    H138982   2.751   4.598  18.893  0.5867  0.4161  0.8936
 4929TIP3    H238983   2.613   4.623  18.836  0.0524 -2.1409  0.9469
 4930TIP3   OH238984   3.785   0.291  20.471 -0.2756  0.2011  0.1457
 4930TIP3    H138985   3.758   0.233  20.400  1.1788 -0.7665  0.3320
 4930TIP3    H238986   3.835   0.360  20.428  0.1341 -0.0829  0.1556
 4931TIP3   OH238987   1.483   2.955  19.534  0.2454  0.3411  0.5004
 4931TIP3    H138988   1.500   3.016  19.463  0.2657  0.1557  0.3445
 4931TIP3    H238989   1.497   2.869  19.495  0.5139  0.2489  0.8012
 4932TIP3   OH238990   0.804   6.565  18.124 -0.1774 -0.7979  0.2988
 4932TIP3    H138991   0.720   6.610  18.131  0.3043  0.2373 -0.3973
 4932TIP3    H238992   0.790   6.481  18.166 -0.7555  0.4731  2.8257
 4933TIP3   OH238993   1.974   3.814  19.039 -0.0660 -0.0654 -0.2313
 4933TIP3    H138994   1.984   3.791  18.947 -0.7289  1.2064 -0.6503
 4933TIP3    H238995   1.898   3.873  19.041 -0.6853 -0.8439  1.2660
 4934TIP3   OH238996   5.411   1.981  18.377  0.2950  0.1742  0.2973
 4934TIP3    H138997   5.335   1.995  18.319 -0.1989 -0.4240  0.7890
 4934TIP3    H238998   5.486   1.987  18.319 -0.1680  0.0828 -0.3273
 4935TIP3   OH238999   1.528   6.324  18.927  0.4449 -0.1820 -0.4113
 4935TIP3    H139000   1.617   6.338  18.895  0.3608  0.7362 -0.2437
 4935TIP3    H239001   1.514   6.392  18.993 -0.7592  0.3760 -1.2083
 4936TIP3   OH239002   2.695   6.319  18.673  0.1974 -0.3030 -0.1806
 4936TIP3    H139003   2.641   6.280  18.605 -0.6123  0.8208 -0.2219
 4936TIP3    H239004   2.750   6.248  18.704 -0.2366 -1.1135 -1.2039
 4937TIP3   OH239005   3.820   2.444  20.558 -0.0234  1.0152 -0.0516
 4937TIP3    H139006   3.763   2.491  20.619  0.1109  1.3911 -0.2129
 4937TIP3    H239007   3.769   2.368  20.532  0.5835 -0.1569  1.9156
 4938TIP3   OH239008   2.750   6.267  19.956 -0.0379 -0.2853 -0.5346
 4938TIP3    H139009   2.820   6.217  19.998 -1.3267 -0.7218  1.2624
 4938TIP3    H239010   2.792   6.348  19.928  0.6394  1.0537  3.6263
 4939TIP3   OH239011   0.604   3.258  20.133 -0.4740 -0.5471  0.3614
 4939TIP3    H139012   0.543   3.242  20.061 -1.8509 -1.0520  1.6001
 4939TIP3    H239013   0.651   3.175  20.143 -0.6133 -0.6262  0.3603
 4940TIP3   OH239014   4.685   5.968  17.313  0.1011 -0.5574 -0.1294
 4940TIP3    H139015   4.751   5.998  17.250 -0.8672 -3.0874 -2.5360
 4940TIP3    H239016   4.667   6.045  17.367  1.6448  1.5274 -2.3705
 4941TIP3   OH239017   0.754   1.532  19.273  0.0852 -0.0862  0.0824
 4941TIP3    H139018   0.714   1.570  19.351 -0.1840  0.2487 -0.2160
 4941TIP3    H239019   0.682   1.489  19.227 -0.1212  1.2775 -0.9089
 4942TIP3   OH239020   2.892   6.616  20.448 -0.1493 -0.5676  0.5424
 4942TIP3    H139021   2.845   6.551  20.396  0.5304 -0.8844  0.3202
 4942TIP3    H239022   2.836   6.693  20.446 -0.1913 -0.6201 -0.5536
 4943TIP3   OH239023   2.606   0.571  17.624  0.2890  0.2053 -0.0481
 4943TIP3    H139024   2.684   0.607  17.581 -0.0714 -0.8173 -1.6537
 4943TIP3    H239025   2.638   0.538  17.708  1.4926  0.2485 -0.4660
 4944TIP3   OH239026   4.396   2.306  18.746  0.2314 -0.1120  0.8384
 4944TIP3    H139027   4.329   2.244  18.775  0.7259  0.0243  2.3831
 4944TIP3    H239028   4.457   2.253  18.694 -0.7494 -0.3483 -0.1030
 4945TIP3   OH239029   6.436   1.681  20.173  0.7026 -0.5492  0.2941
 4945TIP3    H139030   6.445   1.618  20.245 -0.4492  0.2874  1.2016
 4945TIP3    H239031   6.412   1.763  20.215 -0.3259 -0.1091 -1.0690
 4946TIP3   OH239032   0.495   3.724  19.842 -0.0674 -0.5392  0.2372
 4946TIP3    H139033   0.567   3.732  19.905  0.5876  1.7838 -0.6945
 4946TIP3    H239034   0.526   3.661  19.778  0.3120 -1.0213  0.8837
 4947TIP3   OH239035   3.549   6.041  18.735 -0.0620 -0.0775  0.4104
 4947TIP3    H139036   3.561   5.949  18.710 -0.3832  0.1071 -0.4567
 4947TIP3    H239037   3.482   6.074  18.675  1.4446  1.2455 -0.6188
 4948TIP3   OH239038   5.279   3.232  19.954  0.1937  0.0892 -0.0193
 4948TIP3    H139039   5.241   3.157  19.908  0.2457 -1.8481  2.8213
 4948TIP3    H239040   5.370   3.234  19.925  1.2245 -3.3504  2.3749
 4949TIP3   OH239041   1.117   5.980  17.830  0.4558 -0.3537 -0.0078
 4949TIP3    H139042   1.136   5.954  17.740 -0.0233  0.7626 -0.4488
 4949TIP3    H239043   1.049   6.048  17.822  0.5304 -0.1096  1.1824
 4950TIP3   OH239044   6.541   1.690  19.274  0.1392 -0.1611 -0.4424
 4950TIP3    H139045   6.561   1.709  19.366  1.1733  0.7925 -0.8451
 4950TIP3    H239046   6.446   1.680  19.272  0.1340 -0.5183  0.7856
 4951TIP3   OH239047   2.003   5.331  19.200 -0.4913  0.0304  0.1495
 4951TIP3    H139048   1.969   5.283  19.125  1.9887  0.7228 -1.5331
 4951TIP3    H239049   2.053   5.266  19.250 -2.6069 -0.5665  1.6282
 4952TIP3   OH239050   3.928   5.157  19.476 -0.2459 -0.3862  0.4451
 4952TIP3    H139051   3.887   5.160  19.389 -0.1244 -0.4019  0.3871
 4952TIP3    H239052   3.857   5.177  19.537 -0.7202 -1.9871  0.4647
 4953TIP3   OH239053   3.234   2.937  18.882 -0.4515 -0.2869 -0.3910
 4953TIP3    H139054   3.222   2.964  18.791 -1.0904 -0.5705 -0.3962
 4953TIP3    H239055   3.319   2.892  18.883  0.3216  1.1065 -0.5117
 4954TIP3   OH239056   2.720   5.705  19.455  0.0494 -0.3415 -0.3601
 4954TIP3    H139057   2.670   5.718  19.536 -1.4044 -1.4807 -1.0304
 4954TIP3    H239058   2.794   5.651  19.482  1.3003  1.7402  0.7367
 4955TIP3   OH239059   3.029   1.175  19.018  0.3008 -0.2860  0.1736
 4955TIP3    H139060   2.985   1.142  19.097  0.4002 -0.1782  0.2744
 4955TIP3    H239061   3.092   1.239  19.050  0.4671 -0.3729  0.0201
 4956TIP3   OH239062   0.757   0.627  17.966  0.0628 -0.2727  0.0095
 4956TIP3    H139063   0.690   0.674  17.916  1.2352  1.5231  0.0284
 4956TIP3    H239064   0.787   0.558  17.907 -1.0467 -0.4515 -0.3828
 4957TIP3   OH239065   3.472   4.660  18.837 -0.1316 -0.2278  0.5365
 4957TIP3    H139066   3.423   4.681  18.758 -1.1332 -1.5125  0.7827
 4957TIP3    H239067   3.425   4.586  18.876  0.6430  0.0296  2.0531
 4958TIP3   OH239068   4.954   6.675  17.167  0.0895  0.2682 -0.4959
 4958TIP3    H139069   4.875   6.728  17.174 -1.2232 -1.5798 -0.8274
 4958TIP3    H239070   4.933   6.594  17.214  0.9459 -1.1859 -2.4992
 4959TIP3   OH239071   5.173   4.406  20.787 -0.6986  0.0926  0.5162
 4959TIP3    H139072   5.100   4.369  20.838 -0.9780 -1.0335 -0.6527
 4959TIP3    H239073   5.194   4.338  20.723 -0.4232  1.5102 -0.9503
 4960TIP3   OH239074   4.614   4.433  20.691  0.2024 -0.1988  0.4194
 4960TIP3    H139075   4.651   4.482  20.765 -4.0041 -0.2144  2.8520
 4960TIP3    H239076   4.538   4.485  20.664 -0.7106 -2.2517 -1.1976
 4961TIP3   OH239077   3.405   0.899  18.627 -0.3064  0.3690  0.3304
 4961TIP3    H139078   3.319   0.928  18.659  0.1013  0.3686  1.4804
 4961TIP3    H239079   3.465   0.919  18.699  0.5566 -0.2276 -0.2056
 4962TIP3   OH239080   5.698   5.519  19.527 -0.1249  0.4278 -0.1631
 4962TIP3    H139081   5.621   5.571  19.505  1.2961  2.3576 -0.9764
 4962TIP3    H239082   5.693   5.507  19.622 -1.2644  0.8018 -0.1690
 4963TIP3   OH239083   2.329   6.264  17.858 -0.5467 -0.2934  0.0803
 4963TIP3    H139084   2.409   6.239  17.905 -0.3861 -1.0772 -0.5926
 4963TIP3    H239085   2.332   6.213  17.777 -2.3476 -1.3035  0.6029
 4964TIP3   OH239086   0.138   0.019  17.603 -0.0074  0.3807  0.0634
 4964TIP3    H139087   0.173  -0.050  17.659  0.5692  0.9150  0.3671
 4964TIP3    H239088   0.168  -0.004  17.515 -0.1471  0.0372  0.1046
 4965TIP3   OH239089   2.629   6.662  17.507 -0.2202 -0.0653 -0.2024
 4965TIP3    H139090   2.644   6.644  17.415 -1.9255 -0.0171 -0.5251
 4965TIP3    H239091   2.679   6.595  17.554 -1.3865 -1.7387 -1.2345
 4966TIP3   OH239092   2.985   1.745  19.375 -0.4396 -0.2412  0.3582
 4966TIP3    H139093   3.040   1.688  19.428  1.6470  0.4785 -0.9273
 4966TIP3    H239094   2.909   1.692  19.352  0.9156 -2.1215  0.0841
 4967TIP3   OH239095   2.356   1.980  20.300 -0.9434  0.2176  0.2054
 4967TIP3    H139096   2.393   2.037  20.367 -1.3583 -0.9693  1.4803
 4967TIP3    H239097   2.384   1.892  20.326 -2.0786 -0.3804 -0.5407
 4968TIP3   OH239098   0.689   5.577  19.412  0.1618  0.3534  0.4411
 4968TIP3    H139099   0.636   5.643  19.456 -1.6437 -2.2596  2.5025
 4968TIP3    H239100   0.638   5.551  19.335  1.2766  1.8456 -0.8696
 4969TIP3   OH239101   2.496   0.363  19.332 -0.1832 -0.1660  0.0726
 4969TIP3    H139102   2.562   0.390  19.396  0.8066 -0.3671 -0.8421
 4969TIP3    H239103   2.413   0.385  19.373  0.4929  3.0604 -0.0338
 4970TIP3   OH239104   4.265   5.030  18.855 -0.3642  0.1393 -0.4972
 4970TIP3    H139105   4.203   5.060  18.921 -1.2992 -0.5369 -1.0491
 4970TIP3    H239106   4.340   4.998  18.905 -1.7726 -2.0283  0.3657
 4971TIP3   OH239107   3.192   6.041  20.497 -0.0040 -0.5327  0.2563
 4971TIP3    H139108   3.235   6.018  20.415 -2.1287 -0.7638 -0.8532
 4971TIP3    H239109   3.197   6.136  20.501 -0.2800 -0.4863 -0.3790
 4972TIP3   OH239110   4.800   0.047  18.336 -0.2658  0.3020  0.3207
 4972TIP3    H139111   4.885   0.015  18.303 -0.6445 -0.7303  0.2982
 4972TIP3    H239112   4.737   0.021  18.269 -0.8385 -0.5090  1.1456
 4973TIP3   OH239113   3.980   0.172  19.200  0.3222  0.2277  0.7847
 4973TIP3    H139114   3.950   0.189  19.290 -0.6543 -1.9929  0.9652
 4973TIP3    H239115   3.899   0.168  19.149  0.8076  0.5194 -0.0244
 4974TIP3   OH239116   1.629   3.810  20.437 -0.0181  0.5891  0.0537
 4974TIP3    H139117   1.638   3.906  20.434  2.1334  0.4156 -0.4369
 4974TIP3    H239118   1.597   3.787  20.350  0.4855  0.7679 -0.1779
 4975TIP3   OH239119   3.718   6.286  18.521 -0.8833  0.2773  0.0748
 4975TIP3    H139120   3.710   6.380  18.502  1.3194  0.4206 -0.4249
 4975TIP3    H239121   3.664   6.273  18.599 -1.4052  1.9172  0.0342
 4976TIP3   OH239122   3.251   1.636  17.823 -0.6290 -0.2992  0.5010
 4976TIP3    H139123   3.206   1.643  17.907  0.1166 -0.4059  0.9146
 4976TIP3    H239124   3.183   1.606  17.762 -1.8273  2.1140  0.5165
 4977TIP3   OH239125   2.891   0.649  18.691  0.2135  0.5230 -0.3915
 4977TIP3    H139126   2.874   0.719  18.754  0.6936 -0.1370  0.4891
 4977TIP3    H239127   2.861   0.684  18.607  0.7597  1.9108 -0.0302
 4978TIP3   OH239128   6.318   4.528  17.524 -0.6328 -0.5651 -0.0129
 4978TIP3    H139129   6.227   4.537  17.494 -0.7940 -1.3441  0.2221
 4978TIP3    H239130   6.362   4.480  17.453 -0.1938  0.5140 -0.4975
 4979TIP3   OH239131   3.048   1.491  17.740 -0.0446  0.1751  0.5372
 4979TIP3    H139132   2.960   1.489  17.778 -1.1667 -0.1819 -1.9133
 4979TIP3    H239133   3.038   1.542  17.660  2.0863  0.4122  0.3758
 4980TIP3   OH239134   2.415   3.331  17.604  0.3882 -0.1369  0.1523
 4980TIP3    H139135   2.465   3.400  17.561  0.5420 -0.5917 -0.4192
 4980TIP3    H239136   2.331   3.328  17.558  1.0821 -1.5808 -1.1124
 4981TIP3   OH239137   0.319   1.151  18.361 -0.4011  0.9813 -0.5561
 4981TIP3    H139138   0.247   1.097  18.331  0.4081 -0.2119 -0.3983
 4981TIP3    H239139   0.278   1.215  18.420 -1.5151  1.2609 -1.5843
 4982TIP3   OH239140   4.632   0.919  20.492 -0.3685  0.4023 -0.0812
 4982TIP3    H139141   4.548   0.877  20.508  0.2590 -0.3915  1.2514
 4982TIP3    H239142   4.634   0.933  20.397 -1.5045 -0.5994 -0.2739
 4983TIP3   OH239143   3.392   1.077  20.266  0.2080 -0.0506 -0.6155
 4983TIP3    H139144   3.429   1.120  20.343 -0.3355 -0.5651 -0.0590
 4983TIP3    H239145   3.359   1.149  20.212 -0.1123  0.2659  0.0008
 4984TIP3   OH239146   2.377   6.710  18.265  0.5223  0.1789 -0.0151
 4984TIP3    H139147   2.285   6.732  18.275 -0.2794 -1.8568 -2.0839
 4984TIP3    H239148   2.423   6.776  18.317 -2.0902  0.8265  1.6848
 4985TIP3   OH239149   1.308   3.994  20.340  0.2532  0.5234  0.2795
 4985TIP3    H139150   1.373   3.927  20.358 -0.2288 -0.2102 -0.6238
 4985TIP3    H239151   1.224   3.952  20.357 -0.1839  0.0860 -2.5320
 4986TIP3   OH239152   1.651   5.645  17.665  0.0428 -0.3825  0.2822
 4986TIP3    H139153   1.735   5.616  17.702 -0.0384 -1.4726 -0.3485
 4986TIP3    H239154   1.634   5.584  17.593 -0.9314  0.2892 -0.0782
 4987TIP3   OH239155   3.888   5.397  19.736 -0.3150 -0.5655  0.2608
 4987TIP3    H139156   3.858   5.307  19.726  0.4195 -0.9056  0.9993
 4987TIP3    H239157   3.983   5.391  19.741 -0.2691  0.2107  0.6255
 4988TIP3   OH239158   2.903   3.592  20.000 -0.1017  0.2446  0.1529
 4988TIP3    H139159   2.828   3.646  19.977  2.4541  2.9715 -2.6563
 4988TIP3    H239160   2.895   3.514  19.945 -1.5675 -0.2734  1.0338
 4989TIP3   OH239161   4.291   0.536  17.912 -0.2535  0.4929 -0.1425
 4989TIP3    H139162   4.302   0.570  17.823 -0.4454  1.5855  0.2396
 4989TIP3    H239163   4.198   0.549  17.932 -0.3044 -0.1366  0.0770
 4990TIP3   OH239164   5.403   3.365  18.221  0.5737  0.2576 -0.8383
 4990TIP3    H139165   5.492   3.331  18.212  0.3354 -0.3477 -0.9707
 4990TIP3    H239166   5.356   3.328  18.146 -0.5443 -1.9088  0.8311
 4991TIP3   OH239167   2.139   1.453  17.331  0.1249  0.0451 -0.4517
 4991TIP3    H139168   2.172   1.541  17.349 -0.5564  0.3597 -0.7439
 4991TIP3    H239169   2.216   1.405  17.301  1.2058 -0.2921  2.4421
 4992TIP3   OH239170   5.541   0.818  18.377  0.3895  0.4490  0.3827
 4992TIP3    H139171   5.540   0.912  18.392 -0.6795  0.3188  1.3812
 4992TIP3    H239172   5.619   0.787  18.424  1.4286  0.9505 -0.9646
 4993TIP3   OH239173   3.054   6.041  20.914 -0.0953  0.1187 -0.1207
 4993TIP3    H139174   3.129   5.996  20.874 -0.2356  0.6831 -1.0437
 4993TIP3    H239175   2.982   6.023  20.855 -0.5549  0.1048  0.4369
 4994TIP3   OH239176   3.356   0.210  20.898 -0.2901 -0.4722 -0.7571
 4994TIP3    H139177   3.423   0.143  20.886 -1.3901 -1.4659 -1.5442
 4994TIP3    H239178   3.344   0.215  20.993 -0.7556 -1.9914 -0.7115
 4995TIP3   OH239179   0.327   1.844  19.786  0.0486  0.2914 -0.1865
 4995TIP3    H139180   0.312   1.937  19.770 -2.0383  0.1401  0.5550
 4995TIP3    H239181   0.350   1.840  19.879  1.3546  0.1596 -0.5005
 4996TIP3   OH239182   1.308   6.423  19.439 -0.3293  0.2691  0.2623
 4996TIP3    H139183   1.239   6.373  19.483 -0.0875 -0.3148 -0.0054
 4996TIP3    H239184   1.331   6.369  19.363  0.7141  0.2391  0.5849
 4997TIP3   OH239185   1.023   1.576  19.253  0.0308  0.2800 -0.2503
 4997TIP3    H139186   1.078   1.576  19.332 -0.4164  0.4984  0.0680
 4997TIP3    H239187   0.934   1.564  19.286 -0.0484 -0.8278 -0.8238
 4998TIP3   OH239188   1.406   6.052  18.720  0.5314 -0.3533 -0.6005
 4998TIP3    H139189   1.312   6.040  18.711  0.4049 -0.1139  0.3881
 4998TIP3    H239190   1.438   6.051  18.629 -0.5864  1.0001 -1.0457
 4999TIP3   OH239191   5.853   2.423  18.681 -0.3719  0.1000 -0.0277
 4999TIP3    H139192   5.908   2.345  18.685 -1.2213 -0.5052  0.0656
 4999TIP3    H239193   5.869   2.467  18.765  0.3752  0.2225 -0.2248
 5000TIP3   OH239194   3.150   0.969  19.406  0.1695 -0.0183 -0.2998
 5000TIP3    H139195   3.223   0.926  19.361 -0.9389 -0.1167 -2.1431
 5000TIP3    H239196   3.120   0.905  19.470  0.8952 -0.4894 -0.4203
 5001TIP3   OH239197   5.388   5.143  17.961  0.7715  0.1071 -0.0638
 5001TIP3    H139198   5.394   5.236  17.985  0.2332 -0.0608  0.7425
 5001TIP3    H239199   5.479   5.112  17.965  0.9544  0.5898 -0.3346
 5002TIP3   OH239200   5.828   3.911  18.736  0.2781  0.0137  0.0436
 5002TIP3    H139201   5.826   3.815  18.729 -0.1462  0.1434 -2.4686
 5002TIP3    H239202   5.921   3.931  18.749  0.3893 -0.7258  0.4745
 5003TIP3   OH239203   5.110   3.809  19.616 -0.0493  0.9327 -0.0071
 5003TIP3    H139204   5.202   3.806  19.642 -0.2793  0.2586  0.7732
 5003TIP3    H239205   5.088   3.902  19.617 -0.0902  0.9514  2.4748
 5004TIP3   OH239206   1.781   6.712  17.186 -0.2650 -0.0254  0.0636
 5004TIP3    H139207   1.757   6.798  17.151  0.2687 -0.2264 -0.8244
 5004TIP3    H239208   1.722   6.650  17.144 -0.7110 -0.0963  0.7729
 5005TIP3   OH239209   5.759   0.535  19.986 -0.4119 -0.5933 -0.2228
 5005TIP3    H139210   5.700   0.567  19.918 -0.2769 -0.7530 -0.4150
 5005TIP3    H239211   5.703   0.528  20.064 -0.2345  1.0494  0.0953
 5006TIP3   OH239212   5.868   5.654  18.475  0.4007  0.2319 -0.0472
 5006TIP3    H139213   5.909   5.586  18.422 -0.3161 -1.1976  1.1494
 5006TIP3    H239214   5.882   5.625  18.565 -1.8262  0.5179  0.4338
 5007TIP3   OH239215   5.287   4.189  18.256  0.3121 -0.2924  0.1317
 5007TIP3    H139216   5.307   4.229  18.340 -2.4657 -1.0463  1.2834
 5007TIP3    H239217   5.346   4.113  18.251 -0.8863 -1.4916  2.4871
 5008TIP3   OH239218   2.568   6.405  20.644 -0.2383 -0.1565  0.3447
 5008TIP3    H139219   2.661   6.381  20.641 -0.1394  0.2180  0.5248
 5008TIP3    H239220   2.562   6.474  20.709 -0.5728  0.1446 -0.0017
 5009TIP3   OH239221   5.873   0.712  17.073  0.2593  0.0271 -0.6773
 5009TIP3    H139222   5.803   0.714  17.009 -0.1490  0.5791 -0.2203
 5009TIP3    H239223   5.845   0.771  17.143  0.3650 -1.0863  0.3493
 5010TIP3   OH239224   2.643   5.068  18.348 -0.1876 -0.3390 -0.8193
 5010TIP3    H139225   2.627   5.161  18.334 -2.6159 -0.7700 -1.3147
 5010TIP3    H239226   2.683   5.064  18.435  1.5521  1.2543 -1.4897
 5011TIP3   OH239227   2.484   0.307  19.074 -0.1103 -0.1898  0.1987
 5011TIP3    H139228   2.489   0.340  19.163  0.5621 -0.9348  0.4453
 5011TIP3    H239229   2.527   0.374  19.021 -0.7379  0.3758  0.3884
 5012TIP3   OH239230   3.622   0.800  20.907  0.4965  0.3107 -0.1102
 5012TIP3    H139231   3.657   0.727  20.856 -1.0177  1.3952 -2.9137
 5012TIP3    H239232   3.699   0.852  20.930  1.3469 -0.7977 -0.3703
 5013TIP3   OH239233   0.427   5.704  17.684 -0.2810 -0.2615  0.0727
 5013TIP3    H139234   0.380   5.626  17.712 -1.8620  0.5240 -0.3046
 5013TIP3    H239235   0.381   5.734  17.605  1.9836 -0.4939 -1.4411
 5014TIP3   OH239236   0.592   2.930  17.515 -0.4617 -0.0264  0.1184
 5014TIP3    H139237   0.677   2.898  17.544  0.9136  1.3963 -2.0475
 5014TIP3    H239238   0.568   2.996  17.581  1.0791  0.9368 -0.2271
 5015TIP3   OH239239   0.920   4.966  17.529  0.4346 -0.2241  0.7919
 5015TIP3    H139240   0.920   4.884  17.579  1.1632  0.0677  1.2870
 5015TIP3    H239241   1.002   4.964  17.480 -0.4969 -0.7389 -0.8101
 5016TIP3   OH239242   1.817   4.750  17.958 -0.1878 -0.1197  0.8761
 5016TIP3    H139243   1.799   4.805  17.882  2.1186 -0.3840  0.0451
 5016TIP3    H239244   1.818   4.661  17.923 -0.5583 -0.3829  1.5262
 5017TIP3   OH239245   0.151   2.742  18.798 -0.1843  0.3767 -0.5415
 5017TIP3    H139246   0.215   2.782  18.739  0.4588  0.0483 -0.0811
 5017TIP3    H239247   0.066   2.774  18.768  0.3257  2.4068  0.0706
 5018TIP3   OH239248   1.612   1.909  20.260  0.0118  0.0414 -0.0386
 5018TIP3    H139249   1.543   1.962  20.219  0.1988 -0.0012 -0.4089
 5018TIP3    H239250   1.633   1.842  20.194 -0.7591 -0.9661  0.7043
 5019TIP3   OH239251   0.283   5.198  18.679  0.4723  0.8093  0.2093
 5019TIP3    H139252   0.210   5.205  18.740  0.0710  1.1319 -0.2940
 5019TIP3    H239253   0.293   5.287  18.644  0.7778  0.6576 -0.0950
 5020TIP3   OH239254   5.497   1.772  18.526 -0.0808  0.0190  0.2496
 5020TIP3    H139255   5.504   1.726  18.443 -0.5746  1.2969 -0.5254
 5020TIP3    H239256   5.452   1.854  18.505  1.4409  1.2230  1.4508
 5021TIP3   OH239257   2.623   5.519  20.356 -0.4641 -0.0913 -0.0804
 5021TIP3    H139258   2.673   5.582  20.409 -1.5196 -1.3348  2.5849
 5021TIP3    H239259   2.689   5.471  20.307  0.6365  0.7888  0.4868
 5022TIP3   OH239260   2.373   5.594  20.730 -0.0490  0.0408  0.1038
 5022TIP3    H139261   2.363   5.514  20.781 -0.2841  1.3708  2.2775
 5022TIP3    H239262   2.444   5.642  20.773 -0.2277  1.2345 -0.8575
 5023TIP3   OH239263   3.895   1.603  20.659 -0.1822  0.2156  0.2141
 5023TIP3    H139264   3.893   1.682  20.606  0.8703  0.5004  0.5741
 5023TIP3    H239265   3.913   1.532  20.597 -0.1741  0.3811  0.0274
 5024TIP3   OH239266   5.444   4.683  17.011  0.1330 -0.8311 -0.6090
 5024TIP3    H139267   5.522   4.737  17.003  0.8086 -1.6232  0.3114
 5024TIP3    H239268   5.477   4.597  17.038 -1.1968 -0.1951  4.0186
 5025TIP3   OH239269   0.141   6.438  18.691  0.4865 -0.2566 -0.1347
 5025TIP3    H139270   0.110   6.392  18.769  0.6396 -0.6707 -0.3141
 5025TIP3    H239271   0.172   6.368  18.633  2.9833  0.1930  0.5391
 5026TIP3   OH239272   4.460   6.280  20.592 -0.5632  0.6314 -0.0494
 5026TIP3    H139273   4.526   6.345  20.614 -0.1269  0.4384 -0.7496
 5026TIP3    H239274   4.407   6.271  20.671 -0.4588  1.6276  0.1405
 5027TIP3   OH239275   1.454   3.097  20.632 -0.2322 -0.2158 -0.2131
 5027TIP3    H139276   1.519   3.040  20.591 -0.7629 -0.2842 -0.9880
 5027TIP3    H239277   1.498   3.182  20.637 -0.0267 -0.2931 -0.6008
 5028TIP3   OH239278   6.672   5.304  19.565  0.0551  0.3350 -0.4953
 5028TIP3    H139279   6.643   5.394  19.550 -1.2496 -0.0055 -0.1893
 5028TIP3    H239280   6.639   5.282  19.652 -0.4312 -0.7179 -0.9187
 5029TIP3   OH239281   2.711   4.092  19.203  0.5486 -0.1214 -0.4168
 5029TIP3    H139282   2.796   4.068  19.240 -0.1039  0.4631  1.5850
 5029TIP3    H239283   2.673   4.008  19.176  0.6881 -0.7397  1.1525
 5030TIP3   OH239284   1.294   2.723  18.534  0.2059  0.0759  0.3339
 5030TIP3    H139285   1.258   2.808  18.561 -0.2858 -0.1681  0.4627
 5030TIP3    H239286   1.336   2.689  18.613 -0.0644 -0.0373  0.4308
 5031TIP3   OH239287   2.031   6.473  19.568  0.1177 -0.2131 -0.1612
 5031TIP3    H139288   1.948   6.426  19.561  0.1037 -0.0267 -1.6853
 5031TIP3    H239289   2.093   6.406  19.596 -0.5853 -0.2843  1.2796
 5032TIP3   OH239290   3.067   4.381  17.629  0.0319  0.1707  0.2058
 5032TIP3    H139291   3.071   4.452  17.565  0.1153 -0.1450 -0.1417
 5032TIP3    H239292   2.980   4.343  17.617 -0.5171  1.0525  1.3029
 5033TIP3   OH239293   6.368   2.393  20.505 -0.2817 -0.3976  0.1198
 5033TIP3    H139294   6.285   2.369  20.546  0.7214 -0.8575  1.9754
 5033TIP3    H239295   6.343   2.451  20.433 -2.3433 -2.2019 -0.7362
 5034TIP3   OH239296   1.138   0.553  18.774 -0.1965  0.2673  0.0707
 5034TIP3    H139297   1.214   0.497  18.760 -0.3134  0.3390 -0.9071
 5034TIP3    H239298   1.069   0.515  18.721 -0.6849  0.5395  0.4930
 5035TIP3   OH239299   6.664   4.987  18.714 -0.2578 -0.2305 -0.0292
 5035TIP3    H139300   6.713   5.044  18.655  0.0080 -1.5021 -1.0717
 5035TIP3    H239301   6.671   4.900  18.675  0.4013 -1.2308  2.1552
 5036TIP3   OH239302   4.775   1.762  18.180 -0.5367  0.3964 -0.1186
 5036TIP3    H139303   4.776   1.668  18.163 -1.9430  0.4034 -0.3706
 5036TIP3    H239304   4.684   1.787  18.168  0.1220  2.1482 -2.0183
 5037TIP3   OH239305   3.362   1.683  19.217 -0.0788 -0.6162  0.0508
 5037TIP3    H139306   3.457   1.686  19.207  0.0275 -2.0616  0.3333
 5037TIP3    H239307   3.347   1.608  19.275 -1.3234  0.3300  1.0090
 5038TIP3   OH239308   1.869   3.889  19.738 -0.5145  0.1535 -0.1719
 5038TIP3    H139309   1.943   3.880  19.678 -2.1936 -1.8246 -2.1442
 5038TIP3    H239310   1.870   3.808  19.789 -0.6876  0.6097  0.5647
 5039TIP3   OH239311   2.758   4.322  19.574 -0.3074 -0.3629  0.2426
 5039TIP3    H139312   2.801   4.402  19.543  0.7016 -0.5927  1.0482
 5039TIP3    H239313   2.672   4.352  19.604 -0.4402  0.2112 -0.6659
 5040TIP3   OH239314   4.546   4.469  20.334  0.5126 -1.0468  0.0997
 5040TIP3    H139315   4.504   4.434  20.255  1.4108 -3.0855  0.4818
 5040TIP3    H239316   4.484   4.448  20.404  0.3364 -0.4264  0.1379
 5041TIP3   OH239317   1.983   2.795  18.485 -0.2099  0.2214  0.0346
 5041TIP3    H139318   2.074   2.818  18.504 -0.2821  0.7674 -0.2569
 5041TIP3    H239319   1.936   2.878  18.493 -0.5224  0.1287 -0.7881
 5042TIP3   OH239320   5.620   3.581  19.780  0.7444  0.2674  0.1510
 5042TIP3    H139321   5.603   3.613  19.692  0.3726  1.8427  0.7480
 5042TIP3    H239322   5.715   3.585  19.790  0.8322 -0.4669 -0.3593
 5043TIP3   OH239323   1.512   4.818  18.617  0.0861 -0.7196 -0.3961
 5043TIP3    H139324   1.480   4.744  18.565 -2.3259 -1.6851  2.1793
 5043TIP3    H239325   1.432   4.864  18.645  1.4351  1.8071 -0.3715
 5044TIP3   OH239326   0.784   0.050  20.128 -0.3512 -0.3189 -0.0714
 5044TIP3    H139327   0.705   0.010  20.164  0.1146 -0.3315  0.9768
 5044TIP3    H239328   0.845  -0.023  20.116  0.8373  0.0676  2.7205
 5045TIP3   OH239329   2.415   5.753  19.125 -0.3143 -0.6335  0.3774
 5045TIP3    H139330   2.407   5.840  19.088 -0.1348  0.2652  2.2939
 5045TIP3    H239331   2.509   5.743  19.142 -0.3406 -1.1623  0.2300
 5046TIP3   OH239332   3.688   2.589  20.125  0.7018  0.3373  0.0584
 5046TIP3    H139333   3.676   2.661  20.064  2.5295  0.2861 -0.4247
 5046TIP3    H239334   3.668   2.511  20.074  2.1425  0.3002 -0.4937
 5047TIP3   OH239335   2.609   4.196  20.062 -0.7216  0.2046  0.2332
 5047TIP3    H139336   2.677   4.257  20.089  0.7109 -1.0707 -0.3377
 5047TIP3    H239337   2.573   4.233  19.982 -2.3736  2.0740  1.7418
 5048TIP3   OH239338   1.303   1.858  18.309  0.2074 -0.5328  0.1411
 5048TIP3    H139339   1.264   1.781  18.350 -0.4134 -0.2855  0.0253
 5048TIP3    H239340   1.283   1.848  18.216 -1.5391  0.6965  0.3421
 5049TIP3   OH239341   5.626   5.693  20.189 -0.5261 -0.2208 -0.0801
 5049TIP3    H139342   5.575   5.625  20.234 -0.8948 -1.7709 -2.6566
 5049TIP3    H239343   5.564   5.731  20.126  0.9619 -0.9013 -2.0270
 5050TIP3   OH239344   0.358   3.501  18.926 -0.0084 -0.0737  0.0621
 5050TIP3    H139345   0.392   3.580  18.967 -0.4234 -0.5058  1.2774
 5050TIP3    H239346   0.435   3.460  18.886  0.4140  0.3523  0.4261
 5051TIP3   OH239347   4.293   1.653  20.406 -0.3562  0.4251  0.4044
 5051TIP3    H139348   4.370   1.596  20.416 -1.2336 -0.9806 -0.4396
 5051TIP3    H239349   4.253   1.654  20.493  0.0076  0.2470  0.5767
 5052TIP3   OH239350   3.916   3.564  18.612  0.1437 -0.0168  0.1472
 5052TIP3    H139351   3.850   3.611  18.561  1.2769  0.4190 -0.9570
 5052TIP3    H239352   3.953   3.501  18.551  0.0754 -0.9507  1.0435
 5053TIP3   OH239353   4.895   4.218  18.796  0.0745  0.3724 -0.1707
 5053TIP3    H139354   4.852   4.177  18.871  1.3327  0.7055  0.7836
 5053TIP3    H239355   4.987   4.226  18.823  0.1075  2.7851 -0.7473
 5054TIP3   OH239356   1.647   0.634  18.268 -0.1003 -0.3914 -0.1194
 5054TIP3    H139357   1.624   0.588  18.188  0.4828  2.2704 -1.9679
 5054TIP3    H239358   1.573   0.694  18.283  1.1888  1.3956 -0.5783
 5055TIP3   OH239359   0.575   5.654  18.235  0.4406  0.2993 -0.2616
 5055TIP3    H139360   0.648   5.697  18.280  0.0082 -1.2703  2.1455
 5055TIP3    H239361   0.529   5.725  18.190  1.0610  1.9870  1.6036
 5056TIP3   OH239362   3.603   5.532  19.701 -0.3596 -0.0902 -0.0008
 5056TIP3    H139363   3.660   5.576  19.763 -0.8928  0.2669  0.2490
 5056TIP3    H239364   3.659   5.468  19.657 -0.0587 -0.6082  1.1076
 5057TIP3   OH239365   5.827   6.246  18.365 -0.6900 -0.0744  0.1545
 5057TIP3    H139366   5.773   6.173  18.394  2.4740 -2.6956  0.0756
 5057TIP3    H239367   5.825   6.241  18.269 -1.2057  0.5567  0.1297
 5058TIP3   OH239368   6.710   6.664  17.907 -0.1829  0.0149  0.1436
 5058TIP3    H139369   6.732   6.616  17.827  1.8586  0.0135  0.6536
 5058TIP3    H239370   6.772   6.737  17.909  0.5047 -0.5634  2.2222
 5059TIP3   OH239371   3.535   0.654  17.743 -0.1324  0.3655 -0.6689
 5059TIP3    H139372   3.568   0.564  17.735  0.9962  0.6679  0.2932
 5059TIP3    H239373   3.544   0.691  17.656 -0.1640 -0.3015 -0.9621
 5060TIP3   OH239374   6.569   4.659  18.261 -0.3748  0.3699 -0.2125
 5060TIP3    H139375   6.597   4.569  18.243  1.4274  0.8682 -0.1467
 5060TIP3    H239376   6.544   4.658  18.354 -1.0446 -0.1974 -0.3873
 5061TIP3   OH239377   2.162   5.680  18.971  0.0423  0.0848 -0.2472
 5061TIP3    H139378   2.221   5.684  19.046  0.9521  1.4162 -1.0026
 5061TIP3    H239379   2.150   5.586  18.954 -2.0623 -0.3928  2.9746
 5062TIP3   OH239380   3.527   3.627  18.201  0.2091 -0.6062  0.5363
 5062TIP3    H139381   3.539   3.616  18.107  2.2800  2.3317  0.3285
 5062TIP3    H239382   3.602   3.581  18.240  0.8323  0.3950  0.5481
 5063TIP3   OH239383   3.995   2.805  20.024  1.2360  0.6034 -0.1733
 5063TIP3    H139384   3.952   2.773  20.104  1.0883  0.4302 -0.3206
 5063TIP3    H239385   3.926   2.800  19.957  1.3138  0.8989 -0.2756
 5064TIP3   OH239386   4.023   3.043  18.080  0.6721  0.2992  0.5006
 5064TIP3    H139387   3.966   3.105  18.034  1.5200  0.4348 -0.4154
 5064TIP3    H239388   4.106   3.090  18.088  0.4420  0.4651  2.6275
 5065TIP3   OH239389   4.470   0.430  16.955 -0.2280 -0.3144 -0.0392
 5065TIP3    H139390   4.543   0.482  16.988  0.9265 -0.4873 -2.1680
 5065TIP3    H239391   4.415   0.492  16.908 -0.5817 -0.4728  0.1601
 5066TIP3   OH239392   3.519   4.124  18.445 -0.4280  0.0528  0.0271
 5066TIP3    H139393   3.495   4.046  18.395 -1.1834  0.1588  0.2104
 5066TIP3    H239394   3.532   4.092  18.534  0.6481 -0.0907 -0.1711
 5067TIP3   OH239395   1.944   3.424  19.633  0.4097  0.8551 -0.4601
 5067TIP3    H139396   1.907   3.497  19.582  1.0294  0.2606 -1.8204
 5067TIP3    H239397   1.881   3.353  19.622 -0.6185  1.3665  1.5512
 5068TIP3   OH239398   1.432   5.750  18.027  0.1374 -0.0356  0.5358
 5068TIP3    H139399   1.465   5.805  18.098  0.3365  0.2089  0.2572
 5068TIP3    H239400   1.476   5.666  18.038  0.9925  0.3327  0.0735
 5069TIP3   OH239401   0.018   3.341  19.268 -0.0731  0.0999 -0.3331
 5069TIP3    H139402   0.026   3.432  19.297  1.6411  0.4989 -1.9199
 5069TIP3    H239403   0.042   3.343  19.176  3.7435 -2.4719  0.3886
 5070TIP3   OH239404   3.501   5.755  20.068  0.1823  0.5234  0.2642
 5070TIP3    H139405   3.592   5.727  20.058  1.0032  1.7016  3.3916
 5070TIP3    H239406   3.450   5.675  20.056  1.7312 -0.4643 -0.0153
 5071TIP3   OH239407   2.697   1.704  19.955  0.6870 -0.0698 -0.0164
 5071TIP3    H139408   2.719   1.727  19.865  0.5911  0.2388  0.0363
 5071TIP3    H239409   2.616   1.655  19.949  1.8458 -2.0598 -0.3124
 5072TIP3   OH239410   2.702   6.094  19.460 -0.0289 -0.0808  0.0288
 5072TIP3    H139411   2.707   6.137  19.546 -4.3291 -1.0077  1.0100
 5072TIP3    H239412   2.746   6.010  19.473 -1.2645 -0.5370  1.6902
 5073TIP3   OH239413   1.268   5.542  18.846  0.0939 -0.1653  0.2935
 5073TIP3    H139414   1.341   5.489  18.878 -1.4683 -1.0419  2.6552
 5073TIP3    H239415   1.305   5.629  18.835  1.7028 -0.7728  0.5732
 5074TIP3   OH239416   3.770   1.466  18.894  0.7664 -0.0842  0.2482
 5074TIP3    H139417   3.820   1.485  18.814  0.3341  2.4712  0.4850
 5074TIP3    H239418   3.807   1.525  18.959 -2.5484  2.1645  0.3790
 5075TIP3   OH239419   1.008   4.858  18.118 -0.3874  0.3093 -0.4811
 5075TIP3    H139420   0.978   4.795  18.053  0.5682 -1.3670  0.6295
 5075TIP3    H239421   0.929   4.889  18.161 -0.8843 -0.0521 -1.1289
 5076TIP3   OH239422   4.296   4.539  18.755  0.1212 -0.2411 -0.1578
 5076TIP3    H139423   4.274   4.486  18.832  0.5154  0.1510  0.2246
 5076TIP3    H239424   4.349   4.481  18.700  0.8565 -0.1369  0.4262
 5077TIP3   OH239425   6.055   0.582  17.794 -0.4553 -0.1626 -0.5104
 5077TIP3    H139426   6.140   0.622  17.777  0.0723 -0.4851  1.1348
 5077TIP3    H239427   5.991   0.645  17.760  0.3754  1.4326  0.7427
 5078TIP3   OH239428   1.684   5.565  18.458  0.6603  0.4166  0.4948
 5078TIP3    H139429   1.588   5.557  18.457  0.6759 -1.1961 -2.3340
 5078TIP3    H239430   1.714   5.474  18.452  2.2364  0.9912 -1.0865
 5079TIP3   OH239431   1.439   1.593  20.074  0.1982 -0.4008 -0.5242
 5079TIP3    H139432   1.411   1.634  20.156 -0.6641 -0.0026 -1.0037
 5079TIP3    H239433   1.526   1.629  20.057  0.7850 -1.1967  0.6849
 5080TIP3   OH239434   3.201   3.965  17.470 -0.1347  0.9699  0.0670
 5080TIP3    H139435   3.228   4.037  17.414  0.1487  1.6669  1.0697
 5080TIP3    H239436   3.164   3.900  17.410 -0.6092  2.0437 -0.8352
 5081TIP3   OH239437   2.814   3.735  20.574  0.2511 -0.2056 -0.3782
 5081TIP3    H139438   2.743   3.690  20.529  0.6246 -0.7418 -0.4461
 5081TIP3    H239439   2.853   3.668  20.630 -0.5458  0.5847  1.1668
 5082TIP3   OH239440   4.170   2.429  20.361  0.0987 -0.3905  0.1996
 5082TIP3    H139441   4.236   2.411  20.294  0.8903 -3.4802  1.6342
 5082TIP3    H239442   4.087   2.418  20.314  0.5692  0.7094 -0.9653
 5083TIP3   OH239443   1.508   4.694  17.458  0.0591 -0.5455 -0.4810
 5083TIP3    H139444   1.597   4.716  17.429  0.5299 -1.4599  0.2183
 5083TIP3    H239445   1.517   4.609  17.500 -0.7915  0.1528  1.2355
 5084TIP3   OH239446   0.379   3.180  18.271 -0.2583  0.2851  0.2290
 5084TIP3    H139447   0.437   3.105  18.278 -1.1257 -0.3176  1.1983
 5084TIP3    H239448   0.343   3.175  18.183  0.6589  0.3140 -0.1610
 5085TIP3   OH239449   1.968   4.917  18.335 -0.0509 -0.2138 -0.3220
 5085TIP3    H139450   1.947   4.885  18.423 -0.8612 -1.1433 -0.8373
 5085TIP3    H239451   1.988   5.010  18.348  2.1828 -0.8271  1.1715
 5086TIP3   OH239452   4.173   5.373  18.770 -0.0031  0.0537 -0.5692
 5086TIP3    H139453   4.158   5.463  18.740 -0.9318  0.1052  0.0003
 5086TIP3    H239454   4.097   5.354  18.826  0.0006 -1.2136 -0.9709
 5087TIP3   OH239455   2.368   4.334  20.152  0.0921  0.0293  0.4443
 5087TIP3    H139456   2.463   4.330  20.139  0.0953  0.1644  0.4164
 5087TIP3    H239457   2.337   4.246  20.131  0.3778 -0.4303  1.8981
 5088TIP3   OH239458   5.970   2.528  20.575 -0.3714  0.6134  0.3185
 5088TIP3    H139459   5.926   2.536  20.491  0.1587 -0.1933 -0.0566
 5088TIP3    H239460   5.902   2.500  20.636 -0.7532  1.1865  0.1591
 5089TIP3   OH239461   3.637   4.047  19.049  0.4645 -0.2681  0.3314
 5089TIP3    H139462   3.543   4.038  19.034  0.6029  0.5973 -1.3503
 5089TIP3    H239463   3.648   4.034  19.143 -1.3254 -0.4536  0.5515
 5090TIP3   OH239464   4.287   3.875  19.529 -0.2867  0.3066  0.8809
 5090TIP3    H139465   4.321   3.912  19.611 -1.1380 -0.9122  1.8177
 5090TIP3    H239466   4.192   3.876  19.540 -0.5595  2.0900 -0.9995
 5091TIP3   OH239467   4.300   6.269  20.009 -0.2202 -0.9825 -0.3004
 5091TIP3    H139468   4.379   6.313  20.037 -0.7885 -1.0392  1.4868
 5091TIP3    H239469   4.235   6.338  20.000 -0.5367 -1.1911  0.3596
 5092TIP3   OH239470   2.160   0.575  18.560 -0.0338  0.0327 -0.2020
 5092TIP3    H139471   2.212   0.628  18.499 -0.4217  0.3960 -0.2165
 5092TIP3    H239472   2.112   0.639  18.613 -1.7469 -0.3034 -1.2750
 5093TIP3   OH239473   3.532   6.330  19.293 -0.1289 -0.4360  0.0824
 5093TIP3    H139474   3.565   6.396  19.353 -0.0676 -1.2712  0.9860
 5093TIP3    H239475   3.462   6.375  19.245  0.6177  0.5881 -0.0797
 5094TIP3   OH239476   3.515   4.749  18.238 -1.0963 -0.3900  0.0587
 5094TIP3    H139477   3.465   4.823  18.203 -0.0094  0.4641  0.2390
 5094TIP3    H239478   3.564   4.716  18.162 -1.1994 -0.6076  0.0871
 5095TIP3   OH239479   6.239   1.922  18.516 -0.1271 -0.7484 -0.1389
 5095TIP3    H139480   6.256   1.896  18.426  0.6622 -1.0509  0.0888
 5095TIP3    H239481   6.293   1.863  18.569  1.7707  1.3131  0.4014
 5096TIP3   OH239482   1.868   5.381  20.402 -0.1521  0.2487 -0.4325
 5096TIP3    H139483   1.879   5.293  20.438 -0.8473  0.5412  0.5554
 5096TIP3    H239484   1.801   5.421  20.458 -1.3359  0.7230 -2.1151
 5097TIP3   OH239485   5.861   1.165  18.382 -0.5399 -0.0419  0.0971
 5097TIP3    H139486   5.892   1.087  18.336  0.2299  0.2954  0.0263
 5097TIP3    H239487   5.862   1.234  18.316  0.7383  0.4839  0.6243
 5098TIP3   OH239488   3.818   0.241  16.734 -0.1680 -0.1054 -0.2669
 5098TIP3    H139489   3.794   0.299  16.806 -0.7040  1.4043 -1.6071
 5098TIP3    H239490   3.749   0.174  16.733 -1.3460  1.0647 -0.6426
 5099TIP3   OH239491   5.104   3.709  17.290  0.4502 -0.8873  0.5259
 5099TIP3    H139492   5.071   3.740  17.206  0.9757  0.0458  0.6437
 5099TIP3    H239493   5.169   3.775  17.315  1.0614 -1.7097  1.1586
 5100TIP3   OH239494   1.208   4.697  19.100  0.2156  0.1409  0.1413
 5100TIP3    H139495   1.292   4.730  19.131 -0.3735  1.2273  0.6620
 5100TIP3    H239496   1.147   4.769  19.117 -0.8272 -0.6516 -0.1699
 5101TIP3   OH239497   1.636   1.220  19.378  0.2103  0.0639 -0.9277
 5101TIP3    H139498   1.651   1.140  19.328  0.0573  0.9696 -2.4748
 5101TIP3    H239499   1.660   1.291  19.318 -1.9129  1.2715 -0.4460
 5102TIP3   OH239500   4.496   3.170  19.638 -0.1823 -0.1965  0.1642
 5102TIP3    H139501   4.454   3.249  19.605  0.2998  0.3966  0.9280
 5102TIP3    H239502   4.429   3.130  19.694 -0.5207 -0.4852 -0.4302
 5103TIP3   OH239503   1.642   5.425  19.681  0.7409 -0.0502  0.0184
 5103TIP3    H139504   1.708   5.488  19.711  0.5506  0.4249 -0.5299
 5103TIP3    H239505   1.685   5.377  19.610 -0.2689  1.9740 -2.0841
 5104TIP3   OH239506   5.426   1.457  18.074  0.1023 -0.1881  0.0662
 5104TIP3    H139507   5.442   1.447  17.980 -1.6971  1.1175 -0.4409
 5104TIP3    H239508   5.376   1.379  18.099 -0.0621 -0.1860 -0.2453
 5105TIP3   OH239509   6.020   4.229  17.510 -0.2136  0.1490 -0.2511
 5105TIP3    H139510   6.110   4.198  17.522 -0.3176  0.0902  0.3880
 5105TIP3    H239511   5.989   4.248  17.598 -1.3040 -1.1655 -0.3259
 5106TIP3   OH239512   2.539   5.678  17.707  0.0662 -0.4063  0.1700
 5106TIP3    H139513   2.529   5.634  17.791 -2.2374 -1.3271 -0.5066
 5106TIP3    H239514   2.623   5.724  17.714  1.3655 -2.8163  1.8634
 5107TIP3   OH239515   3.844   0.462  18.676  0.0929 -0.6291 -0.8049
 5107TIP3    H139516   3.857   0.422  18.590  0.2909 -0.7871 -0.7023
 5107TIP3    H239517   3.855   0.390  18.737 -0.4248 -0.5933 -0.6670
 5108TIP3   OH239518   5.794   5.104  19.925 -0.2353 -0.4808 -0.4069
 5108TIP3    H139519   5.873   5.153  19.946 -0.4628 -0.4093  0.2758
 5108TIP3    H239520   5.826   5.031  19.871 -0.0176  0.9953 -2.4189
 5109TIP3   OH239521   0.254   2.934  19.541 -0.2014 -0.1482  1.1895
 5109TIP3    H139522   0.253   2.979  19.456  0.1918 -1.6120  0.3643
 5109TIP3    H239523   0.162   2.918  19.561 -0.2648 -0.5697  0.5898
 5110TIP3   OH239524   1.635   5.436  18.094  0.1789 -0.2365 -0.8382
 5110TIP3    H139525   1.541   5.425  18.105 -0.1060 -0.6899 -3.2376
 5110TIP3    H239526   1.673   5.364  18.144 -0.7448 -0.2418 -0.1122
 5111TIP3   OH239527   5.561   2.309  17.909  0.3344 -0.0107  0.3965
 5111TIP3    H139528   5.641   2.355  17.884  1.3926 -2.0612 -0.2440
 5111TIP3    H239529   5.577   2.218  17.884 -2.5488 -0.3561 -0.5266
 5112TIP3   OH239530   2.308   5.846  19.373 -0.7346  0.2745  0.3032
 5112TIP3    H139531   2.348   5.796  19.302 -0.7038 -0.4770  0.8455
 5112TIP3    H239532   2.304   5.936  19.339 -2.0973 -0.3191 -1.2193
 5113TIP3   OH239533   2.404   6.260  19.849 -0.0084  0.9145  0.1113
 5113TIP3    H139534   2.461   6.332  19.822  3.2006 -0.6054  2.2021
 5113TIP3    H239535   2.328   6.303  19.889  1.2389  3.1265  0.2581
 5114TIP3   OH239536   1.458   3.268  17.465  0.2461 -0.3252  0.5154
 5114TIP3    H139537   1.462   3.200  17.398  1.1808  0.6871 -0.4989
 5114TIP3    H239538   1.532   3.325  17.446 -0.6552  1.1232  1.1674
 5115TIP3   OH239539   3.488   2.348  20.201  0.0197  0.1496 -0.2388
 5115TIP3    H139540   3.411   2.391  20.165  0.5244  0.5466 -0.8579
 5115TIP3    H239541   3.543   2.330  20.125  1.0863  0.9652  0.3120
 5116TIP3   OH239542   1.744   4.860  19.125  0.5073 -0.0478  0.3820
 5116TIP3    H139543   1.794   4.840  19.204  0.6530 -0.4262  0.1963
 5116TIP3    H239544   1.794   4.819  19.054  1.1397  1.4377 -0.0945
 5117TIP3   OH239545   4.108   1.135  17.775 -0.2577 -0.9190 -0.5097
 5117TIP3    H139546   4.041   1.190  17.735  1.1579  0.3904 -1.1731
 5117TIP3    H239547   4.190   1.163  17.733  0.9201 -1.3898  1.3754
 5118TIP3   OH239548   4.354   2.287  18.254 -0.1240 -0.5239 -0.1947
 5118TIP3    H139549   4.377   2.274  18.347 -0.1962 -0.9103 -0.2276
 5118TIP3    H239550   4.432   2.325  18.215 -0.6266  1.1645  0.3542
 5119TIP3   OH239551   1.535   4.617  18.089  0.1490 -0.4112  0.0616
 5119TIP3    H139552   1.608   4.554  18.087  1.4197  1.0081 -0.1271
 5119TIP3    H239553   1.499   4.608  18.177  1.9623  0.3560  0.9438
 5120TIP3   OH239554   4.875   5.675  20.366 -0.5339 -0.0991  0.0558
 5120TIP3    H139555   4.916   5.606  20.314  0.7466  0.1284  0.7213
 5120TIP3    H239556   4.857   5.745  20.304  1.5027  0.3995 -0.0374
 5121TIP3   OH239557   3.182   0.279  19.504 -0.2277 -0.8602  0.0328
 5121TIP3    H139558   3.257   0.327  19.537 -0.6973 -0.1731  0.1161
 5121TIP3    H239559   3.211   0.244  19.419 -0.3368  0.7664 -0.6989
 5122TIP3   OH239560   5.409   0.846  19.302 -0.0473 -0.0313  0.2597
 5122TIP3    H139561   5.350   0.802  19.241  0.8381 -2.0698  0.8161
 5122TIP3    H239562   5.350   0.898  19.358 -0.9560  1.0111 -1.5609
 5123TIP3   OH239563   5.273   4.474  17.735  0.7659  0.2847  0.1662
 5123TIP3    H139564   5.315   4.422  17.804  0.6690 -0.4056 -0.2764
 5123TIP3    H239565   5.237   4.550  17.781  0.7925 -0.1057  0.8605
 5124TIP3   OH239566   4.300   0.346  19.225  0.0519  0.3283 -0.4538
 5124TIP3    H139567   4.360   0.420  19.232 -1.9012  2.0243 -0.7245
 5124TIP3    H239568   4.322   0.290  19.300  0.9459  1.6664  0.3245
 5125TIP3   OH239569   0.426   6.051  20.262 -0.2154 -0.1638  0.0528
 5125TIP3    H139570   0.500   6.102  20.297 -0.5435 -0.3586  1.0512
 5125TIP3    H239571   0.380   6.112  20.205 -0.4323  0.5836  1.0050
 5126TIP3   OH239572   2.991   2.987  20.471 -0.1862 -0.0848 -0.2177
 5126TIP3    H139573   3.000   2.946  20.385 -0.2549  3.6131 -2.1734
 5126TIP3    H239574   3.078   3.022  20.491 -0.0124 -1.3793  1.5886
 5127TIP3   OH239575   5.953   6.504  18.134  0.0707 -0.2963  0.1905
 5127TIP3    H139576   5.859   6.517  18.121 -0.2652 -1.3668  1.3306
 5127TIP3    H239577   5.994   6.573  18.082 -1.2519 -1.1318 -2.1169
 5128TIP3   OH239578   2.475   0.347  20.295  0.5333  0.4600 -0.0172
 5128TIP3    H139579   2.471   0.406  20.219 -0.2836  0.0695 -0.2867
 5128TIP3    H239580   2.385   0.342  20.327  0.6201 -0.4801  0.1232
 5129TIP3   OH239581   4.923   3.351  20.204  0.5543 -0.1142  0.0355
 5129TIP3    H139582   4.954   3.439  20.181  2.9399 -1.0292 -0.4757
 5129TIP3    H239583   4.951   3.339  20.295 -1.0180  0.1292  0.5921
 5130TIP3   OH239584   6.633   0.460  17.473 -0.0038  0.3684  0.1731
 5130TIP3    H139585   6.567   0.495  17.533 -1.1147 -1.0082 -0.1963
 5130TIP3    H239586   6.592   0.466  17.387  0.7867  0.4574 -0.2052
 5131TIP3   OH239587   5.263   2.001  19.109  0.1267  0.3727 -0.3742
 5131TIP3    H139588   5.234   2.065  19.044 -3.3222 -0.3380  0.2243
 5131TIP3    H239589   5.263   2.049  19.192 -0.9642  0.0231 -0.1509
 5132TIP3   OH239590   0.400   2.377  18.700 -0.0193  0.0356 -0.4349
 5132TIP3    H139591   0.341   2.301  18.701  0.2317 -0.1790 -1.0214
 5132TIP3    H239592   0.486   2.339  18.682 -0.0102  0.5209 -1.4988
 5133TIP3   OH239593   2.265   4.601  18.193  0.5212  0.1621  0.4559
 5133TIP3    H139594   2.259   4.599  18.288 -0.8712  0.9328  0.4135
 5133TIP3    H239595   2.198   4.664  18.166  0.6997 -0.2431 -1.0424
 5134TIP3   OH239596   4.557   2.099  20.897  0.0011 -0.1618 -0.2756
 5134TIP3    H139597   4.595   2.184  20.918 -0.8524  0.0902  0.3001
 5134TIP3    H239598   4.478   2.120  20.847 -1.2053 -0.5116  1.3965
 5135TIP3   OH239599   1.236   4.521  20.252  0.1650  0.4861  0.4363
 5135TIP3    H139600   1.260   4.501  20.162 -0.6993  0.0731  0.2879
 5135TIP3    H239601   1.168   4.588  20.244  0.5383  0.9233  0.8133
 5136TIP3   OH239602   3.646   6.043  20.212  0.7115  0.0131  0.0954
 5136TIP3    H139603   3.605   6.126  20.240 -2.1343 -1.2062 -0.0592
 5136TIP3    H239604   3.688   6.064  20.129 -0.1856  1.2816 -0.0751
 5137TIP3   OH239605   3.708   0.984  18.272  0.6689 -0.0859 -0.6680
 5137TIP3    H139606   3.676   0.894  18.268  1.4862 -0.4728  0.6679
 5137TIP3    H239607   3.710   1.013  18.181 -1.3708 -0.7605 -0.9872
 5138TIP3   OH239608   5.861   0.573  18.196  0.1438  0.3352 -0.0110
 5138TIP3    H139609   5.832   0.602  18.282  0.0681 -1.3348  0.5694
 5138TIP3    H239610   5.952   0.545  18.210  0.7147  1.6442 -0.8807
 5139TIP3   OH239611   6.498   1.039  18.904  0.5648 -0.0839 -0.1040
 5139TIP3    H139612   6.517   1.057  18.996 -0.2465 -1.2475  0.3077
 5139TIP3    H239613   6.557   0.968  18.881  1.3401  0.7337 -0.7426
 5140TIP3   OH239614   5.791   5.901  18.646 -0.2758 -0.1733 -0.2456
 5140TIP3    H139615   5.782   5.943  18.732 -1.3272 -0.9758  0.0536
 5140TIP3    H239616   5.707   5.857  18.631  0.4845 -1.4732 -0.9150
 5141TIP3   OH239617   1.778   3.830  17.546  0.2432  0.0917  0.1104
 5141TIP3    H139618   1.845   3.876  17.596  2.7122 -0.9843 -1.9908
 5141TIP3    H239619   1.736   3.897  17.494  1.8816  0.4279 -0.8510
 5142TIP3   OH239620   3.333   5.770  18.971  0.0178 -0.0889 -0.1299
 5142TIP3    H139621   3.285   5.794  18.892 -1.1471 -0.5533  0.4179
 5142TIP3    H239622   3.281   5.699  19.010  1.0033 -0.4148  0.6255
 5143TIP3   OH239623   1.982   3.484  18.833  0.3565  0.0139 -0.1252
 5143TIP3    H139624   2.012   3.535  18.758  0.7414  0.9800  0.6661
 5143TIP3    H239625   1.891   3.510  18.845  0.3018 -0.1235 -0.2377
 5144TIP3   OH239626   5.625   0.369  19.766 -0.0347 -0.2063  0.4458
 5144TIP3    H139627   5.635   0.310  19.841 -0.7891 -1.1217 -0.1442
 5144TIP3    H239628   5.570   0.440  19.798 -0.0264 -0.3876  0.8666
 5145TIP3   OH239629   0.495   6.653  19.019  0.3978 -0.1955  0.2155
 5145TIP3    H139630   0.582   6.671  18.984  0.4367 -0.7912 -0.0146
 5145TIP3    H239631   0.444   6.623  18.944 -0.3143  1.1234  0.1366
 5146TIP3   OH239632   5.141   5.783  19.499  0.3586  0.0876  0.0004
 5146TIP3    H139633   5.129   5.717  19.431  1.1155  0.1299 -0.1746
 5146TIP3    H239634   5.190   5.853  19.456 -1.7027  1.4710 -0.2676
 5147TIP3   OH239635   4.968   5.966  19.192  0.8233  0.0592 -0.4888
 5147TIP3    H139636   4.940   5.953  19.101  0.1927  1.7734 -0.5833
 5147TIP3    H239637   5.063   5.957  19.190  0.7091 -1.1807 -1.0627
 5148TIP3   OH239638   5.390   1.270  19.868  0.2472 -0.4214  0.1201
 5148TIP3    H139639   5.447   1.193  19.871  0.9980  0.0856 -0.6020
 5148TIP3    H239640   5.392   1.305  19.957  2.3727  0.4848 -0.2341
 5149TIP3   OH239641   1.642   4.044  17.446 -0.3307 -0.2733  0.2915
 5149TIP3    H139642   1.573   3.995  17.401  0.5712 -2.2483  0.9337
 5149TIP3    H239643   1.596   4.102  17.506 -1.4480 -1.3369  0.5006
 5150TIP3   OH239644   4.780   3.115  17.303 -0.1429 -0.5649 -0.4445
 5150TIP3    H139645   4.840   3.053  17.342 -0.9460 -0.6507  0.7016
 5150TIP3    H239646   4.733   3.065  17.236  0.3474 -0.7552 -0.6473
 5151TIP3   OH239647   0.306   2.354  18.072  0.1267 -0.4471 -0.2436
 5151TIP3    H139648   0.297   2.449  18.077  1.7252 -0.2138 -1.0456
 5151TIP3    H239649   0.381   2.334  18.128  0.4344 -1.0972 -0.8594
 5152TIP3   OH239650   0.260   6.462  18.065  0.1300 -0.3255 -0.3962
 5152TIP3    H139651   0.301   6.535  18.019  0.5214  0.0079  0.4611
 5152TIP3    H239652   0.247   6.395  17.997  2.2818 -0.5213 -0.6785
 5153TIP3   OH239653   2.758   1.753  18.554  0.1875  0.7668 -0.1321
 5153TIP3    H139654   2.740   1.792  18.469 -1.9792 -1.2103 -0.6841
 5153TIP3    H239655   2.675   1.759  18.601  0.9944  0.6697  1.3778
 5154TIP3   OH239656   5.512   6.732  20.394  0.4465  0.5839 -0.5003
 5154TIP3    H139657   5.462   6.792  20.449  0.3372 -0.3465  0.4625
 5154TIP3    H239658   5.450   6.707  20.325 -0.5882 -0.7476  0.8161
 5155TIP3   OH239659   6.115   1.492  19.264 -0.0208 -0.0220  0.6742
 5155TIP3    H139660   6.082   1.580  19.285 -2.0587 -0.2201 -1.2626
 5155TIP3    H239661   6.200   1.507  19.223 -0.4289  1.0707  0.1931
 5156TIP3   OH239662   3.751   6.410  20.216  0.4471  0.1283 -0.2088
 5156TIP3    H139663   3.717   6.487  20.172  3.0763  0.9140 -0.9892
 5156TIP3    H239664   3.811   6.370  20.153  0.3613 -1.6630  0.7726
 5157TIP3   OH239665   0.215   1.443  20.068 -0.5611 -0.7282  0.5740
 5157TIP3    H139666   0.238   1.442  19.975 -2.7723 -1.2478 -0.0274
 5157TIP3    H239667   0.213   1.351  20.093 -2.4638 -0.7790  0.4011
 5158TIP3   OH239668   6.715   0.655  17.852 -0.0231  0.5464  0.0098
 5158TIP3    H139669   6.750   0.744  17.866 -0.3996  1.0563 -1.9038
 5158TIP3    H239670   6.621   0.668  17.843 -0.2452 -0.2622  1.0620
 5159TIP3   OH239671   3.107   4.310  18.988  0.0356  0.0828  0.4459
 5159TIP3    H139672   3.128   4.324  19.080 -1.1561 -0.0899  0.7608
 5159TIP3    H239673   3.021   4.350  18.976  0.5485  0.8637 -0.8066
 5160TIP3   OH239674   5.762   2.425  20.075  0.1527 -0.3335  0.0461
 5160TIP3    H139675   5.762   2.461  19.986  1.0606 -0.4014  0.0111
 5160TIP3    H239676   5.827   2.355  20.073  0.6983  0.1308  0.9469
 5161TIP3   OH239677   4.853   5.478  18.654  0.1376 -0.3192  0.0584
 5161TIP3    H139678   4.914   5.426  18.601  3.2920  0.5763  2.5302
 5161TIP3    H239679   4.863   5.567  18.623  0.0642 -0.1758  0.4363
 5162TIP3   OH239680   3.913   1.254  18.985  0.2661  0.1065  0.1750
 5162TIP3    H139681   3.929   1.190  18.916  1.5649 -0.9492  1.4143
 5162TIP3    H239682   3.857   1.320  18.943  0.6416 -0.7222 -1.7430
 5163TIP3   OH239683   4.398   6.172  19.312 -0.2984  0.8627 -0.9902
 5163TIP3    H139684   4.445   6.099  19.272 -0.3315  1.4621 -2.1674
 5163TIP3    H239685   4.305   6.147  19.306 -0.2166 -0.0406  0.7732
 5164TIP3   OH239686   4.376   4.000  19.803 -0.0412  0.5866 -0.1108
 5164TIP3    H139687   4.360   3.929  19.865  1.6852  0.4476  0.2403
 5164TIP3    H239688   4.328   4.075  19.839 -0.5694  0.0169  0.3887
 5165TIP3   OH239689   6.202   3.651  19.900 -0.4259 -0.7036  0.0523
 5165TIP3    H139690   6.195   3.702  19.819  0.8928 -1.3306 -0.4981
 5165TIP3    H239691   6.117   3.609  19.910 -0.8941  0.0760 -0.5214
 5166TIP3   OH239692   1.630   2.753  18.827 -0.0102  0.1418  0.1041
 5166TIP3    H139693   1.716   2.713  18.845 -0.4408 -0.2424  1.4716
 5166TIP3    H239694   1.569   2.679  18.831 -0.6683  0.7365  1.4339
 5167TIP3   OH239695   5.654   5.002  18.191  0.4217  0.7529  0.4408
 5167TIP3    H139696   5.695   5.076  18.146 -1.4720  1.3196 -0.4782
 5167TIP3    H239697   5.623   5.039  18.274  0.5081  0.6872  0.5034
 5168TIP3   OH239698   2.222   5.079  20.163 -0.4727  0.1465  0.1343
 5168TIP3    H139699   2.144   5.129  20.140 -0.1697 -0.0366 -1.3950
 5168TIP3    H239700   2.203   4.990  20.133  1.1283  0.5438 -2.3616
 5169TIP3   OH239701   0.645   0.360  18.653 -0.2552  0.0785 -0.2277
 5169TIP3    H139702   0.568   0.385  18.704 -0.6650 -0.2950 -0.6542
 5169TIP3    H239703   0.619   0.279  18.608  0.5737 -0.3549  0.0552
 5170TIP3   OH239704   4.031   6.386  20.801 -0.1029 -0.4369  0.8927
 5170TIP3    H139705   4.031   6.474  20.838  1.4538  0.7611 -1.6633
 5170TIP3    H239706   4.118   6.351  20.820 -0.9790 -1.8429  2.6165
 5171TIP3   OH239707   0.505   6.179  19.608  0.1996 -0.1366  0.6128
 5171TIP3    H139708   0.504   6.246  19.676 -1.5446  0.7391 -0.2329
 5171TIP3    H239709   0.427   6.196  19.555  0.3810 -2.0709 -0.3755
 5172TIP3   OH239710   2.980   1.974  18.996 -0.0977  0.1016  0.1592
 5172TIP3    H139711   3.055   1.923  19.027 -0.0659  0.4408  0.6604
 5172TIP3    H239712   2.932   1.915  18.938 -0.0727 -0.4946  0.7392
 5173TIP3   OH239713   0.680   2.407  18.699 -0.3000  0.3002  0.2997
 5173TIP3    H139714   0.630   2.489  18.697 -1.4439 -0.1412  3.7385
 5173TIP3    H239715   0.767   2.434  18.729 -0.3880  0.3641  0.4994
 5174TIP3   OH239716   3.557   4.271  18.860 -0.3418  0.4262  0.2024
 5174TIP3    H139717   3.581   4.179  18.872  0.8021  0.6435 -0.2665
 5174TIP3    H239718   3.610   4.300  18.786 -0.3216  1.5914  0.6550
 5175TIP3   OH239719   6.036   4.091  19.303  0.0803 -0.3417 -0.5604
 5175TIP3    H139720   5.952   4.068  19.263 -0.8086 -2.8847  2.3727
 5175TIP3    H239721   6.100   4.033  19.261 -0.0720 -0.1302 -1.0847
 5176TIP3   OH239722   4.822   2.663  17.968 -0.2956 -0.0557  0.1471
 5176TIP3    H139723   4.857   2.576  17.950  0.3337  0.1726  0.2406
 5176TIP3    H239724   4.729   2.649  17.982 -0.3608 -0.5896 -0.7411
 5177TIP3   OH239725   5.638   2.546  19.296  0.3768 -0.2817 -0.0126
 5177TIP3    H139726   5.727   2.562  19.328 -0.0911  2.5513  0.1437
 5177TIP3    H239727   5.649   2.527  19.203  1.3912 -4.3142  0.7430
 5178TIP3   OH239728   3.082   1.207  18.013  0.2411  0.5848 -0.3256
 5178TIP3    H139729   3.035   1.257  18.080 -1.0092  1.3957 -1.7403
 5178TIP3    H239730   3.016   1.150  17.975  1.4656 -1.6475  0.6859
 5179TIP3   OH239731   2.575   1.151  19.075  0.1402 -0.5546  0.0705
 5179TIP3    H139732   2.556   1.215  19.144  0.7724  0.0395 -0.2953
 5179TIP3    H239733   2.502   1.160  19.013  0.0851 -0.3825  0.1601
 5180TIP3   OH239734   4.675   1.983  20.342  0.3885 -0.0549 -0.0776
 5180TIP3    H139735   4.603   1.920  20.350  2.1907 -2.4210 -1.3818
 5180TIP3    H239736   4.737   1.957  20.410  0.6424  1.1436  0.1825
 5181TIP3   OH239737   1.243   4.896  18.261  0.3043  0.1023  0.2894
 5181TIP3    H139738   1.169   4.898  18.201 -0.5413  0.0409  1.2888
 5181TIP3    H239739   1.227   4.820  18.317 -0.8219  2.0521  2.8284
 5182TIP3   OH239740   3.721   3.291  18.036  0.5126 -0.4541 -0.1692
 5182TIP3    H139741   3.719   3.354  17.964  1.4647 -0.1888  0.0261
 5182TIP3    H239742   3.750   3.209  17.997 -1.2381 -0.9461 -0.5279
 5183TIP3   OH239743   2.823   0.807  19.987  0.4082 -0.1656 -0.1253
 5183TIP3    H139744   2.815   0.899  20.013 -1.3148 -0.6516  1.3495
 5183TIP3    H239745   2.738   0.787  19.947  0.5509 -1.2331  0.0858
 5184TIP3   OH239746   4.917   4.463  18.106  0.1640 -0.4103 -0.6841
 5184TIP3    H139747   4.948   4.544  18.146  0.7202 -0.7914 -0.3112
 5184TIP3    H239748   4.997   4.419  18.077 -0.1367 -0.7704 -0.9752
 5185TIP3   OH239749   5.876   4.145  18.618  0.3153  0.1387 -0.0674
 5185TIP3    H139750   5.813   4.199  18.666 -0.6841  0.6156 -1.8243
 5185TIP3    H239751   5.850   4.055  18.637  0.0884  0.3126  0.4725
 5186TIP3   OH239752   2.724   5.399  17.470  0.5056 -0.2783  0.0015
 5186TIP3    H139753   2.787   5.435  17.408  3.2268 -0.1867  2.5935
 5186TIP3    H239754   2.673   5.336  17.419  1.2358  1.1887 -2.6981
 5187TIP3   OH239755   1.959   0.906  20.190 -0.0564  0.0635  0.1973
 5187TIP3    H139756   1.888   0.970  20.181  0.4675  0.7167  0.6432
 5187TIP3    H239757   1.914   0.824  20.210 -0.6431  0.7643  1.9322
 5188TIP3   OH239758   5.784   6.697  18.349  0.0942  0.3692  0.4561
 5188TIP3    H139759   5.777   6.626  18.413  2.9049 -0.3699  0.0952
 5188TIP3    H239760   5.787   6.653  18.265 -1.7693  1.2151 -0.0922
 5189TIP3   OH239761   4.319   1.433  18.490  0.0094  0.4184  0.3037
 5189TIP3    H139762   4.368   1.401  18.415  0.8411 -0.8318  1.3265
 5189TIP3    H239763   4.229   1.406  18.474  0.4249 -1.1459  0.3998
 5190TIP3   OH239764   5.809   3.618  18.674  0.0873  0.1275  0.4318
 5190TIP3    H139765   5.821   3.537  18.723  1.7063  0.8779  1.3477
 5190TIP3    H239766   5.855   3.604  18.591  1.0666  0.3736  0.9214
 5191TIP3   OH239767   3.263   1.529  18.738  0.1209  0.8100  0.0830
 5191TIP3    H139768   3.229   1.610  18.778 -0.8357 -0.1826  1.3599
 5191TIP3    H239769   3.356   1.529  18.759  0.0042  1.2617  0.6159
 5192TIP3   OH239770   0.925   4.891  19.748 -0.3679  0.3565  0.0780
 5192TIP3    H139771   0.879   4.808  19.739  0.9056 -0.3154 -0.4350
 5192TIP3    H239772   0.856   4.954  19.772 -1.6549 -0.4781 -1.2202
 5193TIP3   OH239773   5.155   1.148  20.402 -0.6152 -1.0795  0.3247
 5193TIP3    H139774   5.085   1.087  20.380 -0.1653 -0.4917 -3.4498
 5193TIP3    H239775   5.235   1.097  20.396 -0.2796 -0.4044 -2.3460
 5194TIP3   OH239776   6.737   1.183  17.803  0.0319 -0.4399 -0.1032
 5194TIP3    H139777   6.672   1.145  17.744  0.8591 -0.3401 -1.1203
 5194TIP3    H239778   6.799   1.226  17.744 -0.0172  1.1187  0.9433
 5195TIP3   OH239779   0.520   4.892  18.327  0.4815 -0.4411  0.5428
 5195TIP3    H139780   0.576   4.866  18.400  0.8992  0.4523  0.5600
 5195TIP3    H239781   0.487   4.979  18.351 -0.2541 -0.6029  0.1577
 5196TIP3   OH239782   4.374   0.252  20.520 -0.4473 -0.0412  0.1996
 5196TIP3    H139783   4.280   0.236  20.508 -0.1890 -1.3160 -0.2718
 5196TIP3    H239784   4.415   0.214  20.442  0.3309  2.1719 -0.5372
 5197TIP3   OH239785   0.286   1.987  19.284 -0.0966 -0.1930  0.3272
 5197TIP3    H139786   0.343   1.911  19.295  0.8951  0.4441 -0.2460
 5197TIP3    H239787   0.275   1.995  19.189  0.5888  0.9263  0.3214
 5198TIP3   OH239788   5.100   0.909  19.240  0.3815 -0.1794 -0.4759
 5198TIP3    H139789   5.138   0.826  19.211  0.3563 -0.4992  0.3922
 5198TIP3    H239790   5.093   0.901  19.335  1.4426  1.2681 -0.2436
 5199TIP3   OH239791   3.653   4.530  20.306 -0.2503  0.6526  0.4949
 5199TIP3    H139792   3.583   4.509  20.243 -0.1155  0.1468  0.5068
 5199TIP3    H239793   3.608   4.575  20.377 -0.8767 -1.0936  1.2757
 5200TIP3   OH239794   2.461   2.603  18.440 -0.1122 -0.1568  0.5050
 5200TIP3    H139795   2.516   2.538  18.485  0.0867  1.9953  3.7200
 5200TIP3    H239796   2.377   2.599  18.486 -0.4129  1.1592  0.1108
 5201TIP3   OH239797   2.858   5.440  20.586 -0.0855  0.0878 -0.7126
 5201TIP3    H139798   2.858   5.486  20.670  1.1882  0.6350 -0.9863
 5201TIP3    H239799   2.829   5.505  20.522 -0.8837 -0.2780 -0.7411
 5202TIP3   OH239800   4.553   4.231  19.741 -0.5697  0.3389  0.0924
 5202TIP3    H139801   4.551   4.208  19.834 -1.0562  1.9606  0.5311
 5202TIP3    H239802   4.621   4.298  19.735  0.1110 -0.4228 -0.9078
 5203TIP3   OH239803   1.218   0.373  20.229  0.1647  0.0112  0.5373
 5203TIP3    H139804   1.219   0.439  20.298 -1.3616  0.6252  0.0143
 5203TIP3    H239805   1.125   0.360  20.209  0.5467 -0.4093 -1.1440
 5204TIP3   OH239806   1.446   5.709  17.440  0.1488  0.1022 -0.1444
 5204TIP3    H139807   1.378   5.743  17.382  1.6336  0.7075 -1.6304
 5204TIP3    H239808   1.448   5.615  17.422 -0.4886  0.0343  0.1310
 5205TIP3   OH239809   0.194   0.928  17.655 -0.0963 -0.3650  0.4779
 5205TIP3    H139810   0.168   1.021  17.660 -0.9300 -0.6446  1.9314
 5205TIP3    H239811   0.238   0.911  17.738 -0.9051 -1.5380  0.6850
 5206TIP3   OH239812   3.307   5.628  20.250 -0.1752 -0.4387  0.1967
 5206TIP3    H139813   3.381   5.582  20.291  1.7927 -1.0217 -3.6088
 5206TIP3    H239814   3.229   5.581  20.282  1.3292 -2.2622  1.3925
 5207TIP3   OH239815   0.246   0.002  19.451  0.4735 -0.4143  0.6624
 5207TIP3    H139816   0.300  -0.059  19.501  0.3538 -0.9588  0.1437
 5207TIP3    H239817   0.301   0.027  19.376 -0.2120 -1.5049 -0.2420
 5208TIP3   OH239818   0.120   5.582  20.471  0.3702  0.4021  0.4129
 5208TIP3    H139819   0.108   5.669  20.435  1.8738  0.0515 -1.0861
 5208TIP3    H239820   0.078   5.524  20.407  0.8791 -0.0587  0.4851
 5209TIP3   OH239821   3.404   3.696  20.426 -0.2879  0.2545 -0.1797
 5209TIP3    H139822   3.322   3.722  20.470 -0.1660 -0.8729  0.7700
 5209TIP3    H239823   3.385   3.707  20.333 -1.2877  0.6817  0.0518
 5210TIP3   OH239824   0.567   2.494  19.693  0.7291 -0.1865  0.0686
 5210TIP3    H139825   0.504   2.495  19.621  0.9565 -1.7604 -0.1888
 5210TIP3    H239826   0.598   2.584  19.699 -1.5938  0.6772  0.2666
 5211TIP3   OH239827   3.190   4.990  17.620  0.1476 -0.5729 -0.2900
 5211TIP3    H139828   3.269   4.950  17.586  0.0599  0.4224 -1.7168
 5211TIP3    H239829   3.120   4.928  17.599  0.3084 -0.6606 -0.5577
 5212TIP3   OH239830   4.401   1.672  20.842 -0.1597  0.6414 -0.1750
 5212TIP3    H139831   4.375   1.607  20.907 -0.5845  0.6347 -0.3498
 5212TIP3    H239832   4.424   1.621  20.764  1.4753  0.5733  0.3269
 5213TIP3   OH239833   6.370   3.840  20.029  0.1876  0.2422  0.0593
 5213TIP3    H139834   6.317   3.776  19.982  1.3421 -0.6657 -0.0627
 5213TIP3    H239835   6.336   3.839  20.118 -0.9667  0.7906 -0.3541
 5214TIP3   OH239836   0.798   5.670  18.680 -0.0144  0.0722  0.0276
 5214TIP3    H139837   0.879   5.686  18.632 -1.2671 -4.0055 -4.2775
 5214TIP3    H239838   0.759   5.757  18.692  1.9741  1.7314 -3.8360
 5215TIP3   OH239839   2.350   0.736  17.201 -0.2351 -0.5125  0.0664
 5215TIP3    H139840   2.311   0.657  17.238  1.4836 -1.2818  0.2999
 5215TIP3    H239841   2.348   0.722  17.107 -0.7812 -0.4142  0.0610
 5216TIP3   OH239842   0.301   0.136  18.763  0.6370 -0.0227 -0.3439
 5216TIP3    H139843   0.318   0.230  18.760  2.2162 -0.2964 -1.1707
 5216TIP3    H239844   0.371   0.097  18.709  0.0543 -1.6680  0.0225
 5217TIP3   OH239845   1.140   3.793  20.049  0.1603 -0.5131  0.1348
 5217TIP3    H139846   1.180   3.721  20.099  2.1285 -0.5383 -1.3689
 5217TIP3    H239847   1.119   3.754  19.964  0.6900  0.5290 -0.4875
 5218TIP3   OH239848   2.358   5.985  18.991  0.6028 -0.3242  0.6268
 5218TIP3    H139849   2.434   6.009  18.937 -0.2532 -1.1612 -1.0211
 5218TIP3    H239850   2.313   6.068  19.007 -0.3237 -0.2482 -1.8872
 5219TIP3   OH239851   2.926   6.507  20.124  0.0192 -0.1061 -0.4658
 5219TIP3    H139852   2.885   6.457  20.194  0.7075 -0.4600 -0.2955
 5219TIP3    H239853   2.993   6.448  20.089  0.5306  0.5275 -0.5825
 5220TIP3   OH239854   2.337   0.961  17.682 -0.1364  0.1934  0.2791
 5220TIP3    H139855   2.263   1.021  17.671 -1.2617 -1.1492  0.2270
 5220TIP3    H239856   2.298   0.881  17.719  1.7291  0.4346  3.0606
 5221TIP3   OH239857   0.111   1.221  18.058  0.5214  0.2645  0.1867
 5221TIP3    H139858   0.075   1.207  17.970 -0.0089  0.1573  0.4137
 5221TIP3    H239859   0.158   1.304  18.051  1.5204 -0.3452 -0.5058
 5222TIP3   OH239860   0.037   5.150  18.450  0.3692 -0.6865  0.2668
 5222TIP3    H139861   0.115   5.096  18.450  0.5440 -0.4550 -0.8898
 5222TIP3    H239862   0.021   5.170  18.358 -1.2026 -0.9372  0.4631
 5223TIP3   OH239863   4.301   3.695  21.134  0.3021  0.1833  0.2935
 5223TIP3    H139864   4.327   3.676  21.224 -0.3871 -0.8838  0.2862
 5223TIP3    H239865   4.213   3.658  21.126  0.7061 -0.5580 -1.0766
 5224TIP3   OH239866   4.241   3.656  18.876 -0.2081 -0.2439  0.3514
 5224TIP3    H139867   4.297   3.599  18.929 -1.4921 -0.9073  1.0614
 5224TIP3    H239868   4.284   3.660  18.791  0.3026 -1.7017  0.5079
 5225TIP3   OH239869   1.243   1.763  20.621  0.1395 -0.4584  0.2347
 5225TIP3    H139870   1.216   1.850  20.653 -0.8822  0.2602 -2.2788
 5225TIP3    H239871   1.339   1.766  20.620  0.1656 -0.0543  1.8611
 5226TIP3   OH239872   5.564   4.322  18.216  0.0071  0.6187  0.9103
 5226TIP3    H139873   5.605   4.380  18.280  2.0596  1.0806 -0.6810
 5226TIP3    H239874   5.592   4.234  18.240 -0.6431  0.5935  1.6040
 5227TIP3   OH239875   4.841   0.304  18.816 -0.4736  0.3624  0.1327
 5227TIP3    H139876   4.868   0.233  18.874  2.3115 -0.0439 -1.4840
 5227TIP3    H239877   4.774   0.352  18.865 -1.4950 -2.5379  1.8223
 5228TIP3   OH239878   1.311   3.953  19.594  0.5685 -0.0901  0.3414
 5228TIP3    H139879   1.220   3.964  19.622  0.2560 -1.4689 -0.0530
 5228TIP3    H239880   1.344   4.042  19.585  0.0747  0.4523  3.0687
 5229TIP3   OH239881   4.700   1.548  18.922  0.2837  0.2553  0.1114
 5229TIP3    H139882   4.726   1.562  18.830  0.2836  0.0189  0.0744
 5229TIP3    H239883   4.760   1.603  18.972  0.6432 -0.0348  0.0032
 5230TIP3   OH239884   4.023   1.000  20.641 -0.0375  0.3717 -0.7239
 5230TIP3    H139885   4.028   0.909  20.669 -0.4620  0.5890  0.0933
 5230TIP3    H239886   3.933   1.027  20.662  0.5044  1.3940  0.4053
 5231TIP3   OH239887   1.158   1.674  19.751  0.1554  0.3527 -0.0016
 5231TIP3    H139888   1.247   1.640  19.755 -0.6509 -1.9787 -0.0955
 5231TIP3    H239889   1.149   1.727  19.830  1.1994 -0.5692  0.7649
 5232TIP3   OH239890   2.994   1.682  20.374  0.4154  0.0215  0.2142
 5232TIP3    H139891   2.998   1.769  20.415  0.7822 -0.1570  0.5697
 5232TIP3    H239892   2.944   1.695  20.294  1.7911  0.8863 -0.5389
 5233TIP3   OH239893   1.093   6.191  20.946  0.0496 -0.7290 -0.0112
 5233TIP3    H139894   1.022   6.142  20.904 -0.9007 -0.1271  0.8518
 5233TIP3    H239895   1.061   6.281  20.951  1.4238 -0.1605 -0.7959
 5234TIP3   OH239896   2.964   1.032  18.346  0.1887 -0.6016 -0.3469
 5234TIP3    H139897   3.051   1.071  18.351 -1.1937  2.7816  1.9256
 5234TIP3    H239898   2.938   1.021  18.437 -1.1574 -3.1888 -0.9683
 5235TIP3   OH239899   4.365   3.777  19.984 -0.2181  0.1304  0.1058
 5235TIP3    H139900   4.398   3.760  20.072  1.5058 -0.5893 -0.6320
 5235TIP3    H239901   4.422   3.726  19.927 -1.2873  0.5928 -1.4379
 5236TIP3   OH239902   5.652   6.469  20.484 -0.5585 -0.6054 -0.0049
 5236TIP3    H139903   5.583   6.415  20.522 -2.0400 -0.0708 -1.7620
 5236TIP3    H239904   5.610   6.554  20.469  0.9346  0.2103  0.2612
 5237TIP3   OH239905   4.272   0.893  18.767 -0.3439 -0.1780 -0.1724
 5237TIP3    H139906   4.230   0.960  18.713 -0.9115 -0.1503  0.2910
 5237TIP3    H239907   4.353   0.934  18.797 -0.1343 -0.1106 -0.8037
 5238TIP3   OH239908   4.738   1.952  20.605  0.2966 -0.8185 -0.1628
 5238TIP3    H139909   4.699   1.937  20.692 -0.6437  2.2542  0.0745
 5238TIP3    H239910   4.712   2.041  20.583  2.0383 -0.8783 -2.8573
 5239TIP3   OH239911   5.751   6.545  19.759  0.1333 -0.2683  0.2715
 5239TIP3    H139912   5.782   6.636  19.763  1.4278 -0.6832  0.3405
 5239TIP3    H239913   5.808   6.498  19.820 -0.2183 -1.2149 -0.1081
 5240TIP3   OH239914   0.999   2.842  18.139  0.0175 -0.4892  0.1498
 5240TIP3    H139915   0.961   2.877  18.220 -0.4500  0.4015 -0.4362
 5240TIP3    H239916   1.079   2.798  18.168 -0.7410 -1.2195  1.2431
 5241TIP3   OH239917   4.317   1.319  20.489 -0.2758 -0.2443 -0.3492
 5241TIP3    H139918   4.229   1.302  20.456  0.0908 -3.7348  0.0997
 5241TIP3    H239919   4.375   1.288  20.420  0.5170 -1.8391  0.9672
 5242TIP3   OH239920   2.736   2.550  18.776 -0.0412  0.3921  0.5414
 5242TIP3    H139921   2.675   2.560  18.849 -0.1591  1.7214  0.2838
 5242TIP3    H239922   2.708   2.470  18.732 -1.2227  0.6552  0.7824
 5243TIP3   OH239923   5.515   3.135  20.161 -0.0319 -0.3711  0.5106
 5243TIP3    H139924   5.563   3.207  20.202 -0.7954  0.6045 -0.2734
 5243TIP3    H239925   5.429   3.136  20.204 -1.0694  1.0652 -1.4753
 5244TIP3   OH239926   2.446   3.961  20.675  0.7695  0.0914 -0.3776
 5244TIP3    H139927   2.384   3.892  20.700  1.2286 -0.5366 -0.9275
 5244TIP3    H239928   2.399   4.012  20.609  0.8630 -0.4551 -0.8822
 5245TIP3   OH239929   5.730   0.418  17.846  0.0714 -0.6053 -0.0694
 5245TIP3    H139930   5.691   0.344  17.892  0.0503 -0.3115  0.3888
 5245TIP3    H239931   5.823   0.415  17.870 -0.0630 -0.0563  0.5313
 5246TIP3   OH239932   4.947   1.458  19.716  0.4043  0.4851 -0.3571
 5246TIP3    H139933   4.948   1.389  19.650  0.1056  0.5227 -0.4018
 5246TIP3    H239934   5.026   1.443  19.767 -1.1027 -1.6997  1.5143
 5247TIP3   OH239935   4.024   0.264  20.807  0.1059 -1.1326  0.1302
 5247TIP3    H139936   3.936   0.300  20.793  0.5484  0.5200  1.3543
 5247TIP3    H239937   4.016   0.213  20.887  0.3618 -0.5467  0.5360
 5248TIP3   OH239938   0.542   1.718  18.576 -0.7944  0.3292  0.5568
 5248TIP3    H139939   0.462   1.690  18.619 -1.3099 -0.5190 -0.8918
 5248TIP3    H239940   0.584   1.637  18.548 -1.0081  0.8691 -1.4445
 5249TIP3   OH239941   6.488   5.974  20.142  0.0189 -1.0125 -0.1264
 5249TIP3    H139942   6.505   6.039  20.209  0.3172 -0.5083 -0.6852
 5249TIP3    H239943   6.392   5.972  20.135  0.0330  0.1237 -0.8302
 5250TIP3   OH239944   0.682   1.738  19.480 -0.5549  0.0264 -0.1075
 5250TIP3    H139945   0.748   1.704  19.541 -1.3054 -0.1501  0.6231
 5250TIP3    H239946   0.704   1.831  19.470 -0.6230  0.1398  0.7146
 5251TIP3   OH239947   1.475   3.196  20.218  0.3450 -0.3579 -0.0819
 5251TIP3    H139948   1.440   3.279  20.248  0.0559 -0.3133 -0.5268
 5251TIP3    H239949   1.532   3.219  20.144  0.5106 -0.5249 -0.0084
 5252TIP3   OH239950   1.805   6.653  19.214 -0.0195  0.4163 -0.0252
 5252TIP3    H139951   1.764   6.652  19.128  1.2106 -0.4617 -0.6279
 5252TIP3    H239952   1.825   6.561  19.231  0.4503  0.6733  0.8607
 5253TIP3   OH239953   1.358   5.408  18.142 -0.5195  0.3721 -0.6033
 5253TIP3    H139954   1.345   5.315  18.158 -0.6872  0.7547  1.9575
 5253TIP3    H239955   1.273   5.441  18.114 -0.5338 -0.1578 -1.2036
 5254TIP3   OH239956   0.014   4.859  19.279  0.0282  0.1286  0.1669
 5254TIP3    H139957   0.101   4.899  19.290 -0.5262  1.1129  1.1391
 5254TIP3    H239958  -0.009   4.827  19.367 -1.3839  1.5596  0.3483
 5255TIP3   OH239959   4.936   6.103  18.468 -0.4335 -0.1252  0.3828
 5255TIP3    H139960   4.971   6.185  18.505  1.2929 -1.6087  2.2958
 5255TIP3    H239961   5.012   6.061  18.429 -1.3888 -0.6589 -0.9603
 5256TIP3   OH239962   4.348   0.402  19.582  0.5559  0.6647 -0.8655
 5256TIP3    H139963   4.403   0.415  19.659  1.1552 -0.8316 -1.0247
 5256TIP3    H239964   4.340   0.490  19.544  1.9485  1.0865 -0.2433
 5257TIP3   OH239965   3.034   5.230  20.602  0.0437  0.3073  0.3947
 5257TIP3    H139966   3.083   5.227  20.684 -0.3366 -1.0871  0.5919
 5257TIP3    H239967   2.965   5.295  20.617  0.0185  0.1073  1.1604
 5258TIP3   OH239968   4.896   2.564  20.710 -0.3379  0.8940  0.6824
 5258TIP3    H139969   4.945   2.515  20.644 -3.8221 -0.0869 -1.4458
 5258TIP3    H239970   4.874   2.647  20.668  0.0092  1.6023  1.8398
 5259TIP3   OH239971   0.973   0.256  17.959 -0.7039 -0.1667  0.2955
 5259TIP3    H139972   0.991   0.221  17.872 -1.2704  0.5210 -0.1004
 5259TIP3    H239973   0.902   0.318  17.946 -1.5827 -0.8942  1.4188
 5260TIP3   OH239974   4.400   2.615  18.200 -0.1980 -0.3686 -0.0084
 5260TIP3    H139975   4.313   2.599  18.237  0.2357 -3.0482  0.0993
 5260TIP3    H239976   4.457   2.619  18.277 -0.3323  2.9971  0.0349
 5261TIP3   OH239977   0.519   3.373  19.869  0.4426  0.5029 -0.0648
 5261TIP3    H139978   0.572   3.306  19.825 -0.3670  0.3953 -0.8987
 5261TIP3    H239979   0.477   3.421  19.798 -0.0245  1.0439  0.5673
 5262TIP3   OH239980   2.065   1.720  18.099 -0.1052 -0.2341  0.2221
 5262TIP3    H139981   2.044   1.774  18.023 -1.2330  2.0628  2.0243
 5262TIP3    H239982   2.160   1.717  18.101 -0.0419 -0.9044 -1.5752
 5263TIP3   OH239983   0.769   6.542  20.429 -0.1942  0.1127 -0.4149
 5263TIP3    H139984   0.777   6.636  20.446  1.7530  0.0250 -0.6676
 5263TIP3    H239985   0.678   6.531  20.400 -0.9931  1.6184  1.3253
 5264TIP3   OH239986   5.553   5.338  19.738  0.1487 -0.1449 -0.3226
 5264TIP3    H139987   5.596   5.279  19.676  3.0858 -0.1465  1.5156
 5264TIP3    H239988   5.564   5.296  19.823 -0.6137  1.5220  0.6561
 5265TIP3   OH239989   2.220   3.030  19.184  0.2134 -0.4593 -0.2410
 5265TIP3    H139990   2.240   2.948  19.230 -0.0833 -0.4155 -0.0309
 5265TIP3    H239991   2.304   3.058  19.147  0.0345 -1.7333 -1.7425
 5266TIP3   OH239992   6.665   5.785  19.151  0.2852 -0.2317 -0.8935
 5266TIP3    H139993   6.699   5.763  19.065 -0.2349  0.6686 -1.3350
 5266TIP3    H239994   6.697   5.873  19.169 -2.7307  1.1783 -1.8644
 5267TIP3   OH239995   5.272   4.692  19.649 -0.3028 -0.0433 -0.0127
 5267TIP3    H139996   5.224   4.722  19.572 -1.3252  0.5938  0.8395
 5267TIP3    H239997   5.222   4.727  19.723  1.2789  0.3132  0.9184
 5268TIP3   OH239998   6.606   4.013  18.343 -0.2387 -0.3110  0.2069
 5268TIP3    H139999   6.541   4.054  18.400  0.2018  0.4503  0.1774
 5268TIP3    H240000   6.663   3.965  18.403  0.4101  0.7438  0.4551
 5269TIP3   OH240001   6.409   5.327  17.925  0.0550  0.1212 -0.4941
 5269TIP3    H140002   6.382   5.353  17.837 -0.6963  0.6705 -0.1133
 5269TIP3    H240003   6.330   5.289  17.963  0.1723  0.5437  0.1834
 5270TIP3   OH240004   6.221   2.471  18.281 -0.2031  0.4974  0.4886
 5270TIP3    H140005   6.231   2.566  18.274 -0.2089  0.4168 -0.9505
 5270TIP3    H240006   6.311   2.438  18.283 -0.1739  0.5689  2.2423
 5271TIP3   OH240007   6.111   0.406  18.258 -0.3069 -0.0247  0.0296
 5271TIP3    H140008   6.171   0.339  18.226 -0.6963 -0.5146  0.3203
 5271TIP3    H240009   6.105   0.390  18.352 -0.0281  0.7191  0.1858
 5272TIP3   OH240010   4.348   5.178  18.642 -0.0524 -0.1821  0.0103
 5272TIP3    H140011   4.306   5.129  18.713 -2.9122 -0.2873 -1.5937
 5272TIP3    H240012   4.310   5.266  18.648  2.1258  0.7968  0.5031
 5273TIP3   OH240013   0.229   0.527  20.071  0.2988 -0.1615  0.9213
 5273TIP3    H140014   0.248   0.611  20.029  0.9498 -0.8490 -0.2041
 5273TIP3    H240015   0.239   0.462  20.001 -3.0630 -0.9467  1.0042
 5274TIP3   OH240016   6.157   6.319  18.178  0.2212  0.1055  0.0023
 5274TIP3    H140017   6.140   6.226  18.163  0.3438  0.0794  0.0223
 5274TIP3    H240018   6.071   6.361  18.174  0.0775 -0.1112  0.7773
 5275TIP3   OH240019   1.488   4.813  19.216  0.2207  0.2629 -0.2464
 5275TIP3    H140020   1.575   4.797  19.179  0.2278  0.9492 -0.5384
 5275TIP3    H240021   1.502   4.881  19.283 -0.1753  0.7993 -0.7004
 5276TIP3   OH240022   1.123   4.489  18.933 -0.2896  0.6856 -0.0428
 5276TIP3    H140023   1.190   4.421  18.922 -1.6895 -0.8588  0.6680
 5276TIP3    H240024   1.156   4.543  19.004 -0.1996 -0.6141  0.9433
 5277TIP3   OH240025   5.018   4.646  20.438 -0.0566  0.0313  0.2447
 5277TIP3    H140026   5.084   4.581  20.461  1.0881  0.8946 -0.5110
 5277TIP3    H240027   4.934   4.604  20.460  0.7068 -1.2503  0.7992
 5278TIP3   OH240028   3.012   0.999  20.379  0.0372  0.1917 -0.2797
 5278TIP3    H140029   3.059   0.997  20.462 -0.5966  2.2959  0.1786
 5278TIP3    H240030   2.924   1.026  20.402  0.1786  2.0865 -1.7486
 5279TIP3   OH240031   0.770   3.869  18.549  0.2586 -0.0722 -0.1374
 5279TIP3    H140032   0.753   3.816  18.471  2.6559  1.4752 -1.8240
 5279TIP3    H240033   0.816   3.810  18.609  0.3153 -0.6920 -0.7797
 5280TIP3   OH240034   2.000   4.281  19.681 -0.1980 -0.5157 -0.3769
 5280TIP3    H140035   1.909   4.307  19.692  0.5927  2.2307  0.5432
 5280TIP3    H240036   2.032   4.264  19.770  0.3498 -0.7613 -0.6136
 5281TIP3   OH240037   0.580   0.328  18.371 -0.3791 -0.1829  0.0773
 5281TIP3    H140038   0.619   0.343  18.285  0.0922  1.5814  0.5660
 5281TIP3    H240039   0.627   0.252  18.407  0.7599  0.2707 -0.4262
 5282TIP3   OH240040   3.392   3.153  20.188  0.4731 -0.2702  0.0803
 5282TIP3    H140041   3.373   3.154  20.095 -1.8040  1.7032  0.4807
 5282TIP3    H240042   3.408   3.244  20.211 -0.9643 -0.4307  1.9578
 5283TIP3   OH240043   5.821   1.205  19.091 -0.2560  0.2432 -0.4036
 5283TIP3    H140044   5.863   1.285  19.059 -0.2104  0.2344 -0.3673
 5283TIP3    H240045   5.813   1.149  19.014  1.3808 -0.4585 -0.1060
 5284TIP3   OH240046   6.090   5.748  18.217 -0.1668  0.1523  0.0707
 5284TIP3    H140047   6.094   5.785  18.305  0.0081  0.8906 -0.2467
 5284TIP3    H240048   6.046   5.815  18.165  0.1102 -0.1065 -0.4992
 5285TIP3   OH240049   2.205   3.931  19.303  0.3847 -0.1388 -0.1537
 5285TIP3    H140050   2.159   3.867  19.358  3.3431 -0.9411  1.5791
 5285TIP3    H240051   2.270   3.879  19.256  0.9453  1.2346 -0.9266
 5286TIP3   OH240052   5.883   1.006  19.454  0.8282 -0.5346  0.2865
 5286TIP3    H140053   5.844   0.960  19.380 -2.6591  0.8655  1.0236
 5286TIP3    H240054   5.923   1.084  19.416  0.5929 -0.6907 -0.2967
 5287TIP3   OH240055   0.113   1.797  18.565  0.6079  0.1562 -0.4454
 5287TIP3    H140056   0.119   1.723  18.505  1.7901 -0.8357  0.8261
 5287TIP3    H240057   0.130   1.759  18.652  1.5419  1.9678  0.2137
 5288TIP3   OH240058   6.079   3.722  18.204 -0.4665  0.1409 -0.0208
 5288TIP3    H140059   6.159   3.773  18.195 -1.1554  1.0068 -1.7373
 5288TIP3    H240060   6.049   3.708  18.114  0.8926 -5.4219  0.0839
 5289TIP3   OH240061   1.093   5.207  17.926 -0.2359  0.1357 -0.2620
 5289TIP3    H140062   1.003   5.180  17.941 -0.0883 -1.8975 -2.3045
 5289TIP3    H240063   1.133   5.208  18.013 -1.6700 -1.2068  0.4635
 5290TIP3   OH240064   6.305   5.204  18.846  0.2976  0.4427 -0.3828
 5290TIP3    H140065   6.221   5.196  18.800  0.5518  1.3620 -1.0361
 5290TIP3    H240066   6.284   5.252  18.926 -0.0739 -0.7955  0.2898
 5291TIP3   OH240067   4.575   5.402  18.697 -0.1918  0.1310  0.0155
 5291TIP3    H140068   4.668   5.421  18.708 -0.7532  2.0067  2.3907
 5291TIP3    H240069   4.560   5.322  18.747 -0.0014  0.4209  0.5520
 5292TIP3   OH240070   0.772   0.638  20.678 -0.2360  0.1482  0.6792
 5292TIP3    H140071   0.732   0.723  20.697  1.7953  1.4932 -0.7155
 5292TIP3    H240072   0.849   0.634  20.736  1.0520  0.3839 -0.9546
 5293TIP3   OH240073   1.906   6.018  16.675 -0.0365  0.3877  0.0747
 5293TIP3    H140074   1.959   6.087  16.714 -0.8541  1.5704 -0.8293
 5293TIP3    H240075   1.851   6.063  16.611  1.7751 -1.5533 -3.0524
 5294TIP3   OH240076   3.229   4.128  19.845  0.1889  0.6552  0.2452
 5294TIP3    H140077   3.177   4.053  19.871 -0.9833  0.1605 -3.0332
 5294TIP3    H240078   3.167   4.187  19.802  1.7537  1.5767 -0.8805
 5295TIP3   OH240079   5.959   1.957  18.895  0.2934 -0.3005 -0.3286
 5295TIP3    H140080   5.948   1.970  18.990 -1.7218 -1.2568 -0.3804
 5295TIP3    H240081   6.051   1.934  18.885  0.4013 -0.8333  1.4839
 5296TIP3   OH240082   2.948   5.396  17.953  0.4467  0.7295 -0.1773
 5296TIP3    H140083   3.003   5.394  17.874 -3.1183 -0.1352 -2.9049
 5296TIP3    H240084   2.908   5.482  17.952 -0.8571  0.1436 -0.3067
 5297TIP3   OH240085   4.996   5.416  20.275  0.3969 -0.1232 -0.2196
 5297TIP3    H140086   4.999   5.321  20.264 -1.0021 -0.1569 -0.4864
 5297TIP3    H240087   5.032   5.451  20.194  0.5800 -0.4301 -0.2723
 5298TIP3   OH240088   5.337   5.980  20.624  0.4404 -0.0920  0.4255
 5298TIP3    H140089   5.431   5.980  20.639  0.4572  1.6475  0.4737
 5298TIP3    H240090   5.299   5.964  20.711  0.6759  1.0584  0.7539
 5299TIP3   OH240091   1.419   6.635  20.611  0.0310  0.5417  0.0342
 5299TIP3    H140092   1.333   6.653  20.574  0.4463  1.3992 -0.5384
 5299TIP3    H240093   1.453   6.721  20.635  0.6373  0.1870  0.4691
 5300TIP3   OH240094   3.858   6.682  20.769 -0.6573  0.2669  0.1894
 5300TIP3    H140095   3.776   6.723  20.744 -0.4216 -0.1416 -1.3574
 5300TIP3    H240096   3.904   6.749  20.821 -2.6959 -0.1505  2.7495
 5301TIP3   OH240097   1.383   4.553  18.306 -0.3616 -0.2730 -0.7991
 5301TIP3    H140098   1.368   4.460  18.293  0.7120 -0.8689  1.5453
 5301TIP3    H240099   1.296   4.592  18.310 -0.8218 -1.2123 -1.6033
 5302TIP3   OH240100   4.319   6.655  18.082 -0.1209 -0.5962  0.4206
 5302TIP3    H140101   4.343   6.735  18.127  0.1975  0.6563 -1.8184
 5302TIP3    H240102   4.366   6.586  18.129 -0.4177  0.4828  2.4113
 5303TIP3   OH240103   3.164   0.548  18.138  0.5418 -0.0769 -0.1454
 5303TIP3    H140104   3.102   0.595  18.082 -0.8609 -1.8332 -0.1742
 5303TIP3    H240105   3.226   0.508  18.077 -0.4039 -1.1805 -0.4183
 5304TIP3   OH240106   3.182   1.417  19.061 -0.6874 -0.0333 -0.2278
 5304TIP3    H140107   3.139   1.498  19.088 -0.5248  0.3276 -0.9890
 5304TIP3    H240108   3.240   1.395  19.134  3.6560  3.6996 -2.0052
 5305TIP3   OH240109   3.895   1.750  17.262 -0.4359  0.3452 -0.0618
 5305TIP3    H140110   3.801   1.739  17.247 -0.3312 -0.6585 -0.0541
 5305TIP3    H240111   3.926   1.662  17.281  0.4862  0.6974  0.0860
 5306TIP3   OH240112   1.316   1.058  20.218 -0.2149 -0.3610 -0.1549
 5306TIP3    H140113   1.308   1.035  20.311  0.4769 -0.3014 -0.0753
 5306TIP3    H240114   1.410   1.056  20.201  0.0111  2.8931  0.0111
 5307TIP3   OH240115   5.296   0.913  19.539 -0.1387  0.7403 -0.6117
 5307TIP3    H140116   5.280   0.990  19.593  0.0961  1.1391 -1.1026
 5307TIP3    H240117   5.209   0.874  19.526 -0.3963  1.4712 -1.1590
 5308TIP3   OH240118   2.475   4.794  20.807  0.0051  0.5621 -0.7239
 5308TIP3    H140119   2.459   4.721  20.748 -0.3706  0.4666 -0.5092
 5308TIP3    H240120   2.515   4.861  20.752  2.4809 -0.6065 -0.4671
 5309TIP3   OH240121   5.753   4.906  19.640 -0.0276 -0.6210 -0.7635
 5309TIP3    H140122   5.772   4.999  19.628 -0.1929 -0.3532  0.8025
 5309TIP3    H240123   5.668   4.904  19.682  0.5965 -1.3955  0.5349
 5310TIP3   OH240124   4.860   5.484  18.947 -0.4817  0.1946 -0.6187
 5310TIP3    H140125   4.860   5.404  18.999 -0.2108  0.0589 -0.8227
 5310TIP3    H240126   4.854   5.453  18.856 -1.7898  0.4527 -0.6369
 5311TIP3   OH240127   2.040   0.359  18.266 -0.2684  0.2464 -0.0315
 5311TIP3    H140128   2.124   0.359  18.311  1.1512  1.8520 -2.4361
 5311TIP3    H240129   1.993   0.433  18.303  0.3320  0.7284 -0.2061
 5312TIP3   OH240130   1.979   6.127  17.659  0.1458  0.5150 -0.2966
 5312TIP3    H140131   1.924   6.168  17.592 -1.1671  0.6764  0.8506
 5312TIP3    H240132   2.018   6.200  17.706 -1.3554  0.4852  1.0623
 5313TIP3   OH240133   2.827   0.629  17.494 -0.2138  0.1777  0.1245
 5313TIP3    H140134   2.916   0.599  17.514 -0.2046  0.6421  0.8413
 5313TIP3    H240135   2.840   0.700  17.431 -0.1411 -0.3962 -0.5054
 5314TIP3   OH240136   3.825   6.704  18.785  0.0507  0.1629  0.2029
 5314TIP3    H140137   3.742   6.660  18.801  0.3020 -0.1489  0.6614
 5314TIP3    H240138   3.891   6.646  18.824  0.3577  1.1033  1.1314
 5315TIP3   OH240139   3.133   0.720  20.446  0.6757  0.2524 -0.7235
 5315TIP3    H140140   3.062   0.751  20.391 -1.1611 -0.8702  0.8758
 5315TIP3    H240141   3.155   0.634  20.410 -1.2572 -0.9608  0.7941
 5316TIP3   OH240142   0.891   3.455  18.213  0.0524  0.1615 -0.8450
 5316TIP3    H140143   0.931   3.385  18.162  1.5143  0.5114 -0.2403
 5316TIP3    H240144   0.958   3.523  18.217 -1.1586  1.4014 -1.0077
 5317TIP3   OH240145   4.388   5.814  16.852  0.1844  1.0320  0.3668
 5317TIP3    H140146   4.441   5.738  16.827 -0.4989  0.5224  0.4292
 5317TIP3    H240147   4.447   5.869  16.903  0.5977  0.3830  0.6018
 5318TIP3   OH240148   6.632   3.254  18.600  0.5080  0.1603 -0.1133
 5318TIP3    H140149   6.665   3.165  18.615 -0.0477 -0.0403 -0.0581
 5318TIP3    H240150   6.550   3.241  18.553 -1.2925  0.4579  2.7285
 5319TIP3   OH240151   1.823   4.460  18.620  0.0662  0.3183 -0.6454
 5319TIP3    H140152   1.778   4.472  18.537 -2.3715 -2.3117  0.1322
 5319TIP3    H240153   1.771   4.510  18.683  0.2826  0.0490 -0.2485
 5320TIP3   OH240154   3.535   4.742  20.438  0.0924 -0.3231 -0.3345
 5320TIP3    H140155   3.543   4.826  20.391  0.5375 -0.3615 -0.3395
 5320TIP3    H240156   3.443   4.737  20.463  0.4625  1.2769  1.6776
 5321TIP3   OH240157   2.743   6.056  17.868  0.4657  0.2745 -0.0456
 5321TIP3    H140158   2.729   6.098  17.783  0.8427 -1.9578 -1.2645
 5321TIP3    H240159   2.823   6.096  17.901  1.9513 -0.8491 -2.1062
 5322TIP3   OH240160   2.351   5.358  18.081 -0.2020 -0.1127  0.0693
 5322TIP3    H140161   2.278   5.416  18.101  1.0640  1.0335  1.7166
 5322TIP3    H240162   2.353   5.296  18.154 -0.4605 -1.1234 -0.7698
 5323TIP3   OH240163   5.030   0.851  19.535  0.3904 -0.5850  0.1186
 5323TIP3    H140164   4.957   0.883  19.587  1.5033  0.1845  1.2799
 5323TIP3    H240165   5.000   0.767  19.500 -0.7136 -0.7089  1.2986
 5324TIP3   OH240166   3.678   5.200  20.426 -0.2980  0.1604  0.3792
 5324TIP3    H140167   3.709   5.262  20.360 -0.5000 -0.2038 -0.0609
 5324TIP3    H240168   3.756   5.180  20.479 -0.0513  0.1702  0.0208
 5325TIP3   OH240169   1.774   4.707  18.219  0.3626  0.0699  0.3825
 5325TIP3    H140170   1.828   4.781  18.247  0.2427  0.7069 -0.9616
 5325TIP3    H240171   1.775   4.712  18.123 -0.4031 -1.1336  0.2868
 5326TIP3   OH240172   6.403   2.242  19.071  0.1366 -0.0963 -0.4593
 5326TIP3    H140173   6.450   2.277  19.147 -1.1233 -0.0369  0.3348
 5326TIP3    H240174   6.470   2.227  19.005  1.0891  1.0882  0.2153
 5327TIP3   OH240175   1.909   0.840  16.914 -0.5351  0.0674  0.4738
 5327TIP3    H140176   1.833   0.832  16.856 -2.6178  0.9620  2.8553
 5327TIP3    H240177   1.890   0.780  16.986  1.4430 -0.2638  0.7743
 5328TIP3   OH240178   6.625   3.572  17.659 -0.2092 -0.0434  0.3590
 5328TIP3    H140179   6.706   3.576  17.711 -0.5531  0.2720  0.8799
 5328TIP3    H240180   6.588   3.486  17.679  0.1943 -0.3425 -0.1807
 5329TIP3   OH240181   2.471   3.520  18.253 -0.4208 -0.4511  0.0618
 5329TIP3    H140182   2.495   3.536  18.344 -1.6730 -0.9263  0.4920
 5329TIP3    H240183   2.552   3.534  18.204  0.4747 -1.0213  1.3359
 5330TIP3   OH240184   0.186   2.102  20.039  0.3896  0.2131 -0.4093
 5330TIP3    H140185   0.236   2.021  20.030  0.5312  0.4275 -1.8141
 5330TIP3    H240186   0.227   2.148  20.113  0.5231 -0.8254  0.1767
 5331TIP3   OH240187   4.009   4.608  19.028 -0.0525  0.2603  0.0933
 5331TIP3    H140188   4.012   4.687  18.974  1.3603 -1.3023 -2.3115
 5331TIP3    H240189   3.935   4.558  18.994 -1.8556  1.0591  2.5562
 5332TIP3   OH240190   6.708   1.799  20.280  0.5651 -0.2069  0.0624
 5332TIP3    H140191   6.622   1.790  20.321  0.3968 -1.0614 -0.4489
 5332TIP3    H240192   6.689   1.840  20.195  0.6731 -0.2874 -0.0009
 5333TIP3   OH240193   5.309   3.211  18.497  0.4038  0.4763  0.2437
 5333TIP3    H140194   5.315   3.305  18.482 -0.3506  1.0612  3.0561
 5333TIP3    H240195   5.223   3.198  18.536  0.3309 -1.4604 -0.4491
 5334TIP3   OH240196   4.092   1.298  19.201  0.5024 -0.2829 -0.0098
 5334TIP3    H140197   4.081   1.387  19.234  0.4519 -0.2687 -0.0668
 5334TIP3    H240198   4.038   1.293  19.123  0.8341 -0.2349 -0.2467
 5335TIP3   OH240199   2.230   4.409  19.852  0.1517 -0.3300 -0.2536
 5335TIP3    H140200   2.176   4.343  19.895 -0.5182 -0.5287 -1.3644
 5335TIP3    H240201   2.296   4.433  19.917 -0.5730 -0.9291  0.7154
 5336TIP3   OH240202   6.693   4.016  17.593  0.1398 -0.4984 -0.0975
 5336TIP3    H140203   6.631   3.972  17.652 -1.1855  0.8554 -0.4062
 5336TIP3    H240204   6.637   4.054  17.525  1.5184 -0.9382 -1.5386
 5337TIP3   OH240205   2.535   6.530  18.732  0.0617  0.2657 -0.1604
 5337TIP3    H140206   2.591   6.453  18.725 -1.5223 -0.9148 -0.3224
 5337TIP3    H240207   2.454   6.505  18.688 -1.0224  1.5222  1.0227
 5338TIP3   OH240208   4.671   5.934  20.017 -0.5626  0.1194  0.5907
 5338TIP3    H140209   4.693   5.885  19.938 -1.3262 -0.2880  0.6226
 5338TIP3    H240210   4.585   5.901  20.043 -0.4502  0.4537  1.4299
 5339TIP3   OH240211   1.297   6.025  19.935 -0.1668  0.3047 -0.1574
 5339TIP3    H140212   1.207   6.055  19.931  0.4516  2.2288 -0.6320
 5339TIP3    H240213   1.316   5.991  19.848 -0.2940  0.3304 -0.1936
 5340TIP3   OH240214   5.934   2.368  19.135  0.0997 -0.2090 -0.4522
 5340TIP3    H140215   6.003   2.328  19.188 -0.5774  0.6999  1.1784
 5340TIP3    H240216   5.853   2.338  19.174 -0.4231  0.3876 -1.0517
 5341TIP3   OH240217   0.746   5.295  17.210  0.4902 -0.0570 -0.3115
 5341TIP3    H140218   0.750   5.282  17.305 -0.4312  0.5181 -0.1834
 5341TIP3    H240219   0.760   5.208  17.173 -0.0170 -0.4380  0.3782
 5342TIP3   OH240220   3.766   5.182  19.245 -1.0460  0.4083  0.3319
 5342TIP3    H140221   3.820   5.216  19.174 -0.5581  2.2025  1.4806
 5342TIP3    H240222   3.716   5.111  19.206  0.6744  0.0141 -1.2765
 5343TIP3   OH240223   6.254   4.995  20.225  0.4751  0.1907  0.0868
 5343TIP3    H140224   6.330   5.047  20.253  0.2389  0.7508 -0.3114
 5343TIP3    H240225   6.293   4.915  20.189  0.8054 -0.3969  1.6478
 5344TIP3   OH240226   1.096   5.847  20.593  0.2193  0.4179  0.0431
 5344TIP3    H140227   1.154   5.845  20.669 -0.1853 -0.3030  0.3399
 5344TIP3    H240228   1.147   5.806  20.523  1.0682  2.2071 -0.4405
 5345TIP3   OH240229   5.577   3.588  18.966  0.1237 -0.4498  0.2324
 5345TIP3    H140230   5.659   3.550  18.995  1.0110 -1.2266 -2.8957
 5345TIP3    H240231   5.594   3.682  18.962  1.1119 -0.6485 -0.9130
 5346TIP3   OH240232   5.225   5.435  20.121 -0.4717  0.1352 -0.6195
 5346TIP3    H140233   5.286   5.364  20.099 -1.4501 -0.8228 -0.2921
 5346TIP3    H240234   5.262   5.474  20.200  0.2544  0.2407 -0.9929
 5347TIP3   OH240235   4.248   2.709  17.566  0.1295  0.4579  0.1896
 5347TIP3    H140236   4.169   2.659  17.547  1.2165 -1.1769 -0.2849
 5347TIP3    H240237   4.220   2.776  17.628 -1.7889  0.5086 -0.6687
 5348TIP3   OH240238   4.393   5.676  19.602  0.2314  0.2203  0.0620
 5348TIP3    H140239   4.309   5.722  19.600  0.4959  0.7592  0.9530
 5348TIP3    H240240   4.370   5.585  19.582 -0.3313  0.6601 -1.4500
 5349TIP3   OH240241   2.582   6.317  20.165  0.0809 -0.1490 -0.1975
 5349TIP3    H140242   2.556   6.406  20.143  1.9703  0.3949 -0.4177
 5349TIP3    H240243   2.631   6.287  20.088 -0.9130 -1.5762 -0.3169
 5350TIP3   OH240244   1.775   0.213  17.089 -0.0279  0.3321  1.1269
 5350TIP3    H140245   1.686   0.236  17.066 -0.1942 -0.7598  0.6531
 5350TIP3    H240246   1.829   0.251  17.020 -0.2284  0.0149  0.7946
 5351TIP3   OH240247   3.746   0.188  18.042  0.1897  0.9644 -0.0606
 5351TIP3    H140248   3.786   0.175  17.956 -0.1379  1.3883 -0.2786
 5351TIP3    H240249   3.802   0.254  18.085  1.4293 -0.5554  0.7685
 5352TIP3   OH240250   6.225   2.861  19.660 -0.2843  0.6386  0.4118
 5352TIP3    H140251   6.179   2.943  19.642 -0.4238  0.3099 -0.8486
 5352TIP3    H240252   6.310   2.888  19.695 -1.0656  1.2709  1.8598
 5353TIP3   OH240253   4.215   5.913  19.726 -0.5982  0.1327 -0.0972
 5353TIP3    H140254   4.181   5.832  19.764 -0.2752 -0.3155 -0.7418
 5353TIP3    H240255   4.295   5.931  19.775  0.0714 -0.7005 -0.8402
 5354TIP3   OH240256   0.492   0.908  20.057  0.5775 -0.2733 -0.2552
 5354TIP3    H140257   0.568   0.902  20.000  0.5800 -0.1047 -0.2708
 5354TIP3    H240258   0.519   0.865  20.138  0.8399  0.1663 -0.1034
 5355TIP3   OH240259   2.329   4.019  19.025  0.3514  0.8534 -0.4192
 5355TIP3    H140260   2.326   4.048  18.933 -0.8660  3.4599  0.3334
 5355TIP3    H240261   2.385   4.084  19.068 -1.2571  1.2853  1.1129
 5356TIP3   OH240262   1.999   0.006  19.587 -0.1146  0.2326  0.2256
 5356TIP3    H140263   2.025   0.030  19.498  1.1894  0.9755  0.7913
 5356TIP3    H240264   2.034  -0.082  19.599 -0.0495  0.2425  0.1063
 5357TIP3   OH240265   3.370   4.751  20.758 -0.1340  0.0867  0.0561
 5357TIP3    H140266   3.331   4.838  20.754 -0.1620  0.1334  1.1048
 5357TIP3    H240267   3.341   4.708  20.677  0.1272  1.1372 -0.6195
 5358TIP3   OH240268   4.517   5.969  20.320 -0.1303  0.0364 -0.1473
 5358TIP3    H140269   4.582   6.038  20.304  0.1569 -0.1351  0.2362
 5358TIP3    H240270   4.541   5.899  20.260  1.5634 -1.0150  1.6108
 5359TIP3   OH240271   4.223   3.640  17.454  0.0220  0.0131 -0.4075
 5359TIP3    H140272   4.285   3.594  17.397  0.1774 -2.8179  1.7909
 5359TIP3    H240273   4.139   3.631  17.410  0.3859 -0.6936 -0.9852
 5360TIP3   OH240274   2.340   1.790  18.178  0.2395  0.0559 -0.0489
 5360TIP3    H140275   2.360   1.761  18.089  0.0103 -0.9213  0.2105
 5360TIP3    H240276   2.393   1.869  18.189 -0.8391  1.0615 -1.5705
 5361TIP3   OH240277   0.317   1.597  20.495 -0.5714  0.3424  0.2048
 5361TIP3    H140278   0.398   1.565  20.455 -0.6646 -0.0523  0.3308
 5361TIP3    H240279   0.288   1.668  20.437 -1.1344 -0.7514 -0.8958
 5362TIP3   OH240280   6.445   4.106  17.455  0.2427  0.0344 -0.6113
 5362TIP3    H140281   6.363   4.082  17.497 -0.1315  1.6321 -0.3659
 5362TIP3    H240282   6.455   4.043  17.383 -0.9229 -0.4861 -0.3368
 5363TIP3   OH240283   5.464   4.065  17.749  0.6562 -0.2341  0.2835
 5363TIP3    H140284   5.476   4.082  17.655 -0.5131 -0.6332  0.0501
 5363TIP3    H240285   5.542   4.103  17.790  1.2556 -0.1875 -0.8614
 5364TIP3   OH240286   2.387   0.550  18.900 -0.1964  0.1216  0.4475
 5364TIP3    H140287   2.366   0.598  18.821  0.0272  0.3874  0.5500
 5364TIP3    H240288   2.321   0.481  18.905 -0.2851  0.1829  0.0999
 5365TIP3   OH240289   5.161   0.153  19.281 -0.6519 -0.0513  0.0091
 5365TIP3    H140290   5.089   0.092  19.263 -0.8744  0.5067 -1.0676
 5365TIP3    H240291   5.124   0.216  19.343 -0.6059 -0.6403  0.6531
 5366TIP3   OH240292   4.617   5.426  17.598 -0.0802 -0.6576  0.5827
 5366TIP3    H140293   4.527   5.452  17.619 -0.1080 -0.3854  0.1343
 5366TIP3    H240294   4.628   5.341  17.641 -0.9452 -1.2580 -0.3250
 5367TIP3   OH240295   3.506   6.209  18.268  0.4343  0.4921  0.3354
 5367TIP3    H140296   3.526   6.119  18.242 -0.0368  0.5569 -0.2621
 5367TIP3    H240297   3.584   6.258  18.243  0.5585  0.3093  0.3568
 5368TIP3   OH240298   3.541   0.253  17.333  0.1951  0.7365 -0.2490
 5368TIP3    H140299   3.532   0.320  17.266  2.8417  2.2602  0.7722
 5368TIP3    H240300   3.618   0.203  17.307  1.9370  2.0116  2.0424
 5369TIP3   OH240301   4.959   2.541  17.675  0.4896  0.1474  0.6439
 5369TIP3    H140302   5.028   2.605  17.662  0.9360 -0.5256 -0.4744
 5369TIP3    H240303   4.951   2.496  17.590 -0.6355 -0.4530  1.0387
 5370TIP3   OH240304   3.221   0.501  19.794  0.4667  0.2439  0.0906
 5370TIP3    H140305   3.171   0.561  19.849  0.5216 -0.0159  0.4250
 5370TIP3    H240306   3.176   0.417  19.803 -0.0861  0.3965 -1.0014
 5371TIP3   OH240307   5.021   4.731  19.050  0.6304  0.1111 -0.0880
 5371TIP3    H140308   5.088   4.764  19.109  1.7014 -1.1946 -0.5290
 5371TIP3    H240309   5.067   4.670  18.992 -0.7838 -0.2309 -0.9138
 5372TIP3   OH240310   3.625   0.279  18.484  0.0410 -0.0475  0.4449
 5372TIP3    H140311   3.704   0.241  18.446  0.3693  0.5905  0.4679
 5372TIP3    H240312   3.568   0.205  18.501  0.4204 -0.4658 -0.0786
 5373TIP3   OH240313   4.716   3.796  18.021  0.4876 -0.2503  0.6416
 5373TIP3    H140314   4.696   3.781  17.929 -0.7608  1.3834  0.5985
 5373TIP3    H240315   4.812   3.795  18.026  0.5823  0.0991 -0.7571
 5374TIP3   OH240316   6.706   2.027  19.805 -0.6167  0.2641  0.0925
 5374TIP3    H140317   6.763   1.950  19.813 -1.8055 -0.8851 -1.7726
 5374TIP3    H240318   6.767   2.100  19.796  0.5556 -0.6280  0.4340
 5375TIP3   OH240319   3.597   1.791  18.723  0.2397 -0.1493 -0.0458
 5375TIP3    H140320   3.545   1.858  18.768 -0.1829  1.2111 -2.3689
 5375TIP3    H240321   3.552   1.709  18.742 -1.3237  0.6920  0.0414
 5376TIP3   OH240322   6.510   1.688  19.920 -0.0136  0.7384 -0.1035
 5376TIP3    H140323   6.479   1.680  20.011 -0.8370  1.1953 -0.3305
 5376TIP3    H240324   6.605   1.686  19.927 -0.0326  1.8509  0.8925
 5377TIP3   OH240325   6.410   4.367  17.322 -0.0291  0.8549 -0.0336
 5377TIP3    H140326   6.454   4.370  17.237  0.8872  1.0254  0.4362
 5377TIP3    H240327   6.424   4.278  17.354  0.4797  1.0712  0.3676
 5378TIP3   OH240328   1.869   3.128  17.867 -0.0277 -0.9915 -0.2942
 5378TIP3    H140329   1.828   3.187  17.804  1.3269  2.3441  1.6895
 5378TIP3    H240330   1.795   3.085  17.911 -1.0990 -0.3005 -1.3666
 5379TIP3   OH240331   0.205   4.294  18.175 -0.1434 -0.1454 -0.2878
 5379TIP3    H140332   0.214   4.304  18.081  0.3270  0.9434 -0.1454
 5379TIP3    H240333   0.271   4.229  18.199  0.1154 -0.0166 -0.6395
 5380TIP3   OH240334   0.587   3.938  19.409 -0.3422  0.3309  0.1626
 5380TIP3    H140335   0.495   3.920  19.424 -0.8846  2.1295 -0.7225
 5380TIP3    H240336   0.617   3.982  19.489 -0.5538  0.7860 -0.0096
 5381TIP3   OH240337   4.479   2.093  18.981  0.3525 -0.0949 -0.3659
 5381TIP3    H140338   4.562   2.126  19.014  0.4125 -1.3138  0.7797
 5381TIP3    H240339   4.495   2.074  18.889  0.8021  1.3591 -0.6137
 5382TIP3   OH240340   4.252   0.035  19.351 -0.2774 -0.4061 -0.2394
 5382TIP3    H140341   4.328   0.009  19.298  1.4233  1.4960  1.1209
 5382TIP3    H240342   4.178  -0.007  19.308  1.4965 -2.2321 -1.7397
 5383TIP3   OH240343   6.434   6.519  19.718 -0.3409  0.3391 -0.3409
 5383TIP3    H140344   6.352   6.471  19.710 -0.4507  0.7688 -2.4273
 5383TIP3    H240345   6.491   6.479  19.652  0.3383  1.5368 -0.5045
 5384TIP3   OH240346   3.848   5.875  18.607 -0.4956  0.1641  0.2608
 5384TIP3    H140347   3.763   5.851  18.644 -0.4661 -0.5097 -0.0989
 5384TIP3    H240348   3.875   5.799  18.556 -0.5599  1.0975 -1.2248
 5385TIP3   OH240349   6.338   6.730  19.886  0.0812 -0.6775  0.3447
 5385TIP3    H140350   6.377   6.674  19.819  0.1111 -0.4911  0.2045
 5385TIP3    H240351   6.324   6.814  19.842  4.1794  0.9264  1.6732
 5386TIP3   OH240352   6.122   1.880  20.516 -0.4827 -0.0212  0.8240
 5386TIP3    H140353   6.188   1.928  20.566 -0.9192 -1.4087  2.8483
 5386TIP3    H240354   6.063   1.845  20.582 -0.5800 -2.7456 -0.5680
 5387TIP3   OH240355   4.185   0.705  19.968 -0.2948 -0.2435 -0.3479
 5387TIP3    H140356   4.211   0.795  19.950 -0.2770 -0.7631 -3.5022
 5387TIP3    H240357   4.109   0.713  20.027 -0.9494  1.8960 -1.3837
 5388TIP3   OH240358   6.513   6.141  20.642 -0.5491 -0.2840 -0.4536
 5388TIP3    H140359   6.534   6.113  20.552  0.8382 -2.2986  0.4003
 5388TIP3    H240360   6.598   6.163  20.680 -0.6123 -2.6805  1.3117
 5389TIP3   OH240361   1.695   4.893  19.779  0.6826  0.3293  0.0220
 5389TIP3    H140362   1.638   4.951  19.727 -1.5905 -2.8260 -1.3801
 5389TIP3    H240363   1.648   4.881  19.862 -0.7787 -2.0483 -1.0251
 5390TIP3   OH240364   2.758   6.381  20.360 -0.0475  0.0681 -0.0140
 5390TIP3    H140365   2.679   6.354  20.315 -0.2765 -1.0602  1.0016
 5390TIP3    H240366   2.799   6.300  20.390  1.0743  0.6672  0.1794
 5391TIP3   OH240367   3.613   3.354  11.112 -0.2237 -0.2525  0.3332
 5391TIP3    H140368   3.567   3.280  11.073 -0.9769 -0.5547  1.7433
 5391TIP3    H240369   3.582   3.357  11.203  0.9442  0.8538  0.7258
 5392TIP3   OH240370   2.442   2.304  11.159 -0.0467 -0.4485 -0.1378
 5392TIP3    H140371   2.521   2.352  11.134  1.0415 -1.1052  1.8380
 5392TIP3    H240372   2.472   2.238  11.221 -2.0748 -1.1335  0.2037
 5393TIP3   OH240373   5.033   0.106  12.686 -0.2158  0.2175 -0.9423
 5393TIP3    H140374   5.086   0.185  12.673  2.1937 -0.8576  1.3596
 5393TIP3    H240375   5.083   0.036  12.643 -1.3733 -0.3982 -1.3463
 5394TIP3   OH240376   6.325   1.587  10.890  0.2763  0.2778 -0.0838
 5394TIP3    H140377   6.282   1.642  10.955 -0.6246 -0.5112  0.0161
 5394TIP3    H240378   6.312   1.632  10.807 -0.4719  0.2105 -0.0058
 5395TIP3   OH240379   2.027   6.652  11.194 -0.1421 -0.5928  0.2879
 5395TIP3    H140380   2.025   6.635  11.288  0.0589  0.5468  0.5114
 5395TIP3    H240381   1.960   6.719  11.180 -0.8761 -1.4684 -0.5485
 5396TIP3   OH240382   5.649   6.718   9.300  0.2382 -0.5093 -0.0919
 5396TIP3    H140383   5.609   6.788   9.249 -0.2811  0.5520  1.7175
 5396TIP3    H240384   5.582   6.650   9.305  0.4164 -0.7786 -1.0584
 5397TIP3   OH240385   3.857   4.719  11.977 -0.6579 -0.2057 -0.5435
 5397TIP3    H140386   3.786   4.693  12.036 -1.0974 -0.9777 -1.3821
 5397TIP3    H240387   3.863   4.814  11.987 -2.0968 -0.0656 -0.7600
 5398TIP3   OH240388   1.504   4.171  10.316 -0.0343  0.4203 -0.1232
 5398TIP3    H140389   1.443   4.229  10.362 -0.8480  0.4387 -1.1941
 5398TIP3    H240390   1.514   4.209  10.230  0.3219 -0.4067 -0.4594
 5399TIP3   OH240391   2.119   1.093   9.241  0.0266  0.1399 -0.1767
 5399TIP3    H140392   2.177   1.161   9.274  1.3479 -0.5084 -1.0540
 5399TIP3    H240393   2.105   1.115   9.149 -0.0366 -0.4252 -0.3098
 5400TIP3   OH240394   5.172   4.322   9.755  0.1268  0.2443 -0.0688
 5400TIP3    H140395   5.165   4.415   9.737 -1.7764  0.0688 -0.4718
 5400TIP3    H240396   5.134   4.312   9.843  0.0124 -0.1859 -0.1651
 5401TIP3   OH240397   1.363   1.351  12.335 -0.5907 -0.3414 -0.1230
 5401TIP3    H140398   1.319   1.295  12.399 -2.1280  0.9626  0.0321
 5401TIP3    H240399   1.456   1.329  12.343 -0.9080 -1.1912  1.5820
 5402TIP3   OH240400   1.595   2.953  13.263  0.1603  0.2260  0.0197
 5402TIP3    H140401   1.627   2.874  13.220 -0.1388  0.7575 -1.2232
 5402TIP3    H240402   1.502   2.937  13.276 -0.1032  0.7395 -1.1226
 5403TIP3   OH240403   0.963   6.482  11.424  0.0750  0.0027  0.2163
 5403TIP3    H140404   0.946   6.423  11.497 -0.8948 -0.3894 -0.3098
 5403TIP3    H240405   1.036   6.537  11.453 -0.1662 -0.2878  1.3914
 5404TIP3   OH240406   0.223   5.290  11.344 -0.2168 -0.1302 -0.1037
 5404TIP3    H140407   0.313   5.262  11.330 -0.6658 -1.5750 -0.2687
 5404TIP3    H240408   0.205   5.352  11.273  0.1412 -1.0688 -1.0302
 5405TIP3   OH240409   0.374   6.317  10.781 -0.7817 -0.2586 -0.2445
 5405TIP3    H140410   0.326   6.236  10.769  0.1730 -1.0790  1.1166
 5405TIP3    H240411   0.423   6.329  10.700 -0.7008 -1.2240 -0.3504
 5406TIP3   OH240412   0.878   3.804  12.663  0.1018  0.2213 -0.0987
 5406TIP3    H140413   0.876   3.862  12.587 -0.1575  1.9488  1.1500
 5406TIP3    H240414   0.960   3.825  12.707 -0.4327  0.3663  0.8682
 5407TIP3   OH240415   0.566   1.803  12.001  0.1376  0.0110 -0.4756
 5407TIP3    H140416   0.477   1.837  12.011 -0.1917 -1.3027  1.8501
 5407TIP3    H240417   0.622   1.872  12.039 -0.0603  0.0894 -0.3201
 5408TIP3   OH240418   4.346   6.561  11.448 -0.5290  0.0695 -0.2749
 5408TIP3    H140419   4.306   6.585  11.532 -1.2751 -2.4573  0.1886
 5408TIP3    H240420   4.272   6.545  11.390 -0.0393  0.5319 -1.0413
 5409TIP3   OH240421   2.505   4.651  11.863 -0.2551 -0.0759  0.2207
 5409TIP3    H140422   2.474   4.581  11.806  0.7771 -0.0443 -0.3936
 5409TIP3    H240423   2.427   4.679  11.910 -1.0893 -0.2485 -1.0118
 5410TIP3   OH240424   5.730   5.213  11.677  0.0663  0.9964  0.4541
 5410TIP3    H140425   5.760   5.207  11.768 -0.9717  0.2050  0.7697
 5410TIP3    H240426   5.810   5.208  11.625  0.5311 -0.8553  1.2576
 5411TIP3   OH240427   4.570   0.717  12.722 -0.4153  0.3561 -0.0058
 5411TIP3    H140428   4.568   0.631  12.680 -0.8729  0.4258 -0.1266
 5411TIP3    H240429   4.490   0.719  12.775  0.2907  0.1492  1.1110
 5412TIP3   OH240430   1.229   0.267  12.116  0.0465 -0.0681 -0.4798
 5412TIP3    H140431   1.202   0.281  12.026 -1.0814  2.9880  0.2263
 5412TIP3    H240432   1.239   0.355  12.153  0.2807 -1.1931  2.4388
 5413TIP3   OH240433   5.930   0.639  10.764 -0.3223  0.2419 -0.3716
 5413TIP3    H140434   5.935   0.545  10.748 -1.8337  0.2296 -0.9351
 5413TIP3    H240435   6.016   0.673  10.738  0.0283 -0.9013 -0.7286
 5414TIP3   OH240436   5.685   5.428  10.877  0.1555  0.1035 -0.3467
 5414TIP3    H140437   5.592   5.416  10.897  0.8095 -1.5429  2.3029
 5414TIP3    H240438   5.705   5.361  10.812 -0.5554  0.7265 -1.2301
 5415TIP3   OH240439   4.690   1.357  10.754  0.5035  0.8661  0.1577
 5415TIP3    H140440   4.768   1.411  10.764  0.1363  1.1486  1.7134
 5415TIP3    H240441   4.705   1.282  10.811 -1.0870  1.8165  1.9469
 5416TIP3   OH240442   6.685   5.518  11.977 -0.1024  0.2796 -0.4789
 5416TIP3    H140443   6.752   5.517  11.908 -1.0570 -1.0702 -1.4158
 5416TIP3    H240444   6.603   5.499  11.931 -0.6002 -1.8590  1.1725
 5417TIP3   OH240445   3.585   5.500  10.792 -0.1378  0.2546 -0.6161
 5417TIP3    H140446   3.677   5.495  10.817 -0.3293  1.6452  0.5656
 5417TIP3    H240447   3.581   5.573  10.730 -0.3914 -0.0480 -0.9587
 5418TIP3   OH240448   1.113   1.959  10.984  0.6632 -0.1792 -0.1979
 5418TIP3    H140449   1.150   1.872  10.971  1.0922  0.0741 -0.7260
 5418TIP3    H240450   1.169   1.999  11.050  1.7452  0.4217 -1.4304
 5419TIP3   OH240451   2.605   3.308   9.279  0.2682  0.3893 -0.2062
 5419TIP3    H140452   2.575   3.397   9.265 -0.3638  0.5037  1.5884
 5419TIP3    H240453   2.699   3.317   9.299  0.0420  0.7678  0.7622
 5420TIP3   OH240454   4.742   2.002  11.871  0.1890 -0.2041 -0.5399
 5420TIP3    H140455   4.648   2.014  11.874  0.0876 -0.7849 -1.1261
 5420TIP3    H240456   4.767   2.029  11.782  0.5348 -0.2490 -0.4573
 5421TIP3   OH240457   6.621   1.522  10.869 -0.4000 -0.2357 -0.6338
 5421TIP3    H140458   6.645   1.581  10.797 -0.8378  0.1863 -0.4371
 5421TIP3    H240459   6.525   1.526  10.872 -0.3542  0.3159  0.4411
 5422TIP3   OH240460   2.082   3.444   9.163  0.1558  0.4640  0.2259
 5422TIP3    H140461   1.988   3.426   9.159 -0.8546  3.9750  3.0379
 5422TIP3    H240462   2.117   3.379   9.225 -1.0996  1.0180  1.5700
 5423TIP3   OH240463   5.407   1.877  11.545 -0.1936  0.1711  0.0888
 5423TIP3    H140464   5.352   1.807  11.581  0.2508 -0.6437 -0.7943
 5423TIP3    H240465   5.450   1.838  11.469 -0.7450  1.7134 -1.0712
 5424TIP3   OH240466   0.758   3.276  11.224 -0.5492 -0.3394  0.1760
 5424TIP3    H140467   0.761   3.198  11.167  0.2155 -0.0620 -0.1744
 5424TIP3    H240468   0.667   3.305  11.219 -0.4380 -0.1348 -1.1813
 5425TIP3   OH240469   2.476   1.409  11.772 -0.0437  0.1332  0.6361
 5425TIP3    H140470   2.519   1.481  11.727 -0.7201  0.3879  0.3856
 5425TIP3    H240471   2.529   1.394  11.850  1.2731 -0.4555 -0.3381
 5426TIP3   OH240472   0.540   2.461   9.459 -0.4985  0.4684  0.1879
 5426TIP3    H140473   0.560   2.509   9.540 -0.0090 -1.1778  1.0831
 5426TIP3    H240474   0.574   2.517   9.389  1.8041  0.5645  1.3005
 5427TIP3   OH240475   5.624   2.200   9.277  0.5079 -0.0793 -0.0516
 5427TIP3    H140476   5.656   2.145   9.349 -0.0158  0.1953  0.4036
 5427TIP3    H240477   5.529   2.201   9.288  0.5452  1.5451  0.4386
 5428TIP3   OH240478   6.394   4.854  10.069 -0.5310  0.4041 -0.4820
 5428TIP3    H140479   6.402   4.883  10.160 -0.5377 -0.8122 -0.0714
 5428TIP3    H240480   6.315   4.800  10.068  1.1097 -2.1564 -0.4744
 5429TIP3   OH240481   5.450   2.222  10.841 -0.3680  0.1209  0.3915
 5429TIP3    H140482   5.458   2.312  10.810  1.1108 -0.3864 -0.8498
 5429TIP3    H240483   5.534   2.205  10.885  0.2969 -1.2887 -1.3003
 5430TIP3   OH240484   3.994   2.134  11.455 -0.6527 -0.6459 -0.4752
 5430TIP3    H140485   3.966   2.094  11.537 -2.1679 -1.4299 -1.3384
 5430TIP3    H240486   4.040   2.064  11.408 -1.0556 -0.6266 -0.9057
 5431TIP3   OH240487   4.397   3.928  10.538 -0.4101 -0.3441  0.1766
 5431TIP3    H140488   4.331   3.861  10.555  0.5899 -1.2996  0.4198
 5431TIP3    H240489   4.457   3.888  10.475  0.0084  0.4622  0.0377
 5432TIP3   OH240490   4.101   4.976  11.393 -0.1451 -0.2406  0.3152
 5432TIP3    H140491   4.186   4.963  11.350  0.0641  0.9281  0.3361
 5432TIP3    H240492   4.039   4.930  11.337  0.6521 -2.3261  1.0454
 5433TIP3   OH240493   0.005   3.089  11.637  0.1404  0.1515  0.1077
 5433TIP3    H140494   0.006   3.039  11.718  3.3791  0.0557  0.1245
 5433TIP3    H240495  -0.037   3.030  11.574  2.0811 -1.9050  0.5834
 5434TIP3   OH240496   0.598   0.692   9.747  0.5740 -0.3519  0.6364
 5434TIP3    H140497   0.579   0.751   9.820  2.3523 -1.3598  1.9715
 5434TIP3    H240498   0.665   0.739   9.696  0.9796 -0.6079  0.9283
 5435TIP3   OH240499   0.290   3.792  11.932  1.1295  0.0658 -0.4939
 5435TIP3    H140500   0.299   3.754  12.020 -0.5974 -1.7066 -1.0148
 5435TIP3    H240501   0.303   3.718  11.873  2.3040  1.2466 -1.7710
 5436TIP3   OH240502   3.469   2.026   9.203  0.0329  0.1985  0.5534
 5436TIP3    H140503   3.513   2.040   9.120  0.7481  0.5754  0.9845
 5436TIP3    H240504   3.536   1.988   9.260 -0.8623 -1.5226  0.5151
 5437TIP3   OH240505   2.410   3.887   9.416  0.1784 -0.6602  0.3648
 5437TIP3    H140506   2.483   3.849   9.367  0.9249  0.6660  0.4321
 5437TIP3    H240507   2.366   3.944   9.353  0.7446  0.5339  1.0334
 5438TIP3   OH240508   3.286   5.310   9.743  0.1445 -0.1598  0.1345
 5438TIP3    H140509   3.325   5.311   9.830 -0.4970 -0.8005  0.4429
 5438TIP3    H240510   3.262   5.401   9.726  0.0356 -0.0734  0.7395
 5439TIP3   OH240511   2.429   5.426   9.590 -0.0099  0.0905 -0.7544
 5439TIP3    H140512   2.337   5.417   9.564 -0.6423 -0.4991  1.4125
 5439TIP3    H240513   2.451   5.517   9.572 -0.8983  0.1496 -1.6275
 5440TIP3   OH240514   5.992   4.367  12.241  0.2818  0.7847 -0.2868
 5440TIP3    H140515   5.928   4.423  12.285 -0.8987 -0.3521 -0.4952
 5440TIP3    H240516   6.004   4.293  12.301  1.1939  0.8591 -0.3738
 5441TIP3   OH240517   0.337   6.242  11.363 -0.8757  0.1059  0.1330
 5441TIP3    H140518   0.399   6.187  11.410 -0.4690 -0.6414 -1.2225
 5441TIP3    H240519   0.268   6.181  11.336 -0.8146  0.3977 -0.7058
 5442TIP3   OH240520   1.612   1.737   9.872  0.1416 -0.4411  0.6135
 5442TIP3    H140521   1.706   1.753   9.882  0.0731  0.3749 -0.0028
 5442TIP3    H240522   1.577   1.749   9.960  0.7388 -1.7474  1.0640
 5443TIP3   OH240523   3.087   0.174   9.991  0.4058 -0.1306 -0.5984
 5443TIP3    H140524   2.995   0.149   9.991  0.4162 -0.1785 -0.1841
 5443TIP3    H240525   3.105   0.203   9.902  0.1635 -0.7695 -0.8595
 5444TIP3   OH240526   4.423   5.614  10.269 -0.0250 -0.0128 -0.0530
 5444TIP3    H140527   4.474   5.669  10.329  0.6784 -0.1335 -0.5286
 5444TIP3    H240528   4.379   5.551  10.326 -0.2622  0.5907  0.4319
 5445TIP3   OH240529   0.273   1.204  12.209  0.0554 -0.2265  0.2176
 5445TIP3    H140530   0.309   1.122  12.243  1.3949 -0.0189 -0.6115
 5445TIP3    H240531   0.182   1.205  12.239  0.1652 -1.7574  0.6867
 5446TIP3   OH240532   2.107   4.071  10.679 -0.2182  0.2737 -0.5427
 5446TIP3    H140533   2.147   4.000  10.729 -0.6411 -0.9211 -1.8594
 5446TIP3    H240534   2.173   4.140  10.677  0.6812 -0.5750 -0.3170
 5447TIP3   OH240535   1.925   2.519   9.703  0.2481  0.2809  0.2400
 5447TIP3    H140536   2.003   2.498   9.754  0.7645 -1.0628 -1.0090
 5447TIP3    H240537   1.858   2.459   9.737  0.2870  0.1492  0.0875
 5448TIP3   OH240538   1.294   4.503  12.411  0.0433 -0.7160 -0.0297
 5448TIP3    H140539   1.220   4.496  12.350  0.0255 -0.9936  0.0234
 5448TIP3    H240540   1.279   4.435  12.476  0.4118 -0.8558 -0.0880
 5449TIP3   OH240541   6.250   4.504  11.632 -0.2966  0.8049 -0.0203
 5449TIP3    H140542   6.263   4.464  11.546  0.0716 -1.5573  1.0364
 5449TIP3    H240543   6.337   4.500  11.673 -1.0738 -1.2590  1.6295
 5450TIP3   OH240544   0.721   6.125  10.419  0.4975  0.6087 -0.0064
 5450TIP3    H140545   0.666   6.188  10.466 -0.6524 -0.4374  0.0927
 5450TIP3    H240546   0.660   6.071  10.369  1.4564 -0.3643 -0.1885
 5451TIP3   OH240547   0.158   3.935  11.740 -0.0730 -0.4498  0.2531
 5451TIP3    H140548   0.194   3.891  11.817  0.4819  0.8143  0.7277
 5451TIP3    H240549   0.063   3.925  11.749 -0.0769  0.6389  1.7011
 5452TIP3   OH240550   1.559   6.308  10.911  0.3448  0.5920 -0.2345
 5452TIP3    H140551   1.628   6.356  10.957 -0.0899  1.3819 -0.3971
 5452TIP3    H240552   1.595   6.291  10.824  0.5152  0.5907 -0.1630
 5453TIP3   OH240553   1.803   2.814   9.958  0.0166  0.9209  0.2413
 5453TIP3    H140554   1.761   2.772   9.883  0.4372 -1.4984  1.2522
 5453TIP3    H240555   1.897   2.808   9.939  0.0882  1.5452  0.3689
 5454TIP3   OH240556   6.601   2.192  12.451  0.2341  0.7143  0.1123
 5454TIP3    H140557   6.507   2.179  12.450  0.3003  0.2499 -0.1194
 5454TIP3    H240558   6.626   2.186  12.543  0.4637 -2.2920 -0.0520
 5455TIP3   OH240559   5.498   2.876  10.077 -0.1363  0.1536  0.6556
 5455TIP3    H140560   5.519   2.808  10.013 -0.8914  0.7162 -0.2068
 5455TIP3    H240561   5.532   2.957  10.038 -1.1372  0.5965  0.6627
 5456TIP3   OH240562   6.223   6.436   9.312  0.6076  0.6048 -0.1540
 5456TIP3    H140563   6.293   6.482   9.358  1.1035 -1.0892  0.8516
 5456TIP3    H240564   6.267   6.366   9.265 -0.1769  0.9118 -1.4118
 5457TIP3   OH240565   6.114   1.401  10.656  0.1999  0.1984  0.7221
 5457TIP3    H140566   6.182   1.372  10.716  0.6444 -1.0023 -0.3037
 5457TIP3    H240567   6.034   1.401  10.709  0.8862  1.0747  1.7883
 5458TIP3   OH240568   3.461   6.169   9.028 -0.0861 -0.1995  0.0582
 5458TIP3    H140569   3.371   6.137   9.039 -0.0399 -0.5331 -0.4908
 5458TIP3    H240570   3.457   6.222   8.949  0.0776  0.2681  0.3622
 5459TIP3   OH240571   6.405   0.928  12.295 -0.1882  0.1108 -0.3149
 5459TIP3    H140572   6.492   0.912  12.332 -0.7373 -0.5063  0.7626
 5459TIP3    H240573   6.371   0.841  12.275 -1.3415  0.1942  1.1604
 5460TIP3   OH240574   2.429   1.144  10.866 -0.0439 -0.3664 -0.0774
 5460TIP3    H140575   2.459   1.194  10.941 -1.4819  2.5224 -1.2686
 5460TIP3    H240576   2.442   1.202  10.791 -0.7689 -2.2326 -1.7409
 5461TIP3   OH240577   3.029   6.324  10.330 -0.2358 -0.2192 -0.3859
 5461TIP3    H140578   3.113   6.298  10.367 -0.1300 -1.0585 -1.1794
 5461TIP3    H240579   2.964   6.283  10.388 -0.0735 -1.2075 -0.8799
 5462TIP3   OH240580   2.217   6.000  10.146 -0.0947 -0.1076  0.3617
 5462TIP3    H140581   2.276   5.967  10.214  1.5251  1.2928 -0.2776
 5462TIP3    H240582   2.160   5.926  10.124  1.5855 -1.6062  0.8570
 5463TIP3   OH240583   5.040   2.040  10.253  0.3167  0.1223  0.3009
 5463TIP3    H140584   4.962   2.095  10.267 -0.2497 -0.0707 -1.7282
 5463TIP3    H240585   5.029   1.966  10.313 -1.9332 -0.7283 -1.0468
 5464TIP3   OH240586   2.616   5.378  11.377  0.0422 -0.4006  0.2682
 5464TIP3    H140587   2.562   5.322  11.432  1.3220 -1.4776  0.4911
 5464TIP3    H240588   2.672   5.317  11.329 -0.4387  0.5563 -1.5994
 5465TIP3   OH240589   4.658   4.061  11.513  0.0581  0.2346  0.1777
 5465TIP3    H140590   4.647   4.040  11.605  0.4925 -0.3470  0.1048
 5465TIP3    H240591   4.653   3.976  11.468 -3.4216  0.7367 -0.7097
 5466TIP3   OH240592   2.866   1.233  12.468 -0.2375  0.0580 -0.6800
 5466TIP3    H140593   2.896   1.179  12.542 -1.0972  1.8713  1.1085
 5466TIP3    H240594   2.888   1.322  12.494  1.5638  0.6488 -3.7310
 5467TIP3   OH240595   6.287   2.296   9.522 -0.5839  0.5645 -0.2391
 5467TIP3    H140596   6.304   2.249   9.440  0.2005 -0.5764  0.5579
 5467TIP3    H240597   6.320   2.239   9.590 -0.8482  1.6884  0.8693
 5468TIP3   OH240598   0.962   2.433  12.597 -0.3544  0.1703  0.0384
 5468TIP3    H140599   1.034   2.492  12.616 -0.1791  0.3466 -1.1271
 5468TIP3    H240600   0.887   2.472  12.643  0.5317 -0.7661  2.4342
 5469TIP3   OH240601   4.585   1.210  11.606 -0.2683 -0.2107 -0.3529
 5469TIP3    H140602   4.623   1.249  11.526 -2.6434  0.5531 -1.2016
 5469TIP3    H240603   4.493   1.194  11.583 -0.7319 -1.0716  1.8845
 5470TIP3   OH240604   4.796   5.244   9.848  0.6668 -0.4461 -0.4490
 5470TIP3    H140605   4.705   5.261   9.870  0.7076  0.6752 -1.0634
 5470TIP3    H240606   4.805   5.149   9.855 -0.2933 -0.4864  0.5237
 5471TIP3   OH240607   2.674   3.987  12.258 -0.0820  0.3497  0.0650
 5471TIP3    H140608   2.651   3.902  12.294 -0.1244 -0.1607 -1.1334
 5471TIP3    H240609   2.769   3.992  12.266 -0.1693  0.6195  1.0396
 5472TIP3   OH240610   4.783   3.730  10.117  0.2329 -0.9264  0.4971
 5472TIP3    H140611   4.865   3.765  10.151  0.0137  0.3430 -0.2121
 5472TIP3    H240612   4.727   3.807  10.106 -1.8474 -1.9365  3.0159
 5473TIP3   OH240613   0.796   2.602  12.761 -0.0167 -0.8649 -0.4541
 5473TIP3    H140614   0.822   2.570  12.848 -0.0802 -0.1588 -0.1694
 5473TIP3    H240615   0.713   2.647  12.776 -0.1014 -0.8673 -0.9120
 5474TIP3   OH240616   1.775   2.155  10.259 -0.1744  0.1669  0.5809
 5474TIP3    H140617   1.734   2.131  10.176  0.3120  2.0236 -0.2484
 5474TIP3    H240618   1.864   2.120  10.252 -0.3026 -0.1621  0.5648
 5475TIP3   OH240619   1.274   3.096  11.354  0.1902 -0.8116 -0.2468
 5475TIP3    H140620   1.189   3.136  11.370  0.7548 -0.1530  1.3445
 5475TIP3    H240621   1.275   3.018  11.409  1.1096 -0.0755  0.8130
 5476TIP3   OH240622   1.997   3.085  13.087  0.0140  0.0238 -0.3475
 5476TIP3    H140623   1.952   3.163  13.054  0.1418 -0.0318 -0.6530
 5476TIP3    H240624   1.960   3.071  13.174 -1.5162 -0.7746 -1.0904
 5477TIP3   OH240625   4.739   1.825  11.602  0.0651 -0.8418 -0.1321
 5477TIP3    H140626   4.755   1.740  11.643  1.7909 -0.5466 -0.1140
 5477TIP3    H240627   4.825   1.867  11.601 -0.7210  0.8013 -0.3823
 5478TIP3   OH240628   0.618   2.585   9.676  0.5042  0.0049 -0.5668
 5478TIP3    H140629   0.554   2.587   9.747  1.1603 -1.5798  0.1248
 5478TIP3    H240630   0.703   2.583   9.720  1.0102  1.1318 -1.4515
 5479TIP3   OH240631   3.490   3.142  10.985 -0.1637  0.5274 -0.0592
 5479TIP3    H140632   3.426   3.097  11.039 -0.6734 -1.0271 -1.8491
 5479TIP3    H240633   3.532   3.073  10.934 -0.6063  1.9645 -2.5465
 5480TIP3   OH240634   1.190   2.597  12.569 -0.9424  0.0003  0.1819
 5480TIP3    H140635   1.234   2.531  12.516 -1.9373 -0.3357 -0.2350
 5480TIP3    H240636   1.259   2.660  12.590  0.5098 -2.0707  2.1333
 5481TIP3   OH240637   1.823   2.419  10.369  0.4022  0.1311  0.1159
 5481TIP3    H140638   1.773   2.477  10.312 -1.6961 -0.4589  1.2509
 5481TIP3    H240639   1.772   2.338  10.371  1.4332 -0.5163  1.2967
 5482TIP3   OH240640   6.385   4.496  11.389 -0.3228  1.2839  0.2432
 5482TIP3    H140641   6.401   4.580  11.432  1.1530  2.1252 -1.8096
 5482TIP3    H240642   6.426   4.505  11.303  1.9196 -2.3061  0.7378
 5483TIP3   OH240643   6.209   1.878  11.604  0.0394 -0.0691 -0.6044
 5483TIP3    H140644   6.137   1.929  11.641  0.1173 -1.1766  1.1730
 5483TIP3    H240645   6.287   1.915  11.644  0.3062 -0.1291 -1.0607
 5484TIP3   OH240646   0.691   0.019  11.653 -0.0073  0.3636  0.3718
 5484TIP3    H140647   0.667   0.084  11.719 -1.8155  0.0152  0.1111
 5484TIP3    H240648   0.736  -0.050  11.702 -0.7195  0.4299  1.1415
 5485TIP3   OH240649   0.009   1.784  11.656 -0.0043  0.8415  0.6179
 5485TIP3    H140650   0.093   1.755  11.690  0.1359  0.1129 -0.3048
 5485TIP3    H240651  -0.031   1.704  11.621  0.3547  1.6871 -1.9186
 5486TIP3   OH240652   4.918   2.515   9.906  0.1855 -0.1491 -0.0279
 5486TIP3    H140653   4.870   2.441   9.943  0.9925 -0.4087  0.5230
 5486TIP3    H240654   4.850   2.570   9.866 -0.4776 -0.9097  0.0281
 5487TIP3   OH240655   6.601   0.799  10.185  0.3070 -0.0464  0.0217
 5487TIP3    H140656   6.679   0.787  10.131  0.2950  0.7719 -0.1927
 5487TIP3    H240657   6.548   0.863  10.137  0.0259  0.2527  0.7173
 5488TIP3   OH240658   1.345   4.010  12.831  0.2508 -0.3655 -0.3955
 5488TIP3    H140659   1.366   4.094  12.871  0.2429 -1.1633  1.3964
 5488TIP3    H240660   1.417   3.993  12.770 -0.5413  1.6176 -2.0065
 5489TIP3   OH240661   3.628   2.736  11.824 -0.4571 -0.0500  0.3610
 5489TIP3    H140662   3.588   2.784  11.897 -0.9211  0.5112 -0.2514
 5489TIP3    H240663   3.576   2.656  11.817  0.3462 -0.6897  1.4137
 5490TIP3   OH240664   0.840   3.355  11.735 -0.2646 -0.7044  0.2099
 5490TIP3    H140665   0.871   3.268  11.709 -1.3795 -0.8321 -0.8006
 5490TIP3    H240666   0.779   3.338  11.807  0.2370 -0.6651  0.6484
 5491TIP3   OH240667   6.192   2.751  11.020  0.6436 -0.4579  0.0147
 5491TIP3    H140668   6.189   2.835  11.066  2.0999 -1.1546  1.4612
 5491TIP3    H240669   6.137   2.693  11.073 -1.8742 -0.0406 -1.9603
 5492TIP3   OH240670   4.994   3.505  11.615 -0.1161  0.3127 -0.1420
 5492TIP3    H140671   4.911   3.462  11.633  0.3704 -0.4186  0.3808
 5492TIP3    H240672   5.059   3.452  11.660  0.7536  0.3067 -1.3467
 5493TIP3   OH240673   2.412   6.203   9.656  0.1000 -0.1877 -0.2806
 5493TIP3    H140674   2.413   6.297   9.676 -3.4072  0.4524 -2.2440
 5493TIP3    H240675   2.407   6.160   9.742  1.0864  1.4149  0.6319
 5494TIP3   OH240676   3.614   4.764   9.020  0.5019 -0.3098  0.3710
 5494TIP3    H140677   3.599   4.670   9.010  0.4524 -0.2666  0.0162
 5494TIP3    H240678   3.708   4.772   9.036  0.5889 -0.3870 -0.0892
 5495TIP3   OH240679   0.914   5.869  12.419 -0.2456  0.4422 -0.1099
 5495TIP3    H140680   0.980   5.824  12.472 -0.6856 -0.9430 -0.6870
 5495TIP3    H240681   0.929   5.962  12.436 -0.2556  0.0674  2.2795
 5496TIP3   OH240682   5.830   2.158  10.800 -0.2784  0.4829 -0.3436
 5496TIP3    H140683   5.780   2.182  10.722  1.7474  1.0096 -1.5668
 5496TIP3    H240684   5.770   2.175  10.873 -2.1812  0.1686 -1.7396
 5497TIP3   OH240685   3.861   4.917  11.268 -0.1523 -0.2178  0.4827
 5497TIP3    H140686   3.842   4.846  11.329  1.1572 -0.6094  0.4622
 5497TIP3    H240687   3.823   4.887  11.185  0.4570 -0.9560  0.4531
 5498TIP3   OH240688   1.791   3.242  12.981 -0.2994  0.3957 -0.0075
 5498TIP3    H140689   1.781   3.285  12.896  1.3804  1.8407  0.4477
 5498TIP3    H240690   1.707   3.200  12.997 -0.1456 -1.4317 -3.1501
 5499TIP3   OH240691   6.425   6.502   9.474 -0.3445  0.2811  0.0953
 5499TIP3    H140692   6.454   6.412   9.456 -1.2631  0.0387 -0.2857
 5499TIP3    H240693   6.492   6.539   9.531  0.9701 -0.0552 -1.1817
 5500TIP3   OH240694   0.243   4.879  11.397 -0.0615  0.2038 -0.2913
 5500TIP3    H140695   0.294   4.944  11.348 -0.5274  0.6245 -0.2244
 5500TIP3    H240696   0.287   4.796  11.378 -0.0861  0.3886 -1.2389
 5501TIP3   OH240697   4.798   0.261  10.097  0.7845 -0.2538  0.2415
 5501TIP3    H140698   4.756   0.243  10.181  1.3868 -0.3094  0.5417
 5501TIP3    H240699   4.829   0.176  10.067  1.8568 -0.0426  0.6844
 5502TIP3   OH240700   6.147   3.564   9.521  0.5057  0.4872  0.0686
 5502TIP3    H140701   6.214   3.620   9.561 -1.6714  2.6078  0.9787
 5502TIP3    H240702   6.128   3.606   9.437 -1.9127  1.9141  1.2207
 5503TIP3   OH240703   3.520   3.918  11.323  0.1601 -0.4369 -0.1884
 5503TIP3    H140704   3.463   3.846  11.296 -0.5866  0.4213 -0.9529
 5503TIP3    H240705   3.513   3.920  11.418  0.7984 -1.8509 -0.0782
 5504TIP3   OH240706   3.433   0.505   9.791  0.6374 -0.3235 -0.1560
 5504TIP3    H140707   3.493   0.433   9.811  1.0419  0.2654  0.7979
 5504TIP3    H240708   3.375   0.510   9.867 -0.5598 -0.8034 -1.0137
 5505TIP3   OH240709   4.759   2.898  12.535  0.2919  0.1958  0.0637
 5505TIP3    H140710   4.800   2.832  12.480  0.0445  0.3471 -0.3035
 5505TIP3    H240711   4.806   2.893  12.618  0.1415 -0.5813  0.1054
 5506TIP3   OH240712   6.527   3.793  10.667 -0.0888 -0.4073 -0.0943
 5506TIP3    H140713   6.472   3.718  10.645  2.6145 -2.5815 -0.0228
 5506TIP3    H240714   6.535   3.789  10.763  0.1744 -0.0938 -0.1031
 5507TIP3   OH240715   1.430   1.169   9.877 -0.4736  0.2358  0.0068
 5507TIP3    H140716   1.392   1.176   9.964 -0.1825 -0.2288  0.1728
 5507TIP3    H240717   1.498   1.103   9.885  0.6360  1.3089 -0.1899
 5508TIP3   OH240718   3.931   6.346  10.679 -0.0190 -0.2218  0.0596
 5508TIP3    H140719   3.864   6.354  10.746 -1.4416  1.1808 -1.4216
 5508TIP3    H240720   4.013   6.368  10.724 -1.1039  2.0900  1.0918
 5509TIP3   OH240721   5.648   1.747   9.972 -0.0817  0.5846 -0.4394
 5509TIP3    H140722   5.716   1.752  10.039  0.7415 -0.2975 -1.1645
 5509TIP3    H240723   5.613   1.836   9.965  1.3174  1.1649 -0.3562
 5510TIP3   OH240724   0.611   1.584  11.696  0.6617 -0.1352  0.3224
 5510TIP3    H140725   0.612   1.646  11.623  1.7585 -1.4105 -0.7990
 5510TIP3    H240726   0.703   1.572  11.719  0.4065 -0.7220  1.0608
 5511TIP3   OH240727   0.945   6.322  11.643 -0.3366 -0.3326 -0.0357
 5511TIP3    H140728   0.914   6.260  11.577  0.6939 -1.7919  0.7962
 5511TIP3    H240729   0.978   6.267  11.714 -0.4209  1.1879  1.2402
 5512TIP3   OH240730   5.398   4.445  10.569  0.0603  0.5439  0.0899
 5512TIP3    H140731   5.321   4.411  10.613  1.5042 -1.5596  1.1678
 5512TIP3    H240732   5.451   4.483  10.640  0.5966  0.7665 -0.4206
 5513TIP3   OH240733   5.288   5.153  11.161 -0.0989  0.0222 -0.0781
 5513TIP3    H140734   5.328   5.083  11.212  0.0189  0.2696  0.1732
 5513TIP3    H240735   5.251   5.109  11.084 -0.4001 -0.3675  0.2888
 5514TIP3   OH240736   3.731   0.794  12.174 -0.2837 -0.2715  0.4125
 5514TIP3    H140737   3.819   0.807  12.210 -0.1704 -0.9796  0.4099
 5514TIP3    H240738   3.697   0.718  12.222 -0.5501 -0.5549 -0.2176
 5515TIP3   OH240739   5.009   3.086  11.579  0.4488  0.2690  0.7156
 5515TIP3    H140740   5.088   3.052  11.537  1.0620  2.4018 -0.0321
 5515TIP3    H240741   4.959   3.009  11.603  2.1337 -1.1266 -0.0118
 5516TIP3   OH240742   2.934   1.127  11.951  0.1797 -0.5568 -0.2859
 5516TIP3    H140743   2.914   1.124  12.044 -0.1749 -0.5061 -0.3597
 5516TIP3    H240744   3.026   1.101  11.946  0.1537 -0.7281  0.0615
 5517TIP3   OH240745   5.406   4.148  19.278  0.4414  0.4321 -0.2262
 5517TIP3    H140746   5.459   4.072  19.301  0.1015  0.1222 -0.4532
 5517TIP3    H240747   5.468   4.222  19.280  0.9048  0.0603 -0.6071
 5518TIP3   OH240748   2.008   4.816  10.286 -0.0360 -0.0489  0.0827
 5518TIP3    H140749   1.987   4.764  10.364  0.3716  0.2002  0.3665
 5518TIP3    H240750   2.084   4.771  10.248 -1.0922 -0.9919 -0.9766
 5519TIP3   OH240751   4.545   4.953   9.529  0.4154 -0.1832  0.1012
 5519TIP3    H140752   4.451   4.970   9.530  0.6866  1.5706  0.6077
 5519TIP3    H240753   4.562   4.902   9.608 -0.2907 -1.9467 -0.8252
 5520TIP3   OH240754   3.603   5.840   9.847 -0.2193  0.7358 -0.3449
 5520TIP3    H140755   3.658   5.770   9.812 -0.7386 -0.1683  0.6005
 5520TIP3    H240756   3.647   5.921   9.819  0.8256  0.0441 -0.7733
 5521TIP3   OH240757   5.815   3.546  11.675  0.0039  0.0286  0.1651
 5521TIP3    H140758   5.896   3.521  11.631  0.7166  0.8175  0.9839
 5521TIP3    H240759   5.801   3.478  11.741  0.2254  0.0985  0.2866
 5522TIP3   OH240760   1.627   2.419   9.352 -0.2338  0.3510 -0.2898
 5522TIP3    H140761   1.687   2.491   9.333 -0.8427  1.1578  0.7735
 5522TIP3    H240762   1.650   2.391   9.440 -0.2622 -0.5139 -0.5481
 5523TIP3   OH240763   6.392   0.884  10.656 -0.2619  0.6525 -0.1198
 5523TIP3    H140764   6.467   0.888  10.716  0.0227  0.9537 -0.4917
 5523TIP3    H240765   6.431   0.863  10.571 -0.8888 -2.3964  0.2297
 5524TIP3   OH240766   3.019   5.172  10.459 -0.3583 -0.5104  0.3925
 5524TIP3    H140767   2.964   5.097  10.483 -0.8940 -0.1911  0.1800
 5524TIP3    H240768   2.987   5.198  10.372 -1.2982  0.9939  1.1459
 5525TIP3   OH240769   1.211   5.818  11.223  0.1306  0.3042  0.5801
 5525TIP3    H140770   1.179   5.790  11.137 -2.0375  0.0935  1.3933
 5525TIP3    H240771   1.258   5.742  11.257  1.3480  0.5173 -0.5256
 5526TIP3   OH240772   2.769   2.769  11.273  0.5377  0.5582 -0.3065
 5526TIP3    H140773   2.741   2.852  11.312 -0.5507  1.4456 -2.7673
 5526TIP3    H240774   2.811   2.794  11.191  1.2204 -1.2794 -0.5506
 5527TIP3   OH240775   3.407   6.518  10.986  0.0944 -0.0435 -0.0240
 5527TIP3    H140776   3.381   6.519  11.077  0.8995  0.6001  0.2167
 5527TIP3    H240777   3.346   6.578  10.942  0.8427  1.0946  0.4434
 5528TIP3   OH240778   3.439   3.437  11.820 -0.1143 -0.3292 -0.1345
 5528TIP3    H140779   3.477   3.454  11.907  0.4817 -0.5540 -0.3455
 5528TIP3    H240780   3.349   3.408  11.839  0.3662 -1.4883  0.4839
 5529TIP3   OH240781   3.984   3.565  20.756  0.0733  0.5127 -0.2052
 5529TIP3    H140782   4.038   3.638  20.728  1.0840 -0.2156 -0.1935
 5529TIP3    H240783   4.004   3.495  20.693 -2.4018  0.8441 -1.4879
 5530TIP3   OH240784   4.463   4.993  12.751  0.0595 -0.1737 -0.9347
 5530TIP3    H140785   4.400   4.922  12.738  0.2560 -0.4175 -0.5547
 5530TIP3    H240786   4.547   4.956  12.722  0.1233 -0.0238 -0.9425
 5531TIP3   OH240787   3.605   2.163  10.680  0.2074 -0.2972 -0.3699
 5531TIP3    H140788   3.625   2.190  10.590  0.3133  0.0329 -0.2475
 5531TIP3    H240789   3.529   2.105  10.671  1.0366 -1.3679 -0.8167
 5532TIP3   OH240790   2.710   1.153   9.535 -0.1007 -0.5798  0.1703
 5532TIP3    H140791   2.699   1.248   9.528 -0.4920 -0.5510  0.9679
 5532TIP3    H240792   2.734   1.138   9.627 -0.2432 -1.2633  0.1067
 5533TIP3   OH240793   3.427   0.878  10.521 -0.4333 -0.1935  0.1904
 5533TIP3    H140794   3.361   0.812  10.502 -0.6298  0.1992 -0.5217
 5533TIP3    H240795   3.411   0.948  10.457  0.4596  0.0563  0.2177
 5534TIP3   OH240796   2.837   3.417  10.064 -0.0712  0.5318 -0.3016
 5534TIP3    H140797   2.890   3.354  10.112  0.9497  2.4117  1.1912
 5534TIP3    H240798   2.876   3.502  10.085 -2.2752  1.8127 -1.0233
 5535TIP3   OH240799   5.085   6.678  10.985 -0.1343 -0.0081  0.5290
 5535TIP3    H140800   5.056   6.623  10.912 -0.5203  0.0124  0.6636
 5535TIP3    H240801   5.072   6.768  10.955 -1.3559  0.0014  1.0267
 5536TIP3   OH240802   2.761   0.802   9.317 -0.1502 -0.2628  0.5095
 5536TIP3    H140803   2.702   0.877   9.312 -1.1242 -1.0715 -2.9189
 5536TIP3    H240804   2.709   0.732   9.357 -1.5614 -0.8593 -2.1413
 5537TIP3   OH240805   0.312   4.275  11.162 -0.0628 -0.8482  0.8589
 5537TIP3    H140806   0.348   4.325  11.235 -1.5683  1.7386  0.0005
 5537TIP3    H240807   0.383   4.273  11.097  0.2173 -0.2466  1.1326
 5538TIP3   OH240808   3.578   1.999  11.224 -0.0614  0.2502  0.1976
 5538TIP3    H140809   3.635   2.039  11.290 -0.3681  3.2928 -1.2237
 5538TIP3    H240810   3.594   2.049  11.144 -2.6262 -0.6835 -1.0190
 5539TIP3   OH240811   1.485   3.225   9.071 -0.4849  0.1457 -0.2463
 5539TIP3    H140812   1.553   3.293   9.074 -0.5018  0.3876 -3.1691
 5539TIP3    H240813   1.439   3.235   9.154  1.3576  1.7502  0.6743
 5540TIP3   OH240814   4.656   1.900  10.319 -0.1011 -0.3206 -0.2010
 5540TIP3    H140815   4.639   1.973  10.378 -1.0605  0.9078 -1.9160
 5540TIP3    H240816   4.639   1.822  10.372  3.2242  0.4918  2.4320
 5541TIP3   OH240817   0.572   2.827  10.862  0.5341 -0.1233 -0.2587
 5541TIP3    H140818   0.511   2.859  10.795 -1.0278 -1.4833  0.4447
 5541TIP3    H240819   0.541   2.867  10.943  0.2509 -1.2252  0.1860
 5542TIP3   OH240820   4.830   4.485  11.579 -0.2462  0.1238 -0.6374
 5542TIP3    H140821   4.756   4.502  11.520  0.1267 -0.1844 -1.2101
 5542TIP3    H240822   4.791   4.444  11.656 -0.5558 -1.1945 -1.4517
 5543TIP3   OH240823   1.257   0.041  12.874  0.5733 -0.0693 -0.2487
 5543TIP3    H140824   1.295   0.101  12.938 -0.3883  1.3163 -0.9254
 5543TIP3    H240825   1.283   0.077  12.789  0.1592 -0.7367 -0.6679
 5544TIP3   OH240826   4.741   6.050  10.518 -0.0988 -0.3774  0.3348
 5544TIP3    H140827   4.773   5.967  10.552  0.0826  0.1991  1.6074
 5544TIP3    H240828   4.703   6.094  10.593  0.2447  0.9022 -0.2201
 5545TIP3   OH240829   3.334   3.550  10.055  0.0033 -0.1296 -0.1722
 5545TIP3    H140830   3.388   3.473  10.068  0.3324 -0.2402 -1.8960
 5545TIP3    H240831   3.396   3.621  10.036 -0.3779 -0.0633 -1.2698
 5546TIP3   OH240832   6.577   4.481  12.415  0.4434  0.4620 -0.0369
 5546TIP3    H140833   6.522   4.503  12.491 -1.2899 -2.7191 -0.1941
 5546TIP3    H240834   6.518   4.435  12.355  2.6494 -0.5190 -1.5898
 5547TIP3   OH240835   0.707   5.053  11.448  0.3666  0.6592 -0.3563
 5547TIP3    H140836   0.673   4.966  11.470  1.4767  0.8789  2.5913
 5547TIP3    H240837   0.758   5.038  11.368 -0.8726 -1.0240 -0.8943
 5548TIP3   OH240838   0.570   4.496  11.147 -0.1553 -0.2536  0.2801
 5548TIP3    H140839   0.572   4.449  11.064 -0.4173 -0.3287  0.3133
 5548TIP3    H240840   0.655   4.538  11.153  0.0376 -0.6230  0.1887
 5549TIP3   OH240841   4.482   4.274  11.425  0.0175 -0.0544  0.0890
 5549TIP3    H140842   4.496   4.253  11.333 -2.0254 -2.1978  0.1778
 5549TIP3    H240843   4.526   4.204  11.472 -1.3918 -0.6303  0.6135
 5550TIP3   OH240844   0.817   4.283   9.362  0.3811  0.3720 -0.3476
 5550TIP3    H140845   0.832   4.193   9.332 -0.7858  0.4227 -1.1780
 5550TIP3    H240846   0.894   4.332   9.333  0.1834 -0.0032 -1.5607
 5551TIP3   OH240847   2.389   2.397   9.322  0.3478 -0.5146 -0.3696
 5551TIP3    H140848   2.463   2.435   9.369  0.1654 -0.1391 -0.3798
 5551TIP3    H240849   2.355   2.469   9.269 -0.6621 -0.3907  0.4167
 5552TIP3   OH240850   0.880   2.902  11.515  0.2421  0.6861 -0.2259
 5552TIP3    H140851   0.798   2.951  11.515  0.3194  0.8757 -1.6233
 5552TIP3    H240852   0.924   2.930  11.435  1.2816 -0.0541  0.0634
 5553TIP3   OH240853   1.300   5.518  11.213  0.2142  0.2269  0.1714
 5553TIP3    H140854   1.336   5.449  11.268 -0.2121 -0.1448 -0.0015
 5553TIP3    H240855   1.260   5.471  11.140  0.2178  0.6797 -0.1246
 5554TIP3   OH240856   5.403   2.383  10.493  0.6835  0.4157 -0.0598
 5554TIP3    H140857   5.346   2.455  10.466 -0.3403 -0.1041  0.6549
 5554TIP3    H240858   5.456   2.420  10.563 -1.1376  0.0246  1.6291
 5555TIP3   OH240859   0.471   6.483  12.090  0.3737  0.0921 -0.2869
 5555TIP3    H140860   0.432   6.473  12.177 -0.7377  1.6477 -0.5690
 5555TIP3    H240861   0.509   6.571  12.091 -1.7059  1.1170 -2.0928
 5556TIP3   OH240862   3.212   2.794  10.191 -0.0274 -0.3719  0.0004
 5556TIP3    H140863   3.232   2.716  10.244 -0.3744 -0.0746  0.5731
 5556TIP3    H240864   3.250   2.866  10.241 -0.3969 -0.0831 -0.1365
 5557TIP3   OH240865   0.172   0.026   9.343 -0.0269 -0.6069 -0.1843
 5557TIP3    H140866   0.162   0.121   9.338  1.9019 -0.2830  1.0933
 5557TIP3    H240867   0.095  -0.004   9.391  0.3026  0.5792  1.1505
 5558TIP3   OH240868   5.360   2.862  10.991  0.0999  0.6170  0.1065
 5558TIP3    H140869   5.438   2.808  10.996 -0.3486  0.0691  1.8519
 5558TIP3    H240870   5.353   2.902  11.078 -2.9131 -1.3848  0.9511
 5559TIP3   OH240871   2.640   5.153  11.522 -0.4789 -0.3980  0.2625
 5559TIP3    H140872   2.734   5.170  11.526 -0.8340  2.1740 -0.3814
 5559TIP3    H240873   2.618   5.125  11.611  0.7073  0.0924  0.7401
 5560TIP3   OH240874   4.089   1.314  10.867 -0.1331  0.6482  0.0449
 5560TIP3    H140875   4.084   1.221  10.844  1.7174 -0.0150  1.9769
 5560TIP3    H240876   3.999   1.339  10.886 -0.6632 -0.7299 -0.4967
 5561TIP3   OH240877   0.600   3.606  10.864  0.0021 -0.4197 -0.4420
 5561TIP3    H140878   0.647   3.524  10.882  0.6064 -0.0242 -0.2065
 5561TIP3    H240879   0.650   3.673  10.910 -0.6003  0.0609 -0.4776
 5562TIP3   OH240880   3.844   4.956  11.796 -0.3653  0.0897 -0.0109
 5562TIP3    H140881   3.828   4.962  11.702 -0.1548  0.1131 -0.0450
 5562TIP3    H240882   3.826   5.044  11.829  0.9441  0.4670 -0.2442
 5563TIP3   OH240883   1.633   1.252  12.365  0.2136  0.2228  0.5634
 5563TIP3    H140884   1.632   1.223  12.456 -3.4105 -2.0856 -0.0000
 5563TIP3    H240885   1.706   1.205  12.326  0.1133 -0.9570  1.7132
 5564TIP3   OH240886   0.451   3.770  11.205 -0.5503  0.4033  0.3199
 5564TIP3    H140887   0.525   3.810  11.250 -0.7564 -0.6286  1.6355
 5564TIP3    H240888   0.381   3.835  11.211  0.6645  2.2152 -2.5681
 5565TIP3   OH240889   0.457   2.150   9.584  0.4743  0.0722  0.3271
 5565TIP3    H140890   0.436   2.231   9.630 -2.3290 -0.8013  0.7432
 5565TIP3    H240891   0.482   2.178   9.496  1.3105  1.4587  0.9729
 5566TIP3   OH240892   3.369   1.533  12.124  0.1823 -0.3409 -0.9338
 5566TIP3    H140893   3.333   1.578  12.201  2.6900  0.2247 -0.0130
 5566TIP3    H240894   3.380   1.601  12.059 -2.0792 -0.8446 -1.9630
 5567TIP3   OH240895   1.584   3.447  10.042  0.1486 -0.6043 -0.0844
 5567TIP3    H140896   1.519   3.505  10.001  0.2689  1.2977  2.1605
 5567TIP3    H240897   1.582   3.367   9.990 -1.9064  0.4749 -1.8156
 5568TIP3   OH240898   0.622   6.351  10.611 -0.4532  0.3430 -0.8791
 5568TIP3    H140899   0.569   6.392  10.543  2.3640  2.6105 -1.8829
 5568TIP3    H240900   0.689   6.415  10.632  0.5779 -1.4592  1.9750
 5569TIP3   OH240901   2.936   0.627   9.156  1.2020 -0.0297  0.0778
 5569TIP3    H140902   3.021   0.671   9.161  0.8546  0.5661  1.2450
 5569TIP3    H240903   2.873   0.694   9.184  0.2043 -0.1198 -1.8224
 5570TIP3   OH240904   1.519   6.013  11.685  0.3162 -0.2714  0.0572
 5570TIP3    H140905   1.543   6.056  11.603  1.2163  1.6907  1.2633
 5570TIP3    H240906   1.477   5.932  11.658  0.2091  0.4907 -2.3422
 5571TIP3   OH240907   1.470   3.343  11.138 -0.1730 -0.1528  0.1544
 5571TIP3    H140908   1.478   3.329  11.043  2.3975  0.9122  0.1080
 5571TIP3    H240909   1.515   3.268  11.177 -0.2867 -0.0451  0.4943
 5572TIP3   OH240910   5.846   0.293   9.997 -0.5607  0.1694 -0.6234
 5572TIP3    H140911   5.859   0.386  10.016 -1.4041  0.1172  0.2622
 5572TIP3    H240912   5.765   0.270  10.043  0.8039 -1.5257  1.1036
 5573TIP3   OH240913   2.047   6.233  10.120  0.6972  0.0510  0.3979
 5573TIP3    H140914   2.076   6.301  10.059  0.2055 -0.5054 -0.4757
 5573TIP3    H240915   2.112   6.164  10.114 -0.9887 -1.4764 -2.0327
 5574TIP3   OH240916   4.189   1.948   9.734  0.1306 -0.7675 -0.0721
 5574TIP3    H140917   4.167   2.041   9.741  1.4955 -0.4473  0.3059
 5574TIP3    H240918   4.177   1.927   9.641  3.0110  0.6944 -0.9029
 5575TIP3   OH240919   1.850   0.323  11.334 -0.3289 -0.0800  0.2207
 5575TIP3    H140920   1.929   0.271  11.348 -1.5028 -1.7143  1.0648
 5575TIP3    H240921   1.834   0.316  11.240  0.5647  0.3489  0.0235
 5576TIP3   OH240922   2.031   4.601  10.485  0.0901  0.2200 -0.7290
 5576TIP3    H140923   2.122   4.608  10.455  0.5498 -1.2037  0.2504
 5576TIP3    H240924   1.997   4.523  10.442 -0.0079 -0.4366  0.5064
 5577TIP3   OH240925   1.431   0.916  12.053 -0.1704 -0.2444  0.1944
 5577TIP3    H140926   1.435   0.833  12.004 -0.0398 -0.2075  0.1453
 5577TIP3    H240927   1.486   0.976  12.004  0.2799 -0.3180  0.6015
 5578TIP3   OH240928   3.618   6.644   9.728  0.6102 -0.0564  0.0082
 5578TIP3    H140929   3.585   6.579   9.665 -0.4687  0.9471 -0.4952
 5578TIP3    H240930   3.592   6.728   9.691  2.6895  0.7456  0.2222
 5579TIP3   OH240931   3.196   6.424  10.023  0.3403  0.0830  0.4508
 5579TIP3    H140932   3.281   6.385  10.043  0.3465 -0.7377 -1.0254
 5579TIP3    H240933   3.213   6.519  10.027  1.5286 -0.0580 -0.5346
 5580TIP3   OH240934   1.775   0.539  10.040  0.3292 -0.7059  0.0442
 5580TIP3    H140935   1.778   0.562  10.132 -0.0628  1.4654 -0.4314
 5580TIP3    H240936   1.733   0.452  10.038 -2.0126  0.2882  1.7715
 5581TIP3   OH240937   2.403   1.406  10.268  0.2152  0.0014  0.5693
 5581TIP3    H140938   2.469   1.475  10.279 -0.0793  0.2317  0.9485
 5581TIP3    H240939   2.320   1.451  10.281 -0.0544 -0.1725 -0.4665
 5582TIP3   OH240940   2.917   4.669   9.550 -0.1733 -0.2719  0.0355
 5582TIP3    H140941   2.886   4.579   9.550 -0.9351 -0.0249  1.0560
 5582TIP3    H240942   2.988   4.670   9.613  0.3747 -0.3256 -0.5729
 5583TIP3   OH240943   5.081   0.038  11.625 -0.5762  0.6810 -0.1028
 5583TIP3    H140944   5.154   0.093  11.597 -1.8599  0.9221 -3.4614
 5583TIP3    H240945   5.003   0.090  11.606 -1.7535 -1.2751 -0.9118
 5584TIP3   OH240946   2.649   3.728  12.702  0.2816 -0.4039  0.3203
 5584TIP3    H140947   2.734   3.712  12.661  0.0527  1.2875 -0.9257
 5584TIP3    H240948   2.632   3.821  12.687 -1.9636 -0.7679  0.2093
 5585TIP3   OH240949   1.146   5.263  12.124  0.3977  0.0522 -0.3117
 5585TIP3    H140950   1.199   5.215  12.188 -1.4003 -0.9505  0.4986
 5585TIP3    H240951   1.209   5.292  12.058  2.3908  1.3966  2.0074
 5586TIP3   OH240952   6.449   5.208  11.857 -0.1440  0.4022 -0.1607
 5586TIP3    H140953   6.367   5.208  11.809 -0.9159 -0.8381  1.1030
 5586TIP3    H240954   6.510   5.159  11.801 -0.6545  0.1142 -0.4672
 5587TIP3   OH240955   1.210   4.603  10.719  0.6470 -0.4189 -0.4989
 5587TIP3    H140956   1.281   4.632  10.661  0.5506 -1.7199 -1.3099
 5587TIP3    H240957   1.253   4.551  10.786  0.5870 -0.2139 -0.3012
 5588TIP3   OH240958   5.669   2.528  12.897 -0.2577  0.3507 -0.2940
 5588TIP3    H140959   5.748   2.547  12.947 -0.0992 -0.5978 -0.1807
 5588TIP3    H240960   5.666   2.433  12.891 -1.7223  0.3353  0.2376
 5589TIP3   OH240961   5.250   0.912  12.583 -0.5829  0.6859 -0.4719
 5589TIP3    H140962   5.213   0.971  12.649 -0.6275  0.2996 -0.1456
 5589TIP3    H240963   5.260   0.829  12.629 -2.4442 -0.1457 -1.4656
 5590TIP3   OH240964   5.723   5.829   9.752  0.5170 -0.0949 -0.1327
 5590TIP3    H140965   5.668   5.764   9.709 -3.0466  1.6800  1.3253
 5590TIP3    H240966   5.733   5.899   9.687 -0.5016  0.3367  0.1565
 5591TIP3   OH240967   1.199   1.508  12.146 -0.1367  0.0495 -0.1682
 5591TIP3    H140968   1.118   1.463  12.121 -3.0697  3.4801  2.1380
 5591TIP3    H240969   1.239   1.450  12.211 -2.2267 -0.6031  0.6497
 5592TIP3   OH240970   0.091   2.701  12.106 -0.1758 -0.0983  0.2257
 5592TIP3    H140971   0.148   2.676  12.033  0.9599 -0.1493  1.0955
 5592TIP3    H240972   0.026   2.631  12.111 -0.0526 -0.2727 -0.5176
 5593TIP3   OH240973   1.096   5.314  11.801  0.5655 -0.1777 -0.2563
 5593TIP3    H140974   1.067   5.236  11.848 -1.1230  0.9037  0.5615
 5593TIP3    H240975   1.183   5.333  11.837  0.4447 -0.9366  0.4615
 5594TIP3   OH240976   3.560   4.182   9.251  0.4899  0.0800 -0.3164
 5594TIP3    H140977   3.555   4.126   9.328  0.4192  0.9336  0.3249
 5594TIP3    H240978   3.474   4.174   9.209  0.1154  0.5048  0.3519
 5595TIP3   OH240979   1.415   2.063   9.954  0.9260 -0.3412  0.1490
 5595TIP3    H140980   1.382   2.128  10.016 -0.1584 -1.6828  1.0191
 5595TIP3    H240981   1.340   2.005   9.938  2.0629 -1.8203 -0.0163
 5596TIP3   OH240982   0.948   0.614  12.722  0.4001  0.1937 -0.2242
 5596TIP3    H140983   0.938   0.641  12.813 -2.3693 -1.4916  0.1078
 5596TIP3    H240984   0.887   0.670  12.673 -0.6198 -1.0612 -0.4630
 5597TIP3   OH240985   5.026   4.671  10.374 -0.7156  0.5657  0.0304
 5597TIP3    H140986   5.100   4.730  10.355 -0.3560 -0.1076 -0.7144
 5597TIP3    H240987   4.959   4.695  10.310 -0.4758  0.0229 -0.4395
 5598TIP3   OH240988   1.089   4.668   9.523  0.1922 -0.1397 -0.9162
 5598TIP3    H140989   1.120   4.727   9.454 -1.0491  0.0023 -1.3727
 5598TIP3    H240990   1.169   4.630   9.560  1.2051  2.9629  0.4424
 5599TIP3   OH240991   2.348   4.931  10.471 -0.3348  0.5070  0.0898
 5599TIP3    H140992   2.432   4.932  10.518 -0.0467  0.7471 -0.4203
 5599TIP3    H240993   2.372   4.945  10.379 -0.7487 -1.5999 -0.3779
 5600TIP3   OH240994   1.769   0.107  11.762 -0.4989  0.1197  0.0625
 5600TIP3    H140995   1.799   0.196  11.746 -0.7752  0.2663  0.3491
 5600TIP3    H240996   1.838   0.051  11.725 -1.1293  0.4320 -1.7052
 5601TIP3   OH240997   3.088   1.726  11.976 -0.4200  0.0786 -0.0052
 5601TIP3    H140998   3.065   1.811  11.939  0.6385 -0.1445 -1.2460
 5601TIP3    H240999   3.138   1.682  11.907  1.1371 -0.5902  1.4852
 5602TIP3   OH241000   3.186   3.071  11.691 -0.2690 -0.4562  0.7857
 5602TIP3    H141001   3.261   3.012  11.683 -0.7629 -1.0358  0.2959
 5602TIP3    H241002   3.209   3.131  11.762  0.4853 -0.8794  0.9015
 5603TIP3   OH241003   1.168   5.876  10.549  0.1210  0.1872  0.1226
 5603TIP3    H141004   1.073   5.867  10.555  0.2637 -2.1069 -0.0804
 5603TIP3    H241005   1.192   5.933  10.622 -1.2191 -1.0438  1.5929
 5604TIP3   OH241006   4.897   2.992  10.497 -0.4433 -0.3916 -0.4332
 5604TIP3    H141007   4.824   3.052  10.512  1.1426  1.3866  0.8004
 5604TIP3    H241008   4.952   3.037  10.433  0.0238 -1.2568 -0.6566
 5605TIP3   OH241009   3.149   1.663   9.768 -0.0709 -0.2649 -0.3041
 5605TIP3    H141010   3.143   1.724   9.842 -2.0317  0.1555 -0.7560
 5605TIP3    H241011   3.161   1.577   9.808 -1.8191 -0.1345  0.5854
 5606TIP3   OH241012   3.799   0.350  10.784  0.0232 -0.3309 -0.2837
 5606TIP3    H141013   3.841   0.379  10.865  1.3366  0.9779 -1.3673
 5606TIP3    H241014   3.791   0.429  10.731 -1.0988 -1.1019 -1.3265
 5607TIP3   OH241015   5.570   5.809  11.511  0.3786  0.5897 -0.2845
 5607TIP3    H141016   5.604   5.734  11.560 -3.7243 -0.5043  1.2757
 5607TIP3    H241017   5.496   5.774  11.462 -0.7954  3.3758 -0.6714
 5608TIP3   OH241018   6.361   2.012  12.237 -0.1789  0.5028 -0.1710
 5608TIP3    H141019   6.272   1.978  12.224 -0.4157  0.9701  0.1987
 5608TIP3    H241020   6.365   2.035  12.330  1.6750 -3.3798  0.9312
 5609TIP3   OH241021   2.402   3.729  11.561 -0.0294  0.8473  0.4543
 5609TIP3    H141022   2.490   3.756  11.536 -0.7632  1.0412 -2.1449
 5609TIP3    H241023   2.344   3.788  11.513 -1.6101 -0.4952  0.6419
 5610TIP3   OH241024   0.820   3.670  11.864  0.3758 -0.5029 -0.3063
 5610TIP3    H141025   0.784   3.757  11.845  1.9018 -0.0883 -1.5283
 5610TIP3    H241026   0.788   3.615  11.793  1.8511 -0.1821 -1.2750
 5611TIP3   OH241027   4.882   3.749  10.927  0.4878 -0.0907  0.0491
 5611TIP3    H141028   4.894   3.726  10.835  0.3044  0.5716 -0.1460
 5611TIP3    H241029   4.805   3.806  10.928 -0.2129 -1.0044  0.7670
 5612TIP3   OH241030   1.577   3.672  10.282  0.2399  0.3176 -0.1984
 5612TIP3    H141031   1.499   3.726  10.288 -0.6869 -1.0774  1.1454
 5612TIP3    H241032   1.552   3.599  10.224  0.4317 -0.2965  0.4779
 5613TIP3   OH241033   6.718   5.422   9.673 -0.4829 -0.1232  0.8130
 5613TIP3    H141034   6.625   5.431   9.694 -0.5034  0.7562  0.4209
 5613TIP3    H241035   6.730   5.329   9.657 -1.5033 -0.1418  0.0089
 5614TIP3   OH241036   4.128   4.619  11.449 -0.5493 -0.1106  0.6705
 5614TIP3    H141037   4.206   4.673  11.461  1.7930 -2.4989 -2.0847
 5614TIP3    H241038   4.086   4.654  11.370  0.0779 -1.2094 -0.1878
 5615TIP3   OH241039   2.576   1.122   9.933 -0.1746  0.3101  0.1340
 5615TIP3    H141040   2.580   1.054   9.867  1.0291  0.9708 -0.5060
 5615TIP3    H241041   2.499   1.100   9.986 -0.2282 -1.1128 -0.4994
 5616TIP3   OH241042   1.129   3.970  12.088  0.4711 -0.1337  0.0382
 5616TIP3    H141043   1.162   3.928  12.008 -1.2322 -1.1077 -0.1901
 5616TIP3    H241044   1.043   3.931  12.103  1.0065 -0.5118  2.7583
 5617TIP3   OH241045   1.890   4.235  11.496 -0.2181 -0.3003  1.0392
 5617TIP3    H141046   1.870   4.141  11.493  0.0562 -0.3351 -0.1933
 5617TIP3    H241047   1.806   4.278  11.479 -0.3091 -0.3184  1.4291
 5618TIP3   OH241048   0.131   2.421  12.823 -0.8339 -0.2252 -0.2227
 5618TIP3    H141049   0.177   2.389  12.745 -1.6796  0.9591 -1.2538
 5618TIP3    H241050   0.039   2.415  12.800 -1.0603  1.5379  0.0887
 5619TIP3   OH241051   5.568   5.487   9.948 -0.3577 -0.1761  0.0706
 5619TIP3    H141052   5.530   5.552  10.007 -1.3129 -1.5684  1.0386
 5619TIP3    H241053   5.492   5.448   9.904  0.0945 -1.4405  0.3760
 5620TIP3   OH241054   4.631   4.816  10.421  0.4643  0.5054  0.0748
 5620TIP3    H141055   4.572   4.889  10.403  0.2357  0.6407  1.2613
 5620TIP3    H241056   4.612   4.752  10.352  0.7235  1.5782 -1.0252
 5621TIP3   OH241057   1.631   5.446  11.407  0.0443  0.0902  0.8234
 5621TIP3    H141058   1.620   5.528  11.360 -2.4813  0.0113  1.0931
 5621TIP3    H241059   1.713   5.456  11.455  0.8702  1.5707 -0.7826
 5622TIP3   OH241060   3.742   3.694  12.879 -0.8935  0.0293  0.0880
 5622TIP3    H141061   3.723   3.628  12.946 -2.6688  0.4925  0.0904
 5622TIP3    H241062   3.754   3.775  12.929 -0.3636  0.0304 -0.0354
 5623TIP3   OH241063   0.978   5.552  11.691  0.8979  0.3031  0.3559
 5623TIP3    H141064   1.019   5.466  11.701 -0.4637 -0.8914 -2.9891
 5623TIP3    H241065   0.893   5.544  11.735 -0.8990 -1.5538 -3.0622
 5624TIP3   OH241066   3.449   6.267  11.348 -0.2143  0.1318  0.1402
 5624TIP3    H141067   3.406   6.217  11.277 -1.1091  0.7180  0.2525
 5624TIP3    H241068   3.463   6.202  11.417  0.8812 -0.5006 -0.6471
 5625TIP3   OH241069   6.182   1.832  10.968  0.0883 -0.6787 -0.3650
 5625TIP3    H141070   6.143   1.918  10.954  1.1306  0.0886  1.1377
 5625TIP3    H241071   6.157   1.781  10.891 -1.3141  0.6791 -0.8491
 5626TIP3   OH241072   3.889   0.553  10.577 -0.1478  0.2600 -0.0252
 5626TIP3    H141073   3.916   0.636  10.615  0.5122  0.8572 -1.7001
 5626TIP3    H241074   3.971   0.509  10.554 -0.5150 -0.1891 -0.5139
 5627TIP3   OH241075   3.266   6.691   9.980  0.0358 -0.0669 -0.0988
 5627TIP3    H141076   3.211   6.765  10.003 -1.4027 -0.9563 -0.5780
 5627TIP3    H241077   3.354   6.729   9.970 -0.3307  1.2553  1.3343
 5628TIP3   OH241078   1.822   4.844   9.596  0.2325  0.0109 -0.0628
 5628TIP3    H141079   1.807   4.800   9.512 -0.1541  1.1810 -0.6353
 5628TIP3    H241080   1.867   4.779   9.649 -0.5719 -1.1727 -0.7613
 5629TIP3   OH241081   5.797   3.604  12.017 -0.2731  0.1999 -1.0822
 5629TIP3    H141082   5.809   3.645  12.102 -0.9263  0.0157 -0.8981
 5629TIP3    H241083   5.877   3.625  11.969 -0.4088  1.3412 -0.8512
 5630TIP3   OH241084   6.617   2.494  12.104 -0.1746  0.5758 -1.3162
 5630TIP3    H141085   6.523   2.510  12.111 -0.0997  1.3863 -2.0190
 5630TIP3    H241086   6.633   2.420  12.164 -0.7584  2.2697  1.0981
 5631TIP3   OH241087   1.477   0.660  11.949  0.4648  0.4365 -0.6429
 5631TIP3    H141088   1.566   0.689  11.927  0.3708  1.0360 -0.2683
 5631TIP3    H241089   1.450   0.607  11.874  0.3283  2.0422 -1.7886
 5632TIP3   OH241090   2.021   2.301  12.936  0.0368  0.2640  0.3718
 5632TIP3    H141091   2.005   2.285  13.029 -0.1444 -0.2791  0.2469
 5632TIP3    H241092   2.110   2.337  12.933  0.9019 -1.7171  0.5763
 5633TIP3   OH241093   5.259   2.876  12.590  0.9138  0.0419  0.2957
 5633TIP3    H141094   5.173   2.915  12.601 -0.1827 -1.4581 -2.1192
 5633TIP3    H241095   5.277   2.834  12.674 -0.2526  1.1776  1.1525
 5634TIP3   OH241096   6.409   6.437  11.649 -0.3710  0.1441 -0.6845
 5634TIP3    H141097   6.356   6.439  11.728 -0.4223 -0.2818 -0.7031
 5634TIP3    H241098   6.439   6.527  11.637 -0.0473  0.1378  0.0304
 5635TIP3   OH241099   1.039   3.217  12.117  0.3651  0.3265 -0.3271
 5635TIP3    H141100   1.000   3.137  12.152  1.1659 -0.3158 -0.8566
 5635TIP3    H241101   0.965   3.271  12.091 -0.3107  1.0822  2.7984
 5636TIP3   OH241102   1.128   1.825  11.968 -0.0532 -0.4720  0.5089
 5636TIP3    H141103   1.080   1.767  11.910  1.5658 -1.6447  0.2723
 5636TIP3    H241104   1.127   1.910  11.925  0.1670 -1.0637 -0.6841
 5637TIP3   OH241105   0.256   4.057  10.857 -0.3745 -0.1251  0.2737
 5637TIP3    H141106   0.296   4.021  10.777  0.6941 -0.6107  1.0029
 5637TIP3    H241107   0.234   4.147  10.834  0.3594 -0.1137 -0.4303
 5638TIP3   OH241108   3.226   1.896   9.227  0.0843 -0.3234 -0.3901
 5638TIP3    H141109   3.258   1.808   9.243  0.3261  0.3737  4.5766
 5638TIP3    H241110   3.305   1.949   9.215  0.0184 -0.4253 -1.4078
 5639TIP3   OH241111   4.928   0.740  10.345 -0.2863  0.3299 -0.1945
 5639TIP3    H141112   4.960   0.830  10.340  1.9544 -0.4325 -0.7284
 5639TIP3    H241113   4.987   0.698  10.408 -2.1348 -0.4766  1.0734
 5640TIP3   OH241114   1.851   3.456   9.685 -0.5426  0.2664 -0.0003
 5640TIP3    H141115   1.803   3.373   9.676  0.4261 -0.1217 -2.1608
 5640TIP3    H241116   1.785   3.523   9.669 -0.9722 -0.1368  0.0226
 5641TIP3   OH241117   2.907   3.801  11.016  0.2497  0.3659  0.2058
 5641TIP3    H141118   2.890   3.713  10.983  2.3400  0.3043 -0.8884
 5641TIP3    H241119   2.911   3.791  11.111 -0.2268 -0.5734  0.1343
 5642TIP3   OH241120   1.933   5.582  12.210  0.4802  0.7703 -0.0991
 5642TIP3    H141121   1.943   5.672  12.243 -0.4626  0.9470 -0.2633
 5642TIP3    H241122   1.983   5.582  12.128 -0.4698  1.5149 -0.7136
 5643TIP3   OH241123   5.454   6.551   9.902 -0.4671  0.1642 -0.0899
 5643TIP3    H141124   5.519   6.613   9.935  0.5726 -1.3903  0.9104
 5643TIP3    H241125   5.473   6.545   9.808  0.1800  0.4678  0.0187
 5644TIP3   OH241126   6.138   2.774  10.037  0.5400  0.4956 -0.1009
 5644TIP3    H141127   6.232   2.774  10.051  0.7475  1.1192 -1.3963
 5644TIP3    H241128   6.106   2.703  10.093  1.6133  1.0371  1.2673
 5645TIP3   OH241129   2.273   3.983  10.921  0.7205  0.8654 -0.3125
 5645TIP3    H141130   2.253   3.958  11.011  0.1388  1.2598 -0.3239
 5645TIP3    H241131   2.289   4.078  10.926  3.1043  0.5142 -0.2268
 5646TIP3   OH241132   3.168   4.422   9.562 -0.2433 -0.3169 -0.0521
 5646TIP3    H141133   3.119   4.481   9.619  0.9331 -0.1929  0.8726
 5646TIP3    H241134   3.215   4.480   9.502 -0.8574 -0.4207 -0.6522
 5647TIP3   OH241135   0.215   2.613   9.353  0.0578 -0.0148 -0.0796
 5647TIP3    H141136   0.245   2.632   9.264 -0.5389 -1.1295 -0.5429
 5647TIP3    H241137   0.189   2.521   9.350 -1.5367  0.3734  0.7988
 5648TIP3   OH241138   2.263   2.466  10.652 -0.1137 -0.5524  0.3188
 5648TIP3    H141139   2.211   2.429  10.581 -0.5704  1.5366 -0.5332
 5648TIP3    H241140   2.199   2.490  10.719 -0.0803  0.3558  0.0481
 5649TIP3   OH241141   1.867   3.391  10.104 -0.6543  0.1677 -0.0519
 5649TIP3    H141142   1.907   3.468  10.062 -1.1906  0.2706 -0.3781
 5649TIP3    H241143   1.773   3.408  10.101 -0.7254  0.0567  0.9633
 5650TIP3   OH241144   4.401   1.375  10.801 -0.6875  0.7381  0.0599
 5650TIP3    H141145   4.495   1.374  10.781 -0.8003 -0.3959 -0.5139
 5650TIP3    H241146   4.397   1.383  10.896  0.0164 -0.1505  0.1777
 5651TIP3   OH241147   0.527   5.584  10.284 -0.2457  0.0909  0.4885
 5651TIP3    H141148   0.519   5.542  10.198 -1.1919 -0.6310  0.9117
 5651TIP3    H241149   0.586   5.658  10.269 -0.5001  0.0560 -0.8089
 5652TIP3   OH241150   4.111   5.251   9.439 -0.2425  0.2842 -0.2837
 5652TIP3    H141151   4.067   5.258   9.524  2.7547  1.3522  1.3237
 5652TIP3    H241152   4.054   5.299   9.379 -2.5458 -0.6520  1.0076
 5653TIP3   OH241153   1.545   5.919  11.365  0.1665 -0.3205  0.5157
 5653TIP3    H141154   1.568   5.834  11.327 -1.9096 -0.2249 -1.1987
 5653TIP3    H241155   1.461   5.904  11.408  0.9868  0.3328  2.4149
 5654TIP3   OH241156   6.520   5.384  10.113 -0.4093  0.0890 -0.4427
 5654TIP3    H141157   6.509   5.479  10.112 -0.8562  0.0507  0.3479
 5654TIP3    H241158   6.489   5.356  10.026  2.2023  0.8859 -1.7469
 5655TIP3   OH241159   1.761   2.847  10.858 -0.7391 -0.5707  0.4006
 5655TIP3    H141160   1.788   2.779  10.919  1.3079  0.8243  1.1543
 5655TIP3    H241161   1.707   2.907  10.910 -1.4736 -0.9115  0.0551
 5656TIP3   OH241162   4.949   4.091  11.044  0.1219 -0.2717 -1.1111
 5656TIP3    H141163   5.034   4.048  11.044  0.2581 -0.0152 -1.8319
 5656TIP3    H241164   4.897   4.041  11.107  1.1219  0.2393  0.1652
 5657TIP3   OH241165   0.908   5.958  10.551 -0.7112  0.1020  0.1500
 5657TIP3    H141166   0.950   6.020  10.610 -0.4391 -1.4280  1.6285
 5657TIP3    H241167   0.836   6.007  10.512 -0.1538  1.5106  0.8289
 5658TIP3   OH241168   2.748   5.326  11.092  0.5123 -0.1881  0.4235
 5658TIP3    H141169   2.751   5.247  11.145 -0.6606 -1.4871 -1.3435
 5658TIP3    H241170   2.792   5.302  11.011  0.7772  1.2168  0.1301
 5659TIP3   OH241171   5.457   3.269   9.571  0.1547 -0.3776 -0.6167
 5659TIP3    H141172   5.514   3.265   9.494  1.5246  0.4419  0.3178
 5659TIP3    H241173   5.485   3.197   9.627 -0.3511 -0.5308 -0.5550
 5660TIP3   OH241174   0.754   0.092  10.206  0.3876  0.1110  0.2904
 5660TIP3    H141175   0.716   0.009  10.177  1.3869 -0.5873  0.9516
 5660TIP3    H241176   0.790   0.131  10.126 -0.8055  0.3229 -0.1699
 5661TIP3   OH241177   6.144   1.463  13.222  0.1223 -0.0798  0.5693
 5661TIP3    H141178   6.075   1.529  13.230 -0.3714 -0.5039 -0.0451
 5661TIP3    H241179   6.108   1.385  13.263 -0.2406 -0.6375 -0.7464
 5662TIP3   OH241180   6.415   3.114  12.163 -0.1157 -0.2585  0.2316
 5662TIP3    H141181   6.424   3.158  12.248  1.0308  2.2950 -1.1057
 5662TIP3    H241182   6.486   3.049  12.163 -0.5344 -0.7558  1.4524
 5663TIP3   OH241183   5.819   0.501   9.552 -0.4125  0.0404  0.5346
 5663TIP3    H141184   5.797   0.552   9.630 -0.6885  1.1717 -0.2593
 5663TIP3    H241185   5.915   0.497   9.552 -0.3790  0.8076  0.4517
 5664TIP3   OH241186   4.213   6.419  11.123  0.0528  0.1564  0.5974
 5664TIP3    H141187   4.305   6.443  11.138  0.2302  0.3557 -0.6686
 5664TIP3    H241188   4.163   6.488  11.165  0.5254  1.2102 -0.5230
 5665TIP3   OH241189   3.640   4.463  12.150 -0.2345 -0.6926 -0.0610
 5665TIP3    H141190   3.638   4.556  12.174 -2.9057 -0.4652 -0.8557
 5665TIP3    H241191   3.668   4.418  12.229 -0.2906  0.6717  0.7708
 5666TIP3   OH241192   5.167   6.159  11.913  0.1436 -0.4124  0.4606
 5666TIP3    H141193   5.233   6.096  11.883 -1.8635 -1.6513 -1.7774
 5666TIP3    H241194   5.083   6.115  11.896 -1.3210  2.2150  0.3739
 5667TIP3   OH241195   3.474   2.740   9.452  0.5038 -0.4767  0.3091
 5667TIP3    H141196   3.437   2.739   9.541 -0.2488  0.1220  0.0178
 5667TIP3    H241197   3.400   2.716   9.396  1.0003 -0.9404 -0.1537
 5668TIP3   OH241198   5.426   3.987  11.687 -0.0074 -0.1747 -0.3308
 5668TIP3    H141199   5.355   3.949  11.635  0.3519  0.8231 -1.6253
 5668TIP3    H241200   5.502   3.933  11.667 -0.0516 -0.2763 -0.2199
 5669TIP3   OH241201   3.448   6.535  11.312 -0.0416 -0.1069  0.5453
 5669TIP3    H141202   3.459   6.446  11.347 -1.3650 -0.4615  0.1135
 5669TIP3    H241203   3.363   6.533  11.268  0.8636  0.7413 -1.3579
 5670TIP3   OH241204   2.908   3.169  11.609 -0.2882 -0.1501 -0.4580
 5670TIP3    H141205   2.840   3.109  11.580 -0.2421 -1.0069  1.1228
 5670TIP3    H241206   2.987   3.116  11.615 -0.3177 -0.0471  1.2711
 5671TIP3   OH241207   2.579   0.394   9.938 -0.4854 -0.1793 -0.0891
 5671TIP3    H141208   2.509   0.411   9.875 -0.0218 -1.6347 -1.0484
 5671TIP3    H241209   2.533   0.363  10.016 -1.0230  0.8799  0.0280
 5672TIP3   OH241210   4.357   3.166  11.785  0.0436 -0.2110  0.1868
 5672TIP3    H141211   4.402   3.084  11.804  0.0059 -0.0634  0.9248
 5672TIP3    H241212   4.378   3.223  11.859  1.2019  0.9245 -0.9759
 5673TIP3   OH241213   6.281   3.378  10.078  0.2440 -0.5320 -0.4860
 5673TIP3    H141214   6.373   3.353  10.077  0.8748  1.4783 -3.0727
 5673TIP3    H241215   6.241   3.324  10.010  0.0092  0.1433 -0.8902
 5674TIP3   OH241216   6.485   4.721  11.506  0.4238  0.3357 -0.3252
 5674TIP3    H141217   6.460   4.760  11.590 -0.0727  1.4154 -0.9510
 5674TIP3    H241218   6.518   4.794  11.454 -0.4428 -0.0763 -1.5051
 5675TIP3   OH241219   0.991   0.728  12.382 -0.2004 -0.5807 -0.0378
 5675TIP3    H141220   0.919   0.754  12.439  0.4763 -2.2009  1.6558
 5675TIP3    H241221   0.984   0.786  12.306 -2.4339  0.2088  0.7006
 5676TIP3   OH241222   3.086   5.007  10.744  0.1191 -0.0006 -0.0907
 5676TIP3    H141223   3.162   5.044  10.789  0.9281  0.3679 -1.6819
 5676TIP3    H241224   3.069   4.925  10.790 -0.3305  1.2563  2.0974
 5677TIP3   OH241225   4.103   4.053  11.995 -0.3179  0.0314  0.6545
 5677TIP3    H141226   4.179   4.006  11.961 -0.7866  0.6423 -1.3835
 5677TIP3    H241227   4.049   3.986  12.037 -0.2793 -1.0379 -0.9136
 5678TIP3   OH241228   0.135   0.292  11.991  0.2637  0.5313 -0.5357
 5678TIP3    H141229   0.140   0.302  12.086  2.2210  1.8222 -0.7174
 5678TIP3    H241230   0.046   0.260  11.975 -0.1211  0.3178  1.7102
 5679TIP3   OH241231   0.040   1.256  12.778 -0.6386 -0.4679 -0.0916
 5679TIP3    H141232  -0.054   1.272  12.777 -0.4075  0.9189 -0.9337
 5679TIP3    H241233   0.057   1.207  12.698 -0.6183 -0.6097 -0.0016
 5680TIP3   OH241234   0.905   2.034  13.003  0.0584  0.5585 -0.1058
 5680TIP3    H141235   0.884   2.119  13.042 -1.2275  0.3687 -0.3362
 5680TIP3    H241236   0.821   1.989  12.997  0.8831 -1.3008  1.2922
 5681TIP3   OH241237   5.746   4.234  12.828 -0.0801  0.6816 -0.4228
 5681TIP3    H141238   5.715   4.166  12.769  0.4822 -0.3195  0.3935
 5681TIP3    H241239   5.840   4.215  12.839  0.4991  2.5927 -1.4860
 5682TIP3   OH241240   5.561   4.465   9.164 -0.4151 -0.5065  0.6832
 5682TIP3    H141241   5.586   4.532   9.101  0.1350 -1.3335 -0.0019
 5682TIP3    H241242   5.591   4.383   9.125 -0.2475 -1.0618  1.9223
 5683TIP3   OH241243   5.665   0.089   9.545  0.3652 -0.1243  0.1539
 5683TIP3    H141244   5.665   0.061   9.454  0.2362 -0.5427  0.2787
 5683TIP3    H241245   5.600   0.033   9.587  0.2019  0.2783  0.4377
 5684TIP3   OH241246   2.119   1.888  10.455  0.3067 -0.1309  0.4251
 5684TIP3    H141247   2.214   1.893  10.460  0.4255 -2.3520  1.7243
 5684TIP3    H241248   2.087   1.943  10.526  0.7080 -0.6563  1.0242
 5685TIP3   OH241249   1.668   0.968  11.283  0.2167  0.5216 -0.7152
 5685TIP3    H141250   1.669   0.874  11.265 -0.2848 -0.4914  3.5918
 5685TIP3    H241251   1.740   1.003  11.229  1.2931 -2.5104 -1.4574
 5686TIP3   OH241252   5.166   6.123  11.031 -0.6001  0.2873  0.3433
 5686TIP3    H141253   5.126   6.095  11.113  0.4607  0.7942  1.0505
 5686TIP3    H241254   5.231   6.188  11.056  0.9172 -0.7463 -0.7108
 5687TIP3   OH241255   2.230   0.612  12.490 -0.5280 -0.1802  0.3220
 5687TIP3    H141256   2.174   0.686  12.511 -1.3084 -1.0511  1.4661
 5687TIP3    H241257   2.181   0.535  12.519  0.6166 -1.0934 -0.0320
 5688TIP3   OH241258   5.425   3.963  12.549 -0.1232 -0.3200  0.4588
 5688TIP3    H141259   5.409   3.886  12.604 -0.3668 -1.6106 -1.3118
 5688TIP3    H241260   5.339   4.003  12.538 -0.4085 -1.1476 -0.4701
 5689TIP3   OH241261   1.035   0.033   9.554 -0.6769 -0.0764  0.7713
 5689TIP3    H141262   0.993   0.108   9.596 -3.5399 -0.1794 -1.5716
 5689TIP3    H241263   1.019  -0.040   9.614 -0.1423  0.6624  1.8498
 5690TIP3   OH241264   1.889   6.078  11.827  0.3173 -0.1102  0.2452
 5690TIP3    H141265   1.812   6.047  11.779  0.1135 -0.3161  0.7020
 5690TIP3    H241266   1.927   6.144  11.769 -1.0465  1.0920  0.6621
 5691TIP3   OH241267   5.624   4.716   9.030 -0.3421 -0.4600 -0.2544
 5691TIP3    H141268   5.711   4.735   9.066 -0.3345 -0.9629  0.0083
 5691TIP3    H241269   5.594   4.799   8.994  1.1520 -0.7342 -2.3083
 5692TIP3   OH241270   4.883   0.998  11.771 -0.4530  0.0256 -0.3601
 5692TIP3    H141271   4.954   0.936  11.787 -0.7162  0.1647  1.5068
 5692TIP3    H241272   4.839   0.964  11.692 -0.4511 -2.0584  0.4719
 5693TIP3   OH241273   5.215   6.370  10.548 -0.2568  0.0148 -0.1381
 5693TIP3    H141274   5.300   6.338  10.515 -0.8735 -0.8616 -0.9464
 5693TIP3    H241275   5.217   6.351  10.642  0.2352 -0.5062 -0.2450
 5694TIP3   OH241276   0.632   6.146  12.233  0.9265 -0.2836 -0.2757
 5694TIP3    H141277   0.549   6.192  12.246  0.4330 -0.6731 -1.8501
 5694TIP3    H241278   0.655   6.112  12.320 -0.1856  0.4280  0.3178
 5695TIP3   OH241279   2.984   0.001   9.293  0.3446 -0.3319 -0.7600
 5695TIP3    H141280   2.981  -0.034   9.204  1.9162 -1.1189 -0.5278
 5695TIP3    H241281   3.064   0.053   9.296  1.4409 -2.0059  0.7665
 5696TIP3   OH241282   1.889   5.429  11.767 -0.1390  0.1049  0.1787
 5696TIP3    H141283   1.960   5.439  11.704 -0.9737 -1.7603 -1.1608
 5696TIP3    H241284   1.821   5.489  11.737 -1.5232 -2.4542 -2.3408
 5697TIP3   OH241285   0.145   1.961  11.897 -0.2606 -0.6965 -0.0448
 5697TIP3    H141286   0.223   1.941  11.948  0.8258 -0.1841 -1.4210
 5697TIP3    H241287   0.107   1.876  11.876  0.8642 -1.0571 -0.7056
 5698TIP3   OH241288   1.515   4.334  12.702 -0.0621  0.5061 -0.3715
 5698TIP3    H141289   1.607   4.331  12.728  0.3584 -0.0527 -1.8201
 5698TIP3    H241290   1.466   4.333  12.784  1.2210  1.1068  0.4245
 5699TIP3   OH241291   4.916   4.705  12.699 -0.2521  0.0153  0.1568
 5699TIP3    H141292   4.863   4.631  12.670 -1.5163  0.6498  0.7498
 5699TIP3    H241293   4.951   4.677  12.784 -0.3702 -0.0706  0.1780
 5700TIP3   OH241294   5.326   0.817  12.318 -0.0144  0.2181 -0.4638
 5700TIP3    H141295   5.333   0.724  12.297 -0.2893 -0.2740  1.4846
 5700TIP3    H241296   5.296   0.820  12.409  1.6227  2.1935  0.1029
 5701TIP3   OH241297   3.813   1.752  11.509 -0.4972  0.1471 -0.1523
 5701TIP3    H141298   3.826   1.843  11.536 -2.0135 -0.1224  1.6511
 5701TIP3    H241299   3.718   1.745  11.495 -0.5366 -1.4100  0.7619
 5702TIP3   OH241300   3.940   0.867  11.353 -0.4899 -0.1634  0.1783
 5702TIP3    H141301   3.865   0.856  11.295 -0.2859  0.9560 -0.3187
 5702TIP3    H241302   3.948   0.782  11.397 -3.9526  0.5255  2.5924
 5703TIP3   OH241303   4.867   1.843  11.205  0.2544 -0.0456 -0.0474
 5703TIP3    H141304   4.863   1.755  11.169 -1.3611  0.4932 -1.3419
 5703TIP3    H241305   4.892   1.831  11.296  1.5459 -1.7083 -0.5648
 5704TIP3   OH241306   3.841   6.525  10.993 -0.5256 -0.6211 -0.3692
 5704TIP3    H141307   3.927   6.518  10.950  1.4336 -2.0643  3.3662
 5704TIP3    H241308   3.794   6.446  10.966  0.5413 -1.3517 -0.1569
 5705TIP3   OH241309   0.161   5.041  10.902 -0.3006 -0.4906 -0.0181
 5705TIP3    H141310   0.178   5.108  10.836  0.5810 -1.0932 -0.4279
 5705TIP3    H241311   0.085   4.994  10.869 -1.4085  0.7657  0.6591
 5706TIP3   OH241312   5.569   3.906  10.944 -0.0874 -0.8738  0.1560
 5706TIP3    H141313   5.634   3.927  11.011 -0.3012  0.1674  0.0581
 5706TIP3    H241314   5.565   3.811  10.943  2.0137 -1.0166 -0.3799
 5707TIP3   OH241315   4.296   6.536   9.683  0.4357  0.6149 -0.4200
 5707TIP3    H141316   4.302   6.453   9.731 -2.5612 -0.3018 -1.4044
 5707TIP3    H241317   4.244   6.592   9.740 -0.1374  0.7319 -1.0432
 5708TIP3   OH241318   0.467   3.433  12.092 -0.3470  0.0245 -0.2399
 5708TIP3    H141319   0.389   3.378  12.101 -1.5332  1.5982 -0.4976
 5708TIP3    H241320   0.434   3.517  12.059  1.5273  0.5724 -0.8478
 5709TIP3   OH241321   2.944   1.102  12.685 -0.3828  0.5674  0.4669
 5709TIP3    H141322   2.856   1.076  12.713 -1.0994  1.5409 -0.7549
 5709TIP3    H241323   2.997   1.023  12.695 -1.5503 -0.2298  0.5713
 5710TIP3   OH241324   6.439   1.926  11.024  0.0726  0.4063 -0.0873
 5710TIP3    H141325   6.458   1.975  10.945  0.8323 -0.0135 -0.1797
 5710TIP3    H241326   6.355   1.884  11.008  0.2854  0.2211 -0.7266
 5711TIP3   OH241327   6.624   5.054  12.210 -0.1884 -0.4471 -0.4535
 5711TIP3    H141328   6.578   5.016  12.285 -0.7691  0.5134 -0.2954
 5711TIP3    H241329   6.587   5.142  12.202  0.5497 -0.1971 -1.2827
 5712TIP3   OH241330   4.178   4.780  10.478  0.1324 -0.2640  0.1102
 5712TIP3    H141331   4.181   4.684  10.472 -1.9138 -0.4005  0.6327
 5712TIP3    H241332   4.158   4.798  10.569 -2.6522  0.4946 -0.5500
 5713TIP3   OH241333   2.714   5.165  10.681  0.3431 -0.2162  0.1115
 5713TIP3    H141334   2.651   5.231  10.650  1.2900 -0.2196 -2.0150
 5713TIP3    H241335   2.782   5.216  10.724  1.7416  0.4819 -2.6518
 5714TIP3   OH241336   3.777   4.122  11.485 -0.6239  0.1781 -0.0646
 5714TIP3    H141337   3.794   4.058  11.417  2.3034  1.2779 -0.4957
 5714TIP3    H241338   3.853   4.181  11.483 -1.2583  1.2987  2.9703
 5715TIP3   OH241339   0.073   0.557  12.506 -0.4703  0.0354  0.3097
 5715TIP3    H141340   0.033   0.551  12.593 -0.2079  1.7116  0.5638
 5715TIP3    H241341   0.072   0.650  12.485  1.8130 -0.0383 -0.3896
 5716TIP3   OH241342   2.098   2.823   9.889  0.0435 -0.1115 -0.1162
 5716TIP3    H141343   2.129   2.744   9.934 -0.5265  0.5382  1.5002
 5716TIP3    H241344   2.128   2.895   9.944  0.7274  0.8421 -1.6703
 5717TIP3   OH241345   4.835   2.808  11.349  0.3243  0.1109  0.3471
 5717TIP3    H141346   4.912   2.829  11.295  1.3435  2.5147  2.5255
 5717TIP3    H241347   4.765   2.862  11.312  0.0133 -0.9488 -0.6988
 5718TIP3   OH241348   0.665   0.818  10.312  0.1527 -0.1340  0.1625
 5718TIP3    H141349   0.721   0.856  10.244  0.5167  0.8762  1.0077
 5718TIP3    H241350   0.710   0.836  10.394 -0.6599 -0.6593  0.7474
 5719TIP3   OH241351   4.137   1.923  11.329 -0.0255 -0.2160 -0.0922
 5719TIP3    H141352   4.104   1.836  11.352  0.3272 -0.5798 -0.9316
 5719TIP3    H241353   4.230   1.921  11.350 -0.0715  0.0508  0.1472
 5720TIP3   OH241354   5.495   6.482  10.299  0.1363  0.8837 -0.3301
 5720TIP3    H141355   5.534   6.495  10.385  0.9534 -0.7118 -0.4291
 5720TIP3    H241356   5.403   6.506  10.311  0.7050  3.0541  0.3277
 5721TIP3   OH241357   3.639   4.764  10.146  0.5015  0.0980 -0.4248
 5721TIP3    H141358   3.687   4.681  10.140  2.0285  0.8735  0.3917
 5721TIP3    H241359   3.691   4.825  10.093  1.7451  1.4956  2.1900
 5722TIP3   OH241360   0.538   1.175  11.028 -0.4565 -0.8115 -0.5791
 5722TIP3    H141361   0.478   1.101  11.032 -1.5945  0.0679 -0.8835
 5722TIP3    H241362   0.530   1.209  10.939 -2.8492  1.9303  0.4930
 5723TIP3   OH241363   0.375   2.645  10.354 -0.1153 -0.2371  0.0610
 5723TIP3    H141364   0.370   2.728  10.308 -0.2459 -1.7674 -2.8776
 5723TIP3    H241365   0.398   2.669  10.444  0.5807  2.8826 -0.8364
 5724TIP3   OH241366   0.590   0.332  11.650  0.3377  0.2626  0.4827
 5724TIP3    H141367   0.557   0.391  11.582 -0.7121 -0.1443  0.6183
 5724TIP3    H241368   0.519   0.268  11.663  1.2249 -0.7125  0.7134
 5725TIP3   OH241369   6.232   1.321  10.872  0.0312 -0.0060  0.0611
 5725TIP3    H141370   6.299   1.389  10.883 -1.1078  0.9142  1.6536
 5725TIP3    H241371   6.175   1.332  10.948 -1.0085 -1.8246 -0.4287
 5726TIP3   OH241372   1.974   6.250   9.528 -0.3805  0.0850 -0.4369
 5726TIP3    H141373   2.057   6.297   9.525 -1.5905  2.3709 -0.7033
 5726TIP3    H241374   1.981   6.192   9.603  1.2329  0.6419 -0.1231
 5727TIP3   OH241375   2.667   1.228  11.554  0.6685  0.4410 -0.4827
 5727TIP3    H141376   2.761   1.214  11.547  0.6469  0.2601 -0.4377
 5727TIP3    H241377   2.650   1.311  11.511  0.8939  0.6275 -0.2108
 5728TIP3   OH241378   0.778   3.697  11.545 -0.0349  0.3525 -0.5088
 5728TIP3    H141379   0.733   3.760  11.489  0.1344  0.7794 -0.1655
 5728TIP3    H241380   0.807   3.748  11.620  0.9119  0.0548 -0.6623
 5729TIP3   OH241381   0.412   6.632   9.287  0.4488 -0.1768 -0.7898
 5729TIP3    H141382   0.336   6.678   9.321  1.9511  2.5027 -0.7663
 5729TIP3    H241383   0.432   6.676   9.204  2.0718 -0.6926 -0.7062
 5730TIP3   OH241384   1.538   0.326  11.054  0.1720  0.3192 -0.0382
 5730TIP3    H141385   1.514   0.353  11.143  0.3878 -0.5966  0.3097
 5730TIP3    H241386   1.455   0.305  11.012  0.1507 -0.3503  0.3250
 5731TIP3   OH241387   3.590   1.303  11.869  0.4724 -0.0297 -0.7444
 5731TIP3    H141388   3.517   1.301  11.807  0.5333  0.9886 -0.8614
 5731TIP3    H241389   3.655   1.244  11.830  0.9713  1.4350 -2.2722
 5732TIP3   OH241390   2.269   5.315  11.784 -0.3987 -0.9832  0.5076
 5732TIP3    H141391   2.200   5.317  11.718 -0.4076 -0.5716  0.5252
 5732TIP3    H241392   2.318   5.235  11.766  0.6898 -0.0096 -1.1223
 5733TIP3   OH241393   1.076   2.970  10.085 -0.1041 -0.8712 -0.2426
 5733TIP3    H141394   1.035   2.884  10.072 -0.1464 -0.8109 -0.5019
 5733TIP3    H241395   1.130   2.959  10.163 -0.6927 -0.9254  0.1686
 5734TIP3   OH241396   6.710   6.463  10.656  0.6171 -0.9322 -0.0797
 5734TIP3    H141397   6.674   6.375  10.657  0.8473 -1.0269  0.0854
 5734TIP3    H241398   6.755   6.471  10.740  3.5590 -1.9195 -1.4015
 5735TIP3   OH241399   3.898   0.910  12.717 -0.7845  0.4775 -0.3238
 5735TIP3    H141400   3.824   0.965  12.740 -1.9140 -0.5925 -1.2192
 5735TIP3    H241401   3.948   0.961  12.653 -1.3612  0.7901 -0.5306
 5736TIP3   OH241402   1.350   5.238   9.476  0.0494  0.1798  0.2893
 5736TIP3    H141403   1.278   5.253   9.415  0.0970 -0.5351  0.0537
 5736TIP3    H241404   1.308   5.228   9.561 -0.0209  1.1270  0.3744
 5737TIP3   OH241405   0.883   5.838   9.825 -0.5181  0.1723 -0.0289
 5737TIP3    H141406   0.894   5.805   9.736  2.0111 -0.6258  0.5019
 5737TIP3    H241407   0.872   5.932   9.814  0.6886  0.2090 -1.1571
 5738TIP3   OH241408   0.941   5.702  10.374  0.0973  0.4764  0.2349
 5738TIP3    H141409   0.957   5.618  10.417 -0.9901  0.3296  0.3871
 5738TIP3    H241410   0.919   5.762  10.445 -0.0138  0.6646  0.0419
 5739TIP3   OH241411   1.455   3.931   9.098 -0.4913  0.0061 -0.3201
 5739TIP3    H141412   1.500   4.012   9.120 -1.0440  1.1754 -3.0756
 5739TIP3    H241413   1.370   3.938   9.142  0.6062 -0.6602  2.0972
 5740TIP3   OH241414   1.357   0.592  10.434  0.4994 -0.0206 -0.3845
 5740TIP3    H141415   1.274   0.571  10.477  0.9290  1.3661  1.2201
 5740TIP3    H241416   1.332   0.629  10.350 -0.4222 -1.3382 -0.7282
 5741TIP3   OH241417   1.091   4.977   9.448  0.2225 -0.3531 -0.4075
 5741TIP3    H141418   1.090   5.072   9.450 -0.1236 -0.3091 -1.7940
 5741TIP3    H241419   1.179   4.953   9.477  1.2471  0.4917 -2.6393
 5742TIP3   OH241420   6.078   4.701  12.065  0.0344  0.0372 -0.7660
 5742TIP3    H141421   6.098   4.729  11.976 -1.7755 -0.0696 -1.2490
 5742TIP3    H241422   5.982   4.702  12.069  0.0702 -0.6950  0.9458
 5743TIP3   OH241423   6.603   3.498  20.329  0.2435  0.7013 -0.0637
 5743TIP3    H141424   6.598   3.586  20.291  0.0480  0.6284 -0.2032
 5743TIP3    H241425   6.697   3.482  20.339  0.2779  1.8049  1.9988
 5744TIP3   OH241426   4.413   5.865  11.429 -0.2921 -0.3928  0.5591
 5744TIP3    H141427   4.364   5.827  11.356  1.4275 -0.0539 -0.8577
 5744TIP3    H241428   4.346   5.893  11.491 -1.8368 -0.6501 -0.9152
 5745TIP3   OH241429   6.079   6.227  11.580  0.4424 -0.2866  0.0840
 5745TIP3    H141430   6.059   6.204  11.489 -1.6889  1.5069  0.0204
 5745TIP3    H241431   5.994   6.244  11.620  1.4411  0.6987  1.9358
 5746TIP3   OH241432   0.595   1.765  10.445 -0.0312  0.1745  0.4095
 5746TIP3    H141433   0.557   1.846  10.477 -0.8318 -0.4499  1.0950
 5746TIP3    H241434   0.652   1.735  10.517  0.6308  0.3651 -0.0286
 5747TIP3   OH241435   2.646   5.377   9.967 -0.4631  0.3617  0.1753
 5747TIP3    H141436   2.732   5.384  10.008 -0.7584 -0.5977  0.9886
 5747TIP3    H241437   2.637   5.458   9.916  1.2778  0.0909 -0.6264
 5748TIP3   OH241438   3.873   2.925  12.496 -0.1333  0.2826  0.2762
 5748TIP3    H141439   3.804   2.962  12.551  0.4175 -0.1308  1.2678
 5748TIP3    H241440   3.938   2.995  12.487 -1.0295  0.9515 -1.3304
 5749TIP3   OH241441   2.544   6.167  11.795 -0.4954 -0.1026 -0.0184
 5749TIP3    H141442   2.550   6.256  11.760 -0.7358 -0.1197 -0.1091
 5749TIP3    H241443   2.623   6.156  11.847 -0.0998 -0.0994 -0.6089
 5750TIP3   OH241444   0.577   0.545   9.474  0.3337  0.3541 -0.1590
 5750TIP3    H141445   0.551   0.453   9.473  0.2075  0.2685  2.6887
 5750TIP3    H241446   0.671   0.544   9.493  0.1387  0.7882  0.9241
 5751TIP3   OH241447   4.329   2.642  12.057  0.1927 -0.3766 -0.4219
 5751TIP3    H141448   4.265   2.613  12.122  1.6383 -0.9415  0.8041
 5751TIP3    H241449   4.350   2.732  12.083  2.0977 -1.1978  1.0289
 5752TIP3   OH241450   5.883   4.473  12.015 -0.1157  0.3273  0.5191
 5752TIP3    H141451   5.920   4.440  12.097 -0.3411 -0.0755  0.4617
 5752TIP3    H241452   5.861   4.565  12.034 -0.3735  0.1744  0.9820
 5753TIP3   OH241453   3.130   3.184  10.067 -0.0800  0.1853 -0.1921
 5753TIP3    H141454   3.068   3.123  10.107 -1.6776  1.4759 -0.6221
 5753TIP3    H241455   3.181   3.218  10.140  1.2758 -2.0487  0.0072
 5754TIP3   OH241456   5.197   1.778  10.781 -0.1298 -0.0176  0.2470
 5754TIP3    H141457   5.216   1.711  10.715  0.0188  1.8158 -1.6720
 5754TIP3    H241458   5.124   1.742  10.832 -0.7726 -1.1654 -1.4155
 5755TIP3   OH241459   2.960   6.084  10.200 -0.2150 -0.2412 -0.3406
 5755TIP3    H141460   3.019   6.085  10.125 -0.1024 -1.5373 -0.2940
 5755TIP3    H241461   3.013   6.118  10.272 -0.2300  0.7159 -0.7666
 5756TIP3   OH241462   1.704   6.218  10.662  0.4163 -0.3260  0.0175
 5756TIP3    H141463   1.697   6.302  10.616  0.1604  0.0533  0.7451
 5756TIP3    H241464   1.794   6.216  10.695 -0.1322  0.5729  1.6976
 5757TIP3   OH241465   6.398   3.519   9.298 -0.2573 -0.2168  0.4886
 5757TIP3    H141466   6.426   3.542   9.209  2.9883  0.1722  1.5033
 5757TIP3    H241467   6.305   3.497   9.288 -0.5450  1.7532 -2.6288
 5758TIP3   OH241468   5.964   2.034  10.497 -0.0716 -0.1498  0.1023
 5758TIP3    H141469   5.899   1.983  10.449 -0.2185 -0.7255  0.8872
 5758TIP3    H241470   5.946   2.125  10.473 -0.0274 -0.4229 -1.0510
 5759TIP3   OH241471   6.498   3.837   8.939  0.3484  0.2508  0.1621
 5759TIP3    H141472   6.573   3.781   8.960  2.0442  1.7353 -1.4975
 5759TIP3    H241473   6.526   3.925   8.964 -0.6393  0.9076 -0.9406
 5760TIP3   OH241474   3.173   5.025  10.031  0.0985  0.0611 -0.3175
 5760TIP3    H141475   3.123   5.107  10.033  1.1801  0.7480 -0.4413
 5760TIP3    H241476   3.196   5.008  10.122  1.3164  0.8301 -0.4629
 5761TIP3   OH241477   0.592   0.869   9.942 -0.1489 -0.7809 -0.1317
 5761TIP3    H141478   0.594   0.962   9.917  0.8356 -0.6663  0.3086
 5761TIP3    H241479   0.539   0.867  10.022  1.2567 -0.3139  0.8502
 5762TIP3   OH241480   3.784   4.414  11.702  0.0936  0.4805  0.3266
 5762TIP3    H141481   3.703   4.380  11.739 -0.1323 -0.0348 -0.6135
 5762TIP3    H241482   3.852   4.356  11.735 -0.3898 -1.5951 -2.0156
 5763TIP3   OH241483   2.847   6.164   9.427 -0.1048  0.3266  0.5174
 5763TIP3    H141484   2.752   6.173   9.431 -0.2073 -0.7301  0.8519
 5763TIP3    H241485   2.862   6.086   9.373  0.6193  1.1641 -0.5355
 5764TIP3   OH241486   0.610   5.483  11.154 -0.4753 -0.3206 -0.2603
 5764TIP3    H141487   0.705   5.475  11.149 -0.2680  0.9335  0.9642
 5764TIP3    H241488   0.595   5.574  11.181 -2.0316 -0.4462 -0.5748
 5765TIP3   OH241489   1.920   2.131   9.777 -0.4608 -0.0311  0.3718
 5765TIP3    H141490   1.850   2.184   9.739  0.3768  0.9008  0.0751
 5765TIP3    H241491   1.875   2.068   9.833 -1.5941 -0.2265 -0.7328
 5766TIP3   OH241492   3.523   2.400   9.805 -0.2413 -0.2846  0.2898
 5766TIP3    H141493   3.509   2.305   9.810  0.9226 -0.5666 -1.1978
 5766TIP3    H241494   3.598   2.410   9.748 -0.8482  1.5930 -0.2367
 5767TIP3   OH241495   0.167   4.014  12.522 -0.8721 -0.3293  0.0352
 5767TIP3    H141496   0.228   3.954  12.564  0.7007  0.9645 -0.2665
 5767TIP3    H241497   0.099   4.030  12.587 -0.4468 -1.1842  0.6995
 5768TIP3   OH241498   2.094   3.693   9.097  0.0662 -0.6612  0.2518
 5768TIP3    H141499   2.088   3.598   9.104  1.0512 -0.7269  0.3747
 5768TIP3    H241500   2.011   3.725   9.131 -0.4720 -1.4917 -0.2473
 5769TIP3   OH241501   2.533   4.555   9.180  0.0085  0.3437 -0.0282
 5769TIP3    H141502   2.618   4.595   9.197  0.3648 -0.7718  0.9441
 5769TIP3    H241503   2.535   4.534   9.087  0.1719  1.7094 -0.3510
 5770TIP3   OH241504   1.883   3.763   9.286  0.0632  0.7248  0.2312
 5770TIP3    H141505   1.923   3.713   9.357 -0.0409  1.3446  0.7287
 5770TIP3    H241506   1.793   3.777   9.313 -0.2149  0.2276 -0.4189
 5771TIP3   OH241507   6.113   2.866  12.380  0.0180 -0.3315  0.5826
 5771TIP3    H141508   6.109   2.947  12.431  0.3264 -0.0239  0.1336
 5771TIP3    H241509   6.206   2.853  12.362 -0.0862 -0.4295  0.0988
 5772TIP3   OH241510   1.438   1.338  12.754 -0.0277  0.3102  0.1273
 5772TIP3    H141511   1.510   1.311  12.698  0.5498  1.7014  0.1787
 5772TIP3    H241512   1.459   1.302  12.840 -0.4392 -1.0132 -0.3033
 5773TIP3   OH241513   6.008   1.541   9.375 -0.3681  0.0975  0.6155
 5773TIP3    H141514   5.975   1.581   9.295 -0.7281 -1.1543  0.1287
 5773TIP3    H241515   5.968   1.593   9.445 -0.7412  0.6501  0.0053
 5774TIP3   OH241516   1.872   2.965  11.335 -0.0029  0.2239  0.4044
 5774TIP3    H141517   1.833   2.882  11.306 -0.2406  0.0131  1.3081
 5774TIP3    H241518   1.958   2.940  11.370 -0.3822  0.2399  1.3813
 5775TIP3   OH241519   1.628   3.896   9.573 -0.0423 -0.1915 -0.1255
 5775TIP3    H141520   1.544   3.942   9.586 -1.5577 -2.4198 -1.3786
 5775TIP3    H241521   1.691   3.966   9.558 -1.5783  1.6024  1.2045
 5776TIP3   OH241522   4.490   4.558  10.933 -0.1463  0.1248 -0.8376
 5776TIP3    H141523   4.480   4.474  10.887 -0.3610  0.2569 -1.0349
 5776TIP3    H241524   4.580   4.557  10.965 -1.2298 -1.9835  2.6745
 5777TIP3   OH241525   5.558   0.813   9.669 -0.2727  0.7325 -0.8301
 5777TIP3    H141526   5.592   0.728   9.700  0.1820  1.6634  1.4058
 5777TIP3    H241527   5.475   0.791   9.626 -0.0787 -0.8592 -0.4628
 5778TIP3   OH241528   0.280   0.155   9.864 -0.1184  0.4698 -0.4669
 5778TIP3    H141529   0.250   0.088   9.926 -0.9732 -0.0753 -1.4395
 5778TIP3    H241530   0.367   0.180   9.896 -0.6281  0.3507  1.0529
 5779TIP3   OH241531   4.980   5.743  10.949 -0.2142 -0.7382  0.4837
 5779TIP3    H141532   4.949   5.796  11.022  1.9108 -0.7849  1.4994
 5779TIP3    H241533   4.921   5.669  10.946 -2.3637  0.9054 -0.0288
 5780TIP3   OH241534   0.682   3.180  10.835  0.2006  0.0779  0.8619
 5780TIP3    H141535   0.720   3.254  10.880 -1.4242  1.3717  0.2119
 5780TIP3    H241536   0.715   3.186  10.746 -0.8558  0.7627  0.4944
 5781TIP3   OH241537   6.622   3.177   9.302  0.3099 -0.1998  0.3418
 5781TIP3    H141538   6.705   3.193   9.256  0.6154  0.6787  1.1662
 5781TIP3    H241539   6.577   3.262   9.302 -0.5745 -0.6560 -0.0461
 5782TIP3   OH241540   3.371   2.857   9.964  0.4596 -0.1613 -0.1816
 5782TIP3    H141541   3.417   2.893  10.039  0.9663 -0.8870 -0.1350
 5782TIP3    H241542   3.283   2.838   9.997  1.0585 -1.7028  0.6111
 5783TIP3   OH241543   3.194   5.136  11.556  0.6484 -0.0714 -0.6357
 5783TIP3    H141544   3.172   5.128  11.649  0.7286 -0.3577 -0.6409
 5783TIP3    H241545   3.279   5.180  11.556  0.3575  0.4969 -0.5948
 5784TIP3   OH241546   2.063   5.918  12.768 -1.6218  0.0868 -0.0689
 5784TIP3    H141547   2.022   5.831  12.767 -0.9937 -0.2399  0.9287
 5784TIP3    H241548   2.081   5.937  12.676  0.4920 -1.9367 -0.1624
 5785TIP3   OH241549   3.903   3.326   9.909  0.2250 -0.0220  0.1397
 5785TIP3    H141550   3.930   3.240   9.940 -0.4007 -0.3936 -0.3103
 5785TIP3    H241551   3.981   3.380   9.917  0.1750 -0.1662  2.0672
 5786TIP3   OH241552   1.015   2.111   9.192 -0.2893 -0.1502  0.1903
 5786TIP3    H141553   1.036   2.139   9.281 -0.3837  0.1293  0.1251
 5786TIP3    H241554   0.947   2.045   9.203  1.3407 -1.8587  0.4806
 5787TIP3   OH241555   3.830   0.743  10.972 -0.3274 -0.3288  0.6541
 5787TIP3    H141556   3.799   0.818  11.023  0.6170 -0.4408  1.4095
 5787TIP3    H241557   3.763   0.731  10.904  0.4138  2.4432 -0.7442
 5788TIP3   OH241558   2.562   6.166   9.424 -0.1697 -0.2222 -0.1334
 5788TIP3    H141559   2.506   6.129   9.355  0.4203 -0.9563 -0.2278
 5788TIP3    H241560   2.504   6.176   9.499 -1.2331  2.0874 -1.1615
 5789TIP3   OH241561   5.527   2.538  13.201 -0.0764 -0.2880  0.1114
 5789TIP3    H141562   5.515   2.475  13.272 -0.6316 -0.1920  0.1085
 5789TIP3    H241563   5.598   2.502  13.148 -0.7719 -1.2012 -0.2118
 5790TIP3   OH241564   5.707   5.228   9.629 -0.3185 -0.4754 -0.4559
 5790TIP3    H141565   5.719   5.317   9.596  0.9386  0.0838  1.3401
 5790TIP3    H241566   5.783   5.213   9.686 -0.6694 -2.5817 -0.4442
 5791TIP3   OH241567   4.513   2.179  11.746  0.1174  0.0640 -0.4149
 5791TIP3    H141568   4.568   2.209  11.673 -0.8759 -1.9867 -2.1022
 5791TIP3    H241569   4.425   2.208  11.722 -0.2736 -0.9615 -0.2383
 5792TIP3   OH241570   0.910   1.575  10.354  0.0042  0.1708  0.5151
 5792TIP3    H141571   0.986   1.570  10.297  0.1615 -0.7656  0.7844
 5792TIP3    H241572   0.850   1.635  10.310  0.9682  1.0675  0.3939
 5793TIP3   OH241573   4.103   0.350  10.537 -0.1940 -0.0629 -0.2910
 5793TIP3    H141574   4.117   0.285  10.606 -0.5797 -0.1067 -0.2516
 5793TIP3    H241575   4.113   0.301  10.455 -2.8157 -0.7312 -0.2917
 5794TIP3   OH241576   6.419   5.109   9.942 -0.1940  0.4567  0.1835
 5794TIP3    H141577   6.404   5.035  10.000  0.2535 -1.1403 -1.6089
 5794TIP3    H241578   6.515   5.119   9.941 -0.3015  2.1551  1.6226
 5795TIP3   OH241579   0.874   4.221  11.163 -0.2377  0.1168 -0.0196
 5795TIP3    H141580   0.871   4.294  11.102  0.5791 -0.0717 -0.2889
 5795TIP3    H241581   0.938   4.247  11.229 -2.0476  0.8856  1.5142
 5796TIP3   OH241582   4.567   3.765  12.076 -0.0101 -0.5307 -0.4187
 5796TIP3    H141583   4.591   3.688  12.024  0.9474 -0.2256 -0.4441
 5796TIP3    H241584   4.641   3.824  12.067 -0.2940 -0.0260  0.4373
 5797TIP3   OH241585   4.089   6.466  11.384  0.1769 -0.2362 -0.0873
 5797TIP3    H141586   4.064   6.378  11.413  1.6631 -1.0027 -1.0287
 5797TIP3    H241587   4.026   6.487  11.315 -2.7471  1.1870  2.7378
 5798TIP3   OH241588   5.797   1.268  11.009 -0.1003  0.3855 -0.0789
 5798TIP3    H141589   5.844   1.351  10.997  1.8528 -0.6958 -0.2466
 5798TIP3    H241590   5.862   1.208  11.045 -0.6551 -1.8301 -2.4482
 5799TIP3   OH241591   6.225   6.629  12.099 -0.3317  0.1254 -0.3620
 5799TIP3    H141592   6.243   6.562  12.165 -1.7615  0.6685  0.6166
 5799TIP3    H241593   6.312   6.660  12.073  0.2856  0.4183  1.8371
 5800TIP3   OH241594   6.143   6.571  11.714 -0.2496  0.4036  0.5324
 5800TIP3    H141595   6.142   6.563  11.618  0.4187  1.4950  0.4167
 5800TIP3    H241596   6.087   6.500  11.744  0.1050 -0.4099 -0.6369
 5801TIP3   OH241597   1.054   4.027   8.896  0.5247 -0.6555 -0.0337
 5801TIP3    H141598   0.996   3.959   8.933  1.5304 -1.4647  0.0974
 5801TIP3    H241599   1.094   3.985   8.820 -1.4340  0.9559 -2.0687
 5802TIP3   OH241600   4.492   1.097  11.994 -0.0748 -0.2061 -0.5247
 5802TIP3    H141601   4.582   1.107  12.025  0.0490  1.5756 -1.3146
 5802TIP3    H241602   4.452   1.036  12.055  1.9291 -1.8462 -0.7295
 5803TIP3   OH241603   3.934   3.751  10.554 -0.2815  0.2902 -0.2990
 5803TIP3    H141604   3.928   3.725  10.463  0.4093 -0.1798 -0.2247
 5803TIP3    H241605   3.844   3.751  10.586 -0.6204  1.2753 -1.1860
 5804TIP3   OH241606   4.545   3.972  12.304 -0.4036  0.2050  0.2710
 5804TIP3    H141607   4.494   4.028  12.245 -0.9589  0.5871  1.0994
 5804TIP3    H241608   4.618   4.027  12.332 -0.1199  0.0117 -0.0849
 5805TIP3   OH241609   0.664   6.565  10.177  0.4375 -0.2517  0.5270
 5805TIP3    H141610   0.623   6.499  10.122  2.4058 -1.7140  0.6946
 5805TIP3    H241611   0.599   6.584  10.245 -0.9937 -0.3728 -0.7739
 5806TIP3   OH241612   4.070   4.359  11.064 -0.7341  0.0554 -0.4793
 5806TIP3    H141613   3.985   4.352  11.107 -0.5621  0.7780 -0.0044
 5806TIP3    H241614   4.130   4.385  11.134 -0.1077 -0.4824 -0.8016
 5807TIP3   OH241615   4.313   6.645  10.789 -0.1237 -0.0585 -0.6603
 5807TIP3    H141616   4.311   6.645  10.693  2.2370  0.8544 -0.7933
 5807TIP3    H241617   4.339   6.734  10.812 -4.8287  1.1281  1.1261
 5808TIP3   OH241618   2.720   0.795   9.991  0.5262 -0.1633 -0.2115
 5808TIP3    H141619   2.649   0.857   9.975 -0.8350 -1.7667 -0.6017
 5808TIP3    H241620   2.779   0.806   9.916  0.1552  0.4523 -0.4183
 5809TIP3   OH241621   2.058   6.425   9.907  0.6200  0.2829  0.2501
 5809TIP3    H141622   2.063   6.455   9.817  0.1727 -1.1845 -0.2862
 5809TIP3    H241623   2.026   6.501   9.956 -0.6149  0.6539 -1.0612
 5810TIP3   OH241624   5.406   3.084  11.726 -0.5068 -0.2299  0.0581
 5810TIP3    H141625   5.483   3.097  11.782  0.4759 -0.9109 -1.0774
 5810TIP3    H241626   5.439   3.098  11.637 -1.5006 -1.3860 -0.5203
 5811TIP3   OH241627   5.025   2.425  11.887 -0.3252  0.4594 -0.0085
 5811TIP3    H141628   4.934   2.452  11.890 -0.4298  0.0219  1.5792
 5811TIP3    H241629   5.052   2.421  11.979  0.7261 -1.2443 -0.3470
 5812TIP3   OH241630   0.175   6.605  12.723  0.1024 -0.2804 -0.1105
 5812TIP3    H141631   0.176   6.698  12.746  0.9967 -0.1025 -0.8095
 5812TIP3    H241632   0.265   6.576  12.737  0.4455 -0.4278 -2.2813
 5813TIP3   OH241633   3.872   0.360  11.469 -0.1473  0.4154  0.1511
 5813TIP3    H141634   3.785   0.341  11.436  0.1897  1.9689 -1.8170
 5813TIP3    H241635   3.876   0.315  11.554 -2.3024 -0.8973 -0.3704
 5814TIP3   OH241636   6.672   2.882   9.679  0.4236  0.2907 -0.4978
 5814TIP3    H141637   6.612   2.936   9.628 -0.8457 -1.6274 -1.0968
 5814TIP3    H241638   6.687   2.805   9.626 -0.1926 -1.3601  1.5807
 5815TIP3   OH241639   1.344   0.462   9.405 -0.1667  0.4348  0.4475
 5815TIP3    H141640   1.436   0.446   9.384 -0.1752  0.6377  0.2484
 5815TIP3    H241641   1.346   0.530   9.472 -0.1754  0.5839  0.2989
 5816TIP3   OH241642   0.388   2.986  12.161 -0.1673 -0.1630  0.4705
 5816TIP3    H141643   0.344   3.035  12.092 -0.2136  0.2311  0.7784
 5816TIP3    H241644   0.392   2.896  12.128 -4.0514 -0.9916  1.7184
 5817TIP3   OH241645   6.395   2.319  10.512  0.3921 -0.4075 -0.7944
 5817TIP3    H141646   6.358   2.336  10.599  2.0624  0.0393 -0.1301
 5817TIP3    H241647   6.336   2.255  10.473 -1.0182  0.2081  0.2238
 5818TIP3   OH241648   5.036   1.129   9.874 -0.0547 -0.2471  0.3085
 5818TIP3    H141649   4.944   1.104   9.884  0.1687 -1.6147 -0.7852
 5818TIP3    H241650   5.058   1.175   9.955 -0.9573 -2.2220  1.7480
 5819TIP3   OH241651   2.196   3.003  10.524  0.4212  0.3382 -0.5947
 5819TIP3    H141652   2.104   2.988  10.502  0.3964 -1.0162  0.3217
 5819TIP3    H241653   2.203   2.977  10.616  1.3429  2.1585 -0.1112
 5820TIP3   OH241654   1.167   2.924   9.686  0.1936  0.7306 -0.3899
 5820TIP3    H141655   1.252   2.882   9.671  0.5579  1.3444 -0.0894
 5820TIP3    H241656   1.187   2.997   9.745 -0.1407  2.2590 -2.0654
 5821TIP3   OH241657   3.276   4.068  10.496  0.0301 -0.2478 -0.3812
 5821TIP3    H141658   3.244   4.158  10.495 -0.2129 -0.2682  1.4822
 5821TIP3    H241659   3.212   4.018  10.445  0.3247  0.6491 -1.6764
 5822TIP3   OH241660   5.395   3.568   9.479 -0.3514  0.1270  0.4900
 5822TIP3    H141661   5.414   3.477   9.503  0.3149  0.6373  1.9743
 5822TIP3    H241662   5.371   3.610   9.561 -0.6985  1.2866 -0.1946
 5823TIP3   OH241663   1.298   4.555  11.655 -0.7756  0.0152  0.3763
 5823TIP3    H141664   1.341   4.638  11.674 -1.9437  0.8215 -0.3648
 5823TIP3    H241665   1.208   4.567  11.685 -0.9487 -1.0081  0.3216
 5824TIP3   OH241666   3.162   0.537   9.345 -0.4527  0.2933  0.8223
 5824TIP3    H141667   3.123   0.492   9.270 -0.6995  1.7632  0.0121
 5824TIP3    H241668   3.142   0.481   9.420 -0.9563 -0.7892 -0.0859
 5825TIP3   OH241669   0.216   2.916   9.114 -0.3679 -0.0313  0.3228
 5825TIP3    H141670   0.144   2.929   9.052  0.4284 -1.5793 -0.9841
 5825TIP3    H241671   0.181   2.947   9.198 -1.6827  1.5444 -0.7445
 5826TIP3   OH241672   0.194   3.091  10.854 -0.3575  0.0709 -0.2844
 5826TIP3    H141673   0.249   3.029  10.806  1.9243  1.5050  0.2960
 5826TIP3    H241674   0.164   3.152  10.786 -0.6272 -0.3060 -0.5047
 5827TIP3   OH241675   3.316   5.512  11.871 -0.6502  0.0994  0.2507
 5827TIP3    H141676   3.285   5.578  11.809 -0.5003  0.2074  0.2888
 5827TIP3    H241677   3.411   5.507  11.856 -0.6436 -0.0219  0.3284
 5828TIP3   OH241678   6.117   3.558  11.354  0.1366 -0.2889  0.0176
 5828TIP3    H141679   6.107   3.641  11.306 -2.1468 -0.4029  0.1851
 5828TIP3    H241680   6.193   3.572  11.410 -0.2854  1.7678  0.1543
 5829TIP3   OH241681   0.784   4.576  11.557 -0.2405 -0.1411  0.1574
 5829TIP3    H141682   0.747   4.586  11.645  0.7765 -0.4332  0.6281
 5829TIP3    H241683   0.791   4.481  11.545  0.1044 -0.0938 -0.0256
 5830TIP3   OH241684   3.606   4.864   9.448 -0.1391  0.5521  0.2722
 5830TIP3    H141685   3.614   4.770   9.428 -0.1930  0.1487  1.9601
 5830TIP3    H241686   3.581   4.904   9.365 -0.1612 -0.9337 -0.4809
 5831TIP3   OH241687   3.888   1.986  11.668  0.0096 -0.3415 -0.0939
 5831TIP3    H141688   3.853   2.035  11.743 -1.4993 -0.5722 -0.6151
 5831TIP3    H241689   3.934   1.912  11.707  1.2582  0.7897  0.6690
 5832TIP3   OH241690   1.817   3.247  11.377  0.1071  0.4286  0.0559
 5832TIP3    H141691   1.813   3.151  11.383 -1.0385  0.5446  2.6985
 5832TIP3    H241692   1.899   3.271  11.420  0.1543  0.6553 -0.1594
 5833TIP3   OH241693   0.929   2.746  10.014 -0.2388 -0.0573 -0.2879
 5833TIP3    H141694   0.846   2.726  10.057  0.3812  2.0041  2.0850
 5833TIP3    H241695   0.937   2.680   9.945 -3.7626 -0.3937 -0.5457
 5834TIP3   OH241696   5.389   3.170   9.236 -0.4820 -0.4955  0.2143
 5834TIP3    H141697   5.400   3.264   9.220 -0.4627 -0.7184 -1.1972
 5834TIP3    H241698   5.477   3.139   9.260 -0.2081 -0.3704 -0.5943
 5835TIP3   OH241699   0.838   2.967   9.040  0.2665  0.0728 -0.1173
 5835TIP3    H141700   0.840   2.952   9.135 -0.2461  0.8646  0.0327
 5835TIP3    H241701   0.779   2.899   9.006 -0.6993  0.6687  0.3245
 5836TIP3   OH241702   2.374   5.881  11.889  0.2909  0.7190 -0.0331
 5836TIP3    H141703   2.314   5.809  11.870  1.2940  0.2062 -1.4466
 5836TIP3    H241704   2.461   5.846  11.872  0.9239  1.8065  0.7977
 5837TIP3   OH241705   3.305   5.765  12.601  0.2278  0.4344  0.3139
 5837TIP3    H141706   3.371   5.828  12.629 -0.0939  0.1425  1.8213
 5837TIP3    H241707   3.269   5.801  12.520  1.6852  0.9813 -0.1096
 5838TIP3   OH241708   2.760   4.032  11.033  0.1021 -0.6756 -0.0116
 5838TIP3    H141709   2.728   4.041  10.943 -0.2166  0.3877  0.1836
 5838TIP3    H241710   2.838   3.978  11.026  1.0938  0.8069 -1.1753
 5839TIP3   OH241711   1.114   1.392   9.943 -0.1376 -0.1175 -0.3709
 5839TIP3    H141712   1.155   1.405   9.857  0.7621 -1.4888 -0.1846
 5839TIP3    H241713   1.153   1.310   9.976 -0.6651  0.2375  1.2246
 5840TIP3   OH241714   1.680   5.599   9.095  0.6750 -0.1859  0.2650
 5840TIP3    H141715   1.771   5.600   9.125  1.2391 -1.2348 -1.2760
 5840TIP3    H241716   1.673   5.519   9.044 -1.6059 -1.0014  1.7018
 5841TIP3   OH241717   0.306   3.053   9.447  0.4539  0.2749  0.3159
 5841TIP3    H141718   0.277   3.133   9.491 -1.1485 -0.4616  0.6596
 5841TIP3    H241719   0.226   3.006   9.427  1.3898 -1.8356  1.2484
 5842TIP3   OH241720   2.541   1.589  11.445 -0.1253 -0.1879  0.3365
 5842TIP3    H141721   2.607   1.534  11.401  1.3200  0.1184  1.9803
 5842TIP3    H241722   2.510   1.648  11.378  1.0535 -0.5755 -0.5818
 5843TIP3   OH241723   3.624   0.733  10.796 -0.1077  0.3264  0.1177
 5843TIP3    H141724   3.643   0.769  10.709  0.7065 -1.1556 -0.3467
 5843TIP3    H241725   3.537   0.693  10.786 -0.0057  0.1392 -0.0102
 5844TIP3   OH241726   0.995   4.666  10.330 -0.1120  0.1217  0.2282
 5844TIP3    H141727   1.015   4.755  10.360  2.1594 -0.3934  0.4255
 5844TIP3    H241728   0.950   4.678  10.246  0.6448  1.4603 -0.0084
 5845TIP3   OH241729   1.600   2.284  12.550 -0.9979 -0.3068  0.1038
 5845TIP3    H141730   1.580   2.338  12.627  0.9711  0.9487 -0.2090
 5845TIP3    H241731   1.695   2.279  12.548 -0.8195  1.3707 -3.3280
 5846TIP3   OH241732   4.219   5.219  10.042  0.0053 -0.0098 -0.1528
 5846TIP3    H141733   4.228   5.312  10.019 -0.5893  0.0705 -0.0683
 5846TIP3    H241734   4.141   5.216  10.097  0.4184 -0.4600  0.4154
 5847TIP3   OH241735   1.052   1.168  11.548 -0.0346  1.0078  0.5922
 5847TIP3    H141736   1.093   1.102  11.604 -2.0688  0.0408  1.0352
 5847TIP3    H241737   0.958   1.158  11.565 -0.7336  0.9067 -2.7496
 5848TIP3   OH241738   0.638   6.028   9.588 -0.0432 -0.0717  0.3196
 5848TIP3    H141739   0.699   6.027   9.514 -0.2087 -2.0800  0.1569
 5848TIP3    H241740   0.619   6.121   9.602 -0.3444  0.3705 -2.4250
 5849TIP3   OH241741   6.436   2.000  10.266 -0.5175 -0.7069 -0.3157
 5849TIP3    H141742   6.391   2.066  10.320  2.4431 -0.0185  1.5990
 5849TIP3    H241743   6.476   1.940  10.330  0.7245 -1.5917 -1.8445
 5850TIP3   OH241744   4.727   3.724   9.295  0.3574 -0.4707 -0.0846
 5850TIP3    H141745   4.693   3.651   9.243  0.9434  0.0890 -1.3063
 5850TIP3    H241746   4.690   3.711   9.382  0.8189 -2.4735 -0.1378
 5851TIP3   OH241747   3.485   5.024  11.144  0.2103  0.0092  0.5745
 5851TIP3    H141748   3.514   4.935  11.166 -0.4026 -0.5617 -0.8360
 5851TIP3    H241749   3.405   5.036  11.194  0.9616  0.2837  1.7713
 5852TIP3   OH241750   6.580   0.663  12.137  0.0089  0.1131 -0.4244
 5852TIP3    H141751   6.489   0.682  12.162  0.2953  0.3293  0.4910
 5852TIP3    H241752   6.597   0.576  12.173  0.4276  0.4245  0.1417
 5853TIP3   OH241753   3.619   1.471  10.445  0.1149  0.1500  0.2092
 5853TIP3    H141754   3.552   1.467  10.514  0.5662 -1.0084  0.5944
 5853TIP3    H241755   3.696   1.507  10.488  0.3452 -0.4120  0.2702
 5854TIP3   OH241756   1.184   0.282  11.842  0.0586  0.5342 -0.0190
 5854TIP3    H141757   1.096   0.316  11.828 -0.3143 -0.5040 -0.3398
 5854TIP3    H241758   1.200   0.226  11.766  0.3547 -0.5416  0.8007
 5855TIP3   OH241759   0.411   0.695  10.369  0.2102 -0.3011 -0.4351
 5855TIP3    H141760   0.462   0.656  10.298 -0.5627 -0.1789 -1.0712
 5855TIP3    H241761   0.342   0.631  10.388 -0.4875  0.3135 -0.8321
 5856TIP3   OH241762   3.095   2.003   9.652  0.4683  0.5604  0.2344
 5856TIP3    H141763   3.047   1.938   9.703  0.9644  1.5028  1.9784
 5856TIP3    H241764   3.079   1.979   9.561 -1.0809 -0.7297  0.8095
 5857TIP3   OH241765   1.016   0.996  12.278  0.0736  0.1018  0.3607
 5857TIP3    H141766   0.988   1.067  12.336  0.6120 -0.7234  1.7025
 5857TIP3    H241767   1.063   1.040  12.207 -2.1537  1.2774 -0.4650
 5858TIP3   OH241768   4.130   0.906  11.028 -0.3551 -0.1671  0.1788
 5858TIP3    H141769   4.175   0.823  11.047 -2.0910 -1.3222 -0.4870
 5858TIP3    H241770   4.126   0.951  11.112  1.7602 -0.1256  0.3144
 5859TIP3   OH241771   0.729   4.979  10.703 -0.4281  0.1425 -0.1633
 5859TIP3    H141772   0.693   4.919  10.767 -2.1020  1.7227  0.4733
 5859TIP3    H241773   0.820   4.994  10.731 -0.1828 -1.5242  0.0136
 5860TIP3   OH241774   6.241   3.559  10.369 -0.2488 -0.3321 -0.1240
 5860TIP3    H141775   6.272   3.478  10.410 -0.0544 -0.0357  0.3318
 5860TIP3    H241776   6.147   3.560  10.387 -0.0675  0.1145  0.9193
 5861TIP3   OH241777   4.085   0.696   9.428  1.2290 -0.0178  0.3842
 5861TIP3    H141778   4.019   0.638   9.463  1.5025 -0.3362  0.3790
 5861TIP3    H241779   4.040   0.779   9.413  0.9187 -0.1323  0.7020
 5862TIP3   OH241780   1.386   4.321  11.822 -0.4496 -0.0841  0.4222
 5862TIP3    H141781   1.407   4.338  11.730 -1.2032  0.0629  0.2688
 5862TIP3    H241782   1.315   4.382  11.842 -0.9279 -0.7597  0.8291
 5863TIP3   OH241783   2.920   5.137  11.587  0.2640  0.4844  0.3036
 5863TIP3    H141784   2.914   5.047  11.618  2.7136 -0.5650 -1.8025
 5863TIP3    H241785   3.013   5.159  11.596  0.1084  1.9971 -1.1484
 5864TIP3   OH241786   6.601   2.889   9.261 -0.0518 -0.1194 -0.5762
 5864TIP3    H141787   6.511   2.867   9.286  0.2942 -1.5352 -0.4592
 5864TIP3    H241788   6.608   2.983   9.278 -1.8802  0.3046 -1.7905
 5865TIP3   OH241789   5.617   3.663  10.738 -0.2866 -0.0754  0.6556
 5865TIP3    H141790   5.631   3.602  10.666  0.4976  1.3642 -0.4623
 5865TIP3    H241791   5.690   3.724  10.733 -0.5890  0.4841  2.2596
 5866TIP3   OH241792   6.672   0.127  10.413  0.0035 -0.3902 -0.1885
 5866TIP3    H141793   6.660   0.086  10.328 -0.4521 -2.1571  0.6907
 5866TIP3    H241794   6.632   0.214  10.403  2.0163  0.3968 -2.4318
 5867TIP3   OH241795   3.210   0.251  11.416 -0.4731  1.0028 -0.6870
 5867TIP3    H141796   3.130   0.214  11.378 -0.5135 -0.4559  0.6802
 5867TIP3    H241797   3.268   0.175  11.427  1.0625  2.0059 -1.5004
 5868TIP3   OH241798   5.195   0.189  12.142 -0.4871 -0.1621  0.4168
 5868TIP3    H141799   5.155   0.137  12.211  1.9617 -1.7506  0.7542
 5868TIP3    H241800   5.142   0.170  12.064 -0.2930 -2.3970  0.7653
 5869TIP3   OH241801   1.586   3.737   9.223  0.0263 -0.1048  0.4704
 5869TIP3    H141802   1.553   3.789   9.150  0.0263  0.0736  0.5962
 5869TIP3    H241803   1.516   3.741   9.289  0.2037  0.0899  0.6482
 5870TIP3   OH241804   6.398   5.950   9.527  0.3175 -0.2561  0.2025
 5870TIP3    H141805   6.303   5.934   9.525  0.2179  0.3506 -0.7779
 5870TIP3    H241806   6.433   5.879   9.580 -0.7304 -0.2458  0.9646
 5871TIP3   OH241807   4.870   1.356   9.974  0.0736 -0.2620 -0.7356
 5871TIP3    H141808   4.896   1.448   9.970 -1.7159  0.4497  1.8189
 5871TIP3    H241809   4.934   1.316  10.034 -0.7313 -0.0235  0.3060
 5872TIP3   OH241810   5.489   5.437  11.556  0.3310  0.1271  0.1710
 5872TIP3    H141811   5.518   5.370  11.493 -2.2244 -1.0343  0.1081
 5872TIP3    H241812   5.418   5.482  11.512  1.5718  2.5419  0.4833
 5873TIP3   OH241813   0.953   2.554  10.764  0.2508  0.2817  0.5723
 5873TIP3    H141814   1.010   2.628  10.744  0.3418  0.1135  0.1908
 5873TIP3    H241815   0.950   2.504  10.682 -0.3595  0.2334  0.6233
 5874TIP3   OH241816   1.350   5.392  10.169 -0.6621  0.2546  0.5803
 5874TIP3    H141817   1.330   5.473  10.123 -2.9472 -0.1403  0.7514
 5874TIP3    H241818   1.331   5.323  10.106  0.3971 -0.1830  0.7257
 5875TIP3   OH241819   3.045   1.503  10.935 -0.0962 -0.4027 -0.0032
 5875TIP3    H141820   3.089   1.583  10.967  0.0097 -1.1258  1.7842
 5875TIP3    H241821   3.117   1.447  10.905  0.1433 -1.0167  1.6038
 5876TIP3   OH241822   0.437   0.588  12.160 -0.3835 -0.1518  0.3984
 5876TIP3    H141823   0.525   0.623  12.168 -0.6308  0.1639  2.1961
 5876TIP3    H241824   0.380   0.663  12.179 -0.9940 -0.7049  0.7937
 5877TIP3   OH241825   2.061   6.025  12.059  1.3134  0.4507 -0.0874
 5877TIP3    H141826   2.095   5.953  12.006  2.3693  0.8010  0.1001
 5877TIP3    H241827   2.013   6.080  11.997 -0.4161 -0.9268 -0.0655
 5878TIP3   OH241828   1.648   5.284  11.825 -0.3090  0.2047  0.8964
 5878TIP3    H141829   1.682   5.321  11.744 -0.3694  0.2901  0.9107
 5878TIP3    H241830   1.707   5.316  11.893  0.3556 -0.6829  0.7681
 5879TIP3   OH241831   1.559   0.097  11.336 -0.3243  1.3597 -0.2486
 5879TIP3    H141832   1.471   0.059  11.345  0.5530 -0.5967  0.7182
 5879TIP3    H241833   1.556   0.177  11.388 -0.8500 -0.0306  2.0137
 5880TIP3   OH241834   6.684   5.849  11.620 -0.5848 -0.2580 -0.3042
 5880TIP3    H141835   6.590   5.866  11.610 -0.4192  0.3886 -0.8655
 5880TIP3    H241836   6.698   5.766  11.575 -1.4314 -2.1274  2.5832
 5881TIP3   OH241837   3.792   0.864  11.680  0.3459 -0.2196  0.0303
 5881TIP3    H141838   3.879   0.859  11.642  1.1182  1.5531  1.4231
 5881TIP3    H241839   3.799   0.817  11.763 -0.5369 -1.5661 -0.6126
 5882TIP3   OH241840   5.730   3.990  11.140 -0.5919  0.2987 -0.5564
 5882TIP3    H141841   5.784   4.030  11.072 -0.2852 -0.9388 -1.0640
 5882TIP3    H241842   5.752   4.039  11.220  0.3689  0.6120 -1.0006
 5883TIP3   OH241843   5.001   3.290  10.451 -0.0356 -0.3493  0.1659
 5883TIP3    H141844   5.081   3.287  10.399 -0.5721 -0.0601 -0.6888
 5883TIP3    H241845   5.032   3.291  10.542  0.9439  0.2470 -0.1559
 5884TIP3   OH241846   3.482   6.501  10.683 -0.1167 -0.0718  0.2986
 5884TIP3    H141847   3.416   6.456  10.735 -0.7044 -0.9655 -1.1540
 5884TIP3    H241848   3.515   6.570  10.741 -0.9209 -0.8381  1.7347
 5885TIP3   OH241849   0.693   4.006  10.782  0.0705  0.0358  0.3305
 5885TIP3    H141850   0.631   3.997  10.853 -0.4562 -1.2013 -0.2565
 5885TIP3    H241851   0.771   4.045  10.822 -0.0694 -0.9943  1.6623
 5886TIP3   OH241852   0.174   1.013  11.232 -0.0023  0.2847 -0.4464
 5886TIP3    H141853   0.229   1.085  11.263 -0.8395  0.7669 -0.0349
 5886TIP3    H241854   0.220   0.934  11.261  0.2636  0.6880  0.2561
 5887TIP3   OH241855   1.382   1.447  10.815  0.1871 -0.0416 -0.6939
 5887TIP3    H141856   1.383   1.517  10.880 -1.1128 -0.6501  0.0324
 5887TIP3    H241857   1.308   1.469  10.758 -1.6229 -1.8426  0.7974
 5888TIP3   OH241858   1.341   1.757  12.117 -0.3026  0.1484 -0.5378
 5888TIP3    H141859   1.323   1.663  12.116 -2.4324  0.4141  2.4012
 5888TIP3    H241860   1.271   1.796  12.064 -0.0025  0.1924 -0.9134
 5889TIP3   OH241861   2.108   1.704  10.850  0.0737 -0.2522  0.5332
 5889TIP3    H141862   2.042   1.771  10.864  1.4841  1.3259 -0.0348
 5889TIP3    H241863   2.067   1.623  10.880 -2.5091  0.4489 -0.8228
 5890TIP3   OH241864   2.668   3.019  11.379 -0.0759 -0.3291  0.1836
 5890TIP3    H141865   2.611   3.046  11.307 -1.0152  0.6721  1.2624
 5890TIP3    H241866   2.608   2.996  11.450  0.8351 -0.8290  0.8146
 5891TIP3   OH241867   2.692   2.436  11.101 -0.2907  0.2463 -0.0462
 5891TIP3    H141868   2.743   2.500  11.052 -1.1819  0.4660 -0.7228
 5891TIP3    H241869   2.756   2.370  11.128  0.3699  0.5635 -0.7857
 5892TIP3   OH241870   2.624   3.823  11.205  0.0785  0.1145 -0.3824
 5892TIP3    H141871   2.568   3.788  11.135  1.2247  2.1654 -2.4528
 5892TIP3    H241872   2.691   3.874  11.159  2.2063 -0.2043  2.1212
 5893TIP3   OH241873   3.109   3.666   9.438 -1.3022  0.4618 -0.0540
 5893TIP3    H141874   3.156   3.678   9.522 -3.0668  1.7800  0.8133
 5893TIP3    H241875   3.143   3.584   9.403 -0.8108 -0.3574  2.1736
 5894TIP3   OH241876   6.333   2.485  12.018  0.0346  0.6391  0.7822
 5894TIP3    H141877   6.334   2.412  11.956 -0.5623  2.3400 -1.3302
 5894TIP3    H241878   6.283   2.451  12.093  0.9630 -1.5415  0.4975
 5895TIP3   OH241879   3.491   6.482   9.524 -0.1582 -0.0064  0.3651
 5895TIP3    H141880   3.470   6.475   9.430 -2.0847 -0.7395  0.7956
 5895TIP3    H241881   3.422   6.538   9.559  0.2529 -0.1568  1.4296
 5896TIP3   OH241882   3.770   4.722  11.429  0.4565  0.3891 -0.0169
 5896TIP3    H141883   3.756   4.745  11.522 -0.7232 -0.1429 -0.0375
 5896TIP3    H241884   3.785   4.628  11.430 -1.4678  0.0414 -0.5088
 5897TIP3   OH241885   1.801   2.973   9.515 -0.2884  0.5839  0.5187
 5897TIP3    H141886   1.815   2.880   9.534  3.6696  0.4639 -2.0512
 5897TIP3    H241887   1.734   2.973   9.447  3.3578 -1.1446 -3.5433
 5898TIP3   OH241888   2.835   2.431  12.054 -0.3874  0.4073 -0.5208
 5898TIP3    H141889   2.782   2.440  12.133 -1.3105  0.7892 -1.1716
 5898TIP3    H241890   2.790   2.484  11.988  0.5601  0.3811 -1.2144
 5899TIP3   OH241891   1.548   2.252  10.625 -0.2738 -0.1021  0.2128
 5899TIP3    H141892   1.460   2.213  10.630  0.7611 -2.4672  2.0490
 5899TIP3    H241893   1.605   2.179  10.599  1.2768  1.1655 -0.1141
 5900TIP3   OH241894   1.910   2.683  10.426 -0.2296  0.4602 -0.0214
 5900TIP3    H141895   1.903   2.588  10.440 -1.9708  0.3185 -1.4911
 5900TIP3    H241896   1.842   2.721  10.481 -0.7949  0.6825 -0.8580
 5901TIP3   OH241897   3.788   4.742   9.749 -0.1430 -0.6847  0.1691
 5901TIP3    H141898   3.792   4.780   9.661  0.2965  0.5530  0.7019
 5901TIP3    H241899   3.879   4.732   9.775 -0.2744 -0.7716  0.6026
 5902TIP3   OH241900   1.869   4.251  10.110  0.8408 -0.2820 -0.6682
 5902TIP3    H141901   1.785   4.205  10.101  0.4995  0.2577 -0.2660
 5902TIP3    H241902   1.932   4.181  10.130  0.6053 -0.7662 -1.5503
 5903TIP3   OH241903   1.522   1.281  11.798 -0.5772  0.4810 -0.5104
 5903TIP3    H141904   1.515   1.249  11.888 -1.2922 -0.2044 -0.8028
 5903TIP3    H241905   1.568   1.364  11.806 -1.2092  0.7483  0.5612
 5904TIP3   OH241906   0.372   5.310  10.087 -0.3547 -0.0345  0.5369
 5904TIP3    H141907   0.360   5.318   9.993 -0.8145 -0.6194  0.5470
 5904TIP3    H241908   0.284   5.298  10.122 -0.0796 -0.9277  0.9360
 5905TIP3   OH241909   4.359   2.901  10.299 -0.2653 -0.2838  0.0588
 5905TIP3    H141910   4.387   2.835  10.362  0.7242  1.3654  1.4499
 5905TIP3    H241911   4.441   2.932  10.259 -0.3494  1.9051  1.3830
 5906TIP3   OH241912   5.481   4.108   9.413  0.8619  0.0906  0.3037
 5906TIP3    H141913   5.392   4.113   9.448  0.4073  0.5879 -0.8885
 5906TIP3    H241914   5.476   4.151   9.328  2.0384 -0.6782 -0.1779
 5907TIP3   OH241915   6.075   2.944  11.203  0.2621 -0.2529 -0.2614
 5907TIP3    H141916   6.156   2.907  11.239  0.6464  1.1983  0.4666
 5907TIP3    H241917   6.068   3.030  11.245  0.0837  1.0402 -2.7538
 5908TIP3   OH241918   6.115   5.918  11.414 -0.4233 -0.2781 -0.2103
 5908TIP3    H141919   6.157   5.833  11.405  0.5228 -0.0789  1.7939
 5908TIP3    H241920   6.047   5.905  11.480  0.6170  0.7683  1.1306
 5909TIP3   OH241921   1.907   6.259  12.114 -0.4209  0.2244  0.2743
 5909TIP3    H141922   1.954   6.340  12.135 -1.1373  1.4079 -2.2829
 5909TIP3    H241923   1.836   6.286  12.056 -0.8392 -2.2037 -0.4836
 5910TIP3   OH241924   2.066   3.925   9.726  0.4843 -0.5829  0.4559
 5910TIP3    H141925   1.982   3.885   9.748  0.5504 -1.0439 -0.0836
 5910TIP3    H241926   2.125   3.850   9.717  1.1722 -0.2104  1.7115
 5911TIP3   OH241927   6.558   0.403  12.182 -0.3843  0.3948 -0.4259
 5911TIP3    H141928   6.462   0.394  12.184 -0.2658 -1.3390 -0.6134
 5911TIP3    H241929   6.587   0.336  12.120  0.8807  1.8784 -1.5033
 5912TIP3   OH241930   4.100   5.245  12.927  0.4376 -0.0205 -0.0116
 5912TIP3    H141931   4.123   5.281  13.013 -1.3643  1.8475 -0.2252
 5912TIP3    H241932   4.006   5.260  12.919  0.1867 -1.9587 -1.5329
 5913TIP3   OH241933   0.638   5.778  11.910 -0.2263 -0.0734 -0.9451
 5913TIP3    H141934   0.608   5.828  11.986  0.7977  1.1300 -1.3012
 5913TIP3    H241935   0.605   5.827  11.835 -0.1373 -0.5380 -1.2873
 5914TIP3   OH241936   0.375   3.768  10.902  0.4976 -0.4681 -0.3199
 5914TIP3    H141937   0.298   3.806  10.943  1.6135  2.0288 -0.3830
 5914TIP3    H241938   0.431   3.742  10.975  0.2359 -0.9451 -0.2829
 5915TIP3   OH241939   0.682   6.406   9.175 -0.0104  0.3818  0.1983
 5915TIP3    H141940   0.717   6.374   9.092  1.1094 -1.2202  1.2281
 5915TIP3    H241941   0.658   6.497   9.158  1.1869  0.4058 -1.5732
 5916TIP3   OH241942   0.360   6.410   9.450 -0.3902 -0.1087  0.6332
 5916TIP3    H141943   0.311   6.467   9.509  0.8639  0.8583  0.7790
 5916TIP3    H241944   0.375   6.464   9.372 -0.5061 -0.7730  0.1457
 5917TIP3   OH241945   4.154   3.668  11.999  0.0749  0.0831 -0.1191
 5917TIP3    H141946   4.113   3.584  11.978  0.0376  0.5218 -1.9413
 5917TIP3    H241947   4.082   3.724  12.027 -0.1684  0.0188 -0.6034
 5918TIP3   OH241948   2.294   6.150  10.408 -0.5757  0.5650 -0.0306
 5918TIP3    H141949   2.355   6.076  10.408  0.7643  1.6318  0.9522
 5918TIP3    H241950   2.313   6.196  10.327 -0.2866  0.7261  0.1279
 5919TIP3   OH241951   4.942   4.758   9.523  0.3286  0.6151  0.0586
 5919TIP3    H141952   4.971   4.839   9.479  0.9050  0.8928  0.9226
 5919TIP3    H241953   4.947   4.691   9.455  0.8420  1.1093 -0.4034
 5920TIP3   OH241954   1.254   5.046  11.245  0.0458  0.4977 -0.0319
 5920TIP3    H141955   1.235   5.109  11.175 -1.9208  1.0483  0.9225
 5920TIP3    H241956   1.212   4.965  11.216  1.5186 -0.0860 -0.6758
 5921TIP3   OH241957   5.008   0.390  10.721  0.2618  0.4716  0.0097
 5921TIP3    H141958   5.046   0.468  10.762 -0.4198  1.6767 -1.5341
 5921TIP3    H241959   5.079   0.326  10.719  1.6274  1.9372 -0.9336
 5922TIP3   OH241960   2.400   5.904  12.256  0.4609 -0.0763 -0.5089
 5922TIP3    H141961   2.479   5.880  12.209  0.3652 -0.6966 -0.3688
 5922TIP3    H241962   2.400   5.847  12.334  1.8163  2.4806  1.5225
 5923TIP3   OH241963   5.291   5.284   9.548 -0.1435 -0.7334  0.1615
 5923TIP3    H141964   5.227   5.305   9.480 -0.1013  0.5261  0.4893
 5923TIP3    H241965   5.312   5.368   9.588  0.6378 -1.3203  1.0243
 5924TIP3   OH241966   3.359   2.459  11.478 -0.0594 -0.0027  0.0130
 5924TIP3    H141967   3.284   2.437  11.422  0.2181  0.8131 -0.7015
 5924TIP3    H241968   3.343   2.549  11.505 -0.2846 -0.4446  1.4368
 5925TIP3   OH241969   5.951   4.453   9.786  0.2454 -0.4258 -0.1789
 5925TIP3    H141970   5.982   4.446   9.696  0.2755  1.1641 -0.3249
 5925TIP3    H241971   5.920   4.543   9.794 -1.2484 -0.9854  0.9463
 5926TIP3   OH241972   1.805   0.353  11.066 -0.0873 -0.2595  0.1145
 5926TIP3    H141973   1.711   0.360  11.048 -0.0124  1.2418  0.1562
 5926TIP3    H241974   1.844   0.420  11.011  1.2336 -2.2987 -1.5719
 5927TIP3   OH241975   6.618   2.620  10.700 -0.6827 -0.5610  0.2303
 5927TIP3    H141976   6.542   2.582  10.656 -0.1886  0.4196 -1.5412
 5927TIP3    H241977   6.619   2.577  10.786 -1.5312 -2.7304 -0.7720
 5928TIP3   OH241978   2.407   2.873  10.700 -0.4472 -0.1332  0.1944
 5928TIP3    H141979   2.394   2.801  10.761  0.1042  0.1505  0.6568
 5928TIP3    H241980   2.394   2.952  10.753  2.2669  0.1798  0.5553
 5929TIP3   OH241981   0.532   5.917  12.118 -0.4797  0.0964  0.9432
 5929TIP3    H141982   0.437   5.929  12.118 -0.6852 -1.0980  3.0701
 5929TIP3    H241983   0.564   5.990  12.171 -0.2299  0.3068  0.5049
 5930TIP3   OH241984   1.488   5.813  10.211  0.0356  0.3253  0.0937
 5930TIP3    H141985   1.583   5.811  10.203 -0.0465  0.5053 -1.1970
 5930TIP3    H241986   1.465   5.904  10.195 -0.3148  0.4314  1.1348
 5931TIP3   OH241987   4.825   6.459   9.689 -0.0065  0.1579  0.4689
 5931TIP3    H141988   4.911   6.502   9.692 -0.0987  0.7446 -2.2293
 5931TIP3    H241989   4.762   6.532   9.691 -0.2850 -0.0275 -0.6789
 5932TIP3   OH241990   1.227   6.617  12.615  0.9279  0.2817  0.2198
 5932TIP3    H141991   1.254   6.589  12.528  1.1520 -1.7097  0.8795
 5932TIP3    H241992   1.279   6.696  12.632  1.9963 -0.1560 -0.8644
 5933TIP3   OH241993   1.738   1.340   9.668 -0.5089 -0.1627  0.0595
 5933TIP3    H141994   1.820   1.307   9.631 -1.5080 -0.9706 -1.5669
 5933TIP3    H241995   1.748   1.329   9.762  0.3112 -2.5908 -0.2288
 5934TIP3   OH241996   2.373   5.642  11.222 -0.5516 -0.4062  0.6547
 5934TIP3    H141997   2.403   5.652  11.131 -0.6618  3.5210  0.8862
 5934TIP3    H241998   2.454   5.638  11.273 -0.4512  0.3690  0.5685
 5935TIP3   OH241999   2.577   5.394  11.852 -0.0313  0.5691  0.0634
 5935TIP3    H142000   2.538   5.311  11.881 -1.0087  0.8965 -0.2883
 5935TIP3    H242001   2.668   5.371  11.834 -0.0562 -0.2255  0.8430
 5936TIP3   OH242002   1.470   4.260  10.068 -0.3721  0.4632  0.3464
 5936TIP3    H142003   1.375   4.274  10.066 -0.2391  1.4072  0.1793
 5936TIP3    H242004   1.505   4.327  10.009  0.3181 -0.7198 -0.6229
 5937TIP3   OH242005   1.011   3.416   8.799  0.4257 -0.2476 -0.4633
 5937TIP3    H142006   0.966   3.335   8.824 -1.1770  1.1551  1.5311
 5937TIP3    H242007   1.103   3.400   8.821  0.2619 -1.7119 -0.7115
 5938TIP3   OH242008   5.397   1.205   9.934  0.1131  0.1517 -0.6650
 5938TIP3    H142009   5.469   1.185   9.874 -0.2952  0.1832 -1.1792
 5938TIP3    H242010   5.336   1.132   9.923  0.5400 -0.4145  0.5436
 5939TIP3   OH242011   4.215   0.538  12.277  0.0575  0.0060 -0.6166
 5939TIP3    H142012   4.246   0.482  12.348 -1.2010 -0.5466 -0.4903
 5939TIP3    H242013   4.231   0.627  12.309  0.5858 -0.2483 -0.1485
 5940TIP3   OH242014   6.068   6.167  11.335  0.0437  0.7826 -0.0140
 5940TIP3    H142015   6.005   6.173  11.263 -0.2315  0.3307  0.1845
 5940TIP3    H242016   6.059   6.077  11.367 -1.6400  1.6523  2.2250
 5941TIP3   OH242017   3.877   3.228   9.372 -0.0036 -0.0366  0.6135
 5941TIP3    H142018   3.834   3.232   9.457  1.6915 -0.6563  1.5518
 5941TIP3    H242019   3.946   3.295   9.376  1.5938 -1.6107  0.6504
 5942TIP3   OH242020   3.683   1.428  10.853 -0.3901 -0.0687 -0.4159
 5942TIP3    H142021   3.607   1.438  10.910 -0.0151 -0.3478  0.1499
 5942TIP3    H242022   3.680   1.503  10.795 -0.8143  0.1935 -0.0589
 5943TIP3   OH242023   3.379   4.420  11.554  0.3424  0.1678  0.4096
 5943TIP3    H142024   3.308   4.430  11.618  1.2015 -0.5608  1.5172
 5943TIP3    H242025   3.428   4.344  11.585  0.4965 -0.5067 -1.4245
 5944TIP3   OH242026   5.556   3.873  10.507 -0.0733  0.3933 -0.2573
 5944TIP3    H142027   5.515   3.786  10.510  1.2283 -0.2607 -0.3299
 5944TIP3    H242028   5.650   3.854  10.514  0.2529  1.7783 -0.6762
 5945TIP3   OH242029   2.057   6.588  11.464 -0.1193 -0.2264  0.0199
 5945TIP3    H142030   2.149   6.609  11.479  0.0026 -1.1130  0.6178
 5945TIP3    H242031   2.010   6.634  11.533  0.0302 -0.9621  0.6200
 5946TIP3   OH242032   2.413   5.037  11.952 -0.8813  0.2029 -0.1195
 5946TIP3    H142033   2.408   4.957  12.004  0.2377  0.9803  1.2326
 5946TIP3    H242034   2.453   5.102  12.010  2.1773  0.6515 -2.4738
 5947TIP3   OH242035   6.696   6.492   9.624  0.2721 -0.2209 -0.1503
 5947TIP3    H142036   6.731   6.407   9.596 -2.8738 -1.2269 -1.5255
 5947TIP3    H242037   6.656   6.474   9.710  0.5252  0.1420  0.0431
 5948TIP3   OH242038   4.355   5.880  10.390 -0.0470  0.0589 -0.2042
 5948TIP3    H142039   4.422   5.906  10.327  0.6327  0.3119  0.5936
 5948TIP3    H242040   4.316   5.962  10.419  0.1405  0.0074  0.2161
 5949TIP3   OH242041   2.924   3.091  11.338  0.1933 -0.3180 -0.1059
 5949TIP3    H142042   2.829   3.084  11.342  0.1109  0.2028 -0.8114
 5949TIP3    H242043   2.948   3.137  11.418 -0.3420  1.0876 -0.7060
 5950TIP3   OH242044   6.149   2.560  11.448  0.1770 -1.0606 -0.0924
 5950TIP3    H142045   6.140   2.534  11.357  0.4977  0.1063 -0.4807
 5950TIP3    H242046   6.128   2.481  11.498  1.7502 -2.2519 -1.1925
 5951TIP3   OH242047   2.629   3.849  11.485  0.1526 -0.7209 -0.3881
 5951TIP3    H142048   2.638   3.866  11.392  1.1049 -0.8911 -0.3403
 5951TIP3    H242049   2.641   3.935  11.526 -4.3258  0.2028 -0.5634
 5952TIP3   OH242050   0.437   3.017   9.783  0.3074 -0.0131 -0.3880
 5952TIP3    H142051   0.464   2.939   9.833 -1.0982  0.1461  0.6984
 5952TIP3    H242052   0.464   3.091   9.838 -0.1181  0.2061 -0.4729
 5953TIP3   OH242053   0.344   2.016   9.892  0.4662 -0.0985 -0.3691
 5953TIP3    H142054   0.374   1.931   9.924 -0.8278 -0.7286 -0.7790
 5953TIP3    H242055   0.307   2.059   9.969 -1.2719 -1.0023 -0.6569
 5954TIP3   OH242056   5.025   1.661  10.967  0.3093  0.4918 -0.7036
 5954TIP3    H142057   4.992   1.638  10.881 -1.1275  0.4910 -0.1761
 5954TIP3    H242058   4.952   1.645  11.026  1.9217 -1.6244  0.8609
 5955TIP3   OH242059   0.447   3.784  10.520 -0.4472  0.4737  0.4704
 5955TIP3    H142060   0.495   3.861  10.489 -0.7875 -0.5389 -2.9588
 5955TIP3    H242061   0.355   3.804  10.503 -0.8209  0.3189  2.1083
 5956TIP3   OH242062   3.877   2.553  19.596 -0.2883 -0.0500 -0.2389
 5956TIP3    H142063   3.816   2.505  19.541  1.0014 -0.8106 -1.0602
 5956TIP3    H242064   3.958   2.554  19.546  0.1755  1.5878  0.4863
 5957TIP3   OH242065   1.479   6.364  10.192  0.1176 -0.6627  0.1081
 5957TIP3    H142066   1.515   6.433  10.248 -0.8919 -0.0836  0.0594
 5957TIP3    H242067   1.394   6.397  10.164  0.4831 -1.0463 -1.5880
 5958TIP3   OH242068   1.082   2.943   9.281  0.0608 -0.3171  0.0357
 5958TIP3    H142069   1.103   2.911   9.194  0.4442 -0.9823  0.3649
 5958TIP3    H242070   0.992   2.916   9.296 -0.4153  0.8312 -0.6074
 5959TIP3   OH242071   1.009   1.377  11.002 -0.1311  0.0844  0.3668
 5959TIP3    H142072   0.966   1.299  10.965  1.3347 -1.5652  1.9609
 5959TIP3    H242073   1.004   1.364  11.097  1.0662  1.4230  0.6417
 5960TIP3   OH242074   1.192   4.331  12.618 -0.0475 -0.4828  0.1714
 5960TIP3    H142075   1.211   4.415  12.660 -3.1460  0.4401 -0.0132
 5960TIP3    H242076   1.168   4.273  12.690 -0.0426 -0.5486  0.1203
 5961TIP3   OH242077   4.885   3.903  12.359  0.1004 -0.1873  0.4621
 5961TIP3    H142078   4.841   3.988  12.370 -1.1697 -0.7590 -0.0079
 5961TIP3    H242079   4.827   3.841  12.404 -0.3805 -1.1842 -1.4498
 5962TIP3   OH242080   3.044   0.394   9.106 -0.0013  0.5434  0.7014
 5962TIP3    H142081   2.982   0.321   9.112  0.8675 -0.2539  0.3446
 5962TIP3    H242082   2.990   0.473   9.114 -0.7463 -0.1234  3.1818
 5963TIP3   OH242083   1.072   4.078   9.730 -0.4371  0.0502 -0.2489
 5963TIP3    H142084   1.044   4.017   9.798  0.3279 -0.3164 -0.2563
 5963TIP3    H242085   1.101   4.155   9.778  0.4762 -0.3579 -0.1263
 5964TIP3   OH242086   3.881   5.464  11.695 -0.4675  0.1157 -0.9585
 5964TIP3    H142087   3.953   5.522  11.673 -0.9651  1.1014 -0.0390
 5964TIP3    H242088   3.910   5.418  11.774 -0.8186  0.4874 -0.6068
 5965TIP3   OH242089   0.694   1.537   9.322 -0.6003  0.7721 -0.5041
 5965TIP3    H142090   0.647   1.456   9.344  1.8627 -0.7644 -0.5355
 5965TIP3    H242091   0.756   1.549   9.393  0.9158  1.1058 -1.8365
 5966TIP3   OH242092   1.838   5.842  10.686  0.3247 -0.2597 -0.6261
 5966TIP3    H142093   1.893   5.765  10.674 -0.5587 -1.5806  2.7103
 5966TIP3    H242094   1.748   5.810  10.676 -0.0689  0.2191  1.0573
 5967TIP3   OH242095   5.296   0.011  11.879 -0.5768 -0.4025  0.0167
 5967TIP3    H142096   5.285   0.010  11.784  0.4001 -1.6951 -0.1120
 5967TIP3    H242097   5.391   0.023  11.891 -0.4828 -1.8259  0.7849
 5968TIP3   OH242098   5.428   1.078  12.454 -0.4582 -0.2959  0.0173
 5968TIP3    H142099   5.353   1.021  12.471 -0.7119  0.1437  0.3853
 5968TIP3    H242100   5.414   1.154  12.511 -0.7970  0.7364 -1.3819
 5969TIP3   OH242101   3.800   3.836  11.256  0.2142 -0.1999 -0.2353
 5969TIP3    H142102   3.791   3.746  11.287  0.2310 -0.4879 -1.0374
 5969TIP3    H242103   3.713   3.875  11.269  0.1481 -0.4014 -0.0769
 5970TIP3   OH242104   6.726   5.710   9.530 -0.2236  0.4229  0.2291
 5970TIP3    H142105   6.757   5.735   9.617 -0.4658 -0.4789  0.5764
 5970TIP3    H242106   6.631   5.707   9.538 -0.1718 -2.1673  0.6500
 5971TIP3   OH242107   2.331   6.650  11.496  0.2576  0.6976  0.1742
 5971TIP3    H142108   2.395   6.700  11.547  0.1751  0.2077  0.7618
 5971TIP3    H242109   2.363   6.560  11.498 -0.3907  0.4609  0.3955
 5972TIP3   OH242110   0.313   5.583  10.505 -0.2682 -0.4196 -0.4781
 5972TIP3    H142111   0.390   5.620  10.460 -0.6621  0.8234 -0.1678
 5972TIP3    H242112   0.245   5.581  10.437 -0.3996 -0.0826 -0.3540
 5973TIP3   OH242113   1.520   0.835  10.165  0.1275 -0.2462 -0.0585
 5973TIP3    H142114   1.448   0.876  10.213  1.1151  3.2368 -1.2840
 5973TIP3    H242115   1.597   0.852  10.219  0.6218 -0.2827 -0.7450
 5974TIP3   OH242116   0.830   3.420  10.941  0.0542  0.5365  0.1052
 5974TIP3    H142117   0.824   3.515  10.933 -0.8455  0.4267 -0.6125
 5974TIP3    H242118   0.893   3.407  11.012  0.7572  1.6501 -0.2756
 5975TIP3   OH242119   0.103   2.520  10.272  0.1497 -0.1705 -0.4123
 5975TIP3    H142120   0.085   2.500  10.180  0.5337 -1.1637 -0.2833
 5975TIP3    H242121   0.174   2.584  10.269  1.7821 -1.8933 -0.8065
 5976TIP3   OH242122   5.209   1.416  11.025 -0.2653 -0.3835 -0.2132
 5976TIP3    H142123   5.190   1.509  11.040  1.1890 -0.1527  0.3679
 5976TIP3    H242124   5.124   1.377  11.006 -0.9008  1.0719 -0.4959
 5977TIP3   OH242125   2.690   3.289  10.726  0.3207  0.1835 -0.3725
 5977TIP3    H142126   2.663   3.242  10.647  0.2812  0.9060 -0.8066
 5977TIP3    H242127   2.641   3.372  10.721 -1.1042 -0.4982  1.3581
 5978TIP3   OH242128   5.498   4.682  10.220 -0.0940  0.1511  0.0614
 5978TIP3    H142129   5.576   4.692  10.275 -0.6042  0.5424  0.7280
 5978TIP3    H242130   5.473   4.591  10.230  0.6293 -0.1396 -0.6488
 5979TIP3   OH242131   0.887   0.798  12.086 -0.1185  0.3663  0.3613
 5979TIP3    H142132   0.878   0.893  12.086 -0.1833  0.3938 -1.4195
 5979TIP3    H242133   0.803   0.766  12.055  0.0108 -0.2592  0.6397
 5980TIP3   OH242134   4.615   3.461   9.794 -0.3740  0.7728  0.4501
 5980TIP3    H142135   4.699   3.469   9.838 -0.6273 -0.7017  1.2754
 5980TIP3    H242136   4.580   3.551   9.793  1.6479  1.6107 -0.9282
 5981TIP3   OH242137   1.302   5.306   9.128  0.0772 -0.6527  0.6244
 5981TIP3    H142138   1.314   5.369   9.199 -0.5750  0.1384  0.0512
 5981TIP3    H242139   1.207   5.292   9.124 -0.0334  0.4126 -1.0104
 5982TIP3   OH242140   0.991   5.707   9.228 -0.3260 -0.0190 -0.4566
 5982TIP3    H142141   0.898   5.721   9.210  0.0990  2.6440 -0.9240
 5982TIP3    H242142   1.035   5.784   9.192  1.9967 -0.8417  0.4212
 5983TIP3   OH242143   5.915   0.473  12.402 -0.3122  0.1985  0.3274
 5983TIP3    H142144   5.968   0.545  12.369 -1.4969  0.2289 -1.6771
 5983TIP3    H242145   5.851   0.514  12.460 -0.2492  0.6041  0.1086
 5984TIP3   OH242146   2.088   4.963   9.807 -0.0630  0.2430 -0.5673
 5984TIP3    H142147   2.020   4.902   9.833 -0.7349  0.2736 -2.1238
 5984TIP3    H242148   2.050   5.050   9.824 -0.3304  0.2538 -1.1656
 5985TIP3   OH242149   6.201   0.808  11.215  0.4546 -0.1679 -0.0137
 5985TIP3    H142150   6.152   0.866  11.156 -1.5440 -0.4922  1.2488
 5985TIP3    H242151   6.224   0.863  11.290  0.0811 -0.5608  0.3956
 5986TIP3   OH242152   1.404   5.614   9.494 -0.5903  0.8100  0.0606
 5986TIP3    H142153   1.316   5.639   9.520 -0.6743  2.2998 -1.4249
 5986TIP3    H242154   1.394   5.579   9.406  0.3393  1.5376 -0.3556
 5987TIP3   OH242155   1.410   2.273  10.901 -0.3878 -0.0568  0.6499
 5987TIP3    H142156   1.395   2.178  10.905  2.7545 -0.7607 -1.0179
 5987TIP3    H242157   1.498   2.284  10.937 -0.6831  2.2537  0.7625
 5988TIP3   OH242158   2.541   0.921  11.926 -0.3678  0.4082 -0.2382
 5988TIP3    H142159   2.632   0.944  11.945 -0.6803  0.4818  1.3683
 5988TIP3    H242160   2.521   0.966  11.844  1.4334 -0.7226 -1.3630
 5989TIP3   OH242161   3.637   5.201  10.481  0.5974 -0.9159 -0.1227
 5989TIP3    H142162   3.592   5.126  10.443 -0.5926 -0.4413  0.2741
 5989TIP3    H242163   3.611   5.200  10.574  0.5562 -0.0314 -0.1094
 5990TIP3   OH242164   0.639   2.536  10.381 -0.4241  0.1075  0.0858
 5990TIP3    H142165   0.619   2.550  10.289 -0.5076  1.2474  0.2688
 5990TIP3    H242166   0.554   2.528  10.423 -0.3902 -1.5717 -0.0755
 5991TIP3   OH242167   4.129   2.039  10.865  0.0057  0.2887  0.5014
 5991TIP3    H142168   4.198   2.074  10.807 -0.6365  1.5603  0.4679
 5991TIP3    H242169   4.058   2.015  10.805  0.1292 -0.3128  0.5973
 5992TIP3   OH242170   0.742   4.794  13.641 -0.3139 -0.1023  0.0662
 5992TIP3    H142171   0.662   4.848  13.641  0.6348  1.4369 -1.2694
 5992TIP3    H242172   0.792   4.828  13.566  3.0758  1.2838  2.6886
 5993TIP3   OH242173   1.518   6.579   9.658  0.4271  0.2196 -0.0616
 5993TIP3    H142174   1.588   6.577   9.723 -0.3210  0.6893  0.7769
 5993TIP3    H242175   1.532   6.661   9.610 -0.7568  1.3934  1.5050
 5994TIP3   OH242176   1.220   1.920   9.276 -0.3657 -0.1888 -0.5035
 5994TIP3    H142177   1.195   2.001   9.320  1.3810 -0.7354  1.6647
 5994TIP3    H242178   1.235   1.947   9.185 -2.3819  1.3487 -0.4518
 5995TIP3   OH242179   0.834   4.844   9.428 -0.7674  0.2547  0.5608
 5995TIP3    H142180   0.929   4.842   9.439 -0.7460 -1.1303  0.3039
 5995TIP3    H242181   0.810   4.934   9.446  0.4377  0.3304  1.9734
 5996TIP3   OH242182   1.332   6.696  11.598 -0.2716 -0.3624 -0.3913
 5996TIP3    H142183   1.311   6.698  11.504  1.2478  0.8790 -0.7416
 5996TIP3    H242184   1.344   6.788  11.621 -0.2679 -0.6834  0.9572
 5997TIP3   OH242185   4.894   2.251  10.618  0.0978  0.4222 -0.1627
 5997TIP3    H142186   4.987   2.256  10.596  0.0922 -0.5491 -0.4428
 5997TIP3    H242187   4.890   2.199  10.698 -0.2520 -0.1940 -0.5694
 5998TIP3   OH242188   3.967   5.357   9.985 -0.2091  0.0542  0.6454
 5998TIP3    H142189   3.882   5.381   9.948  0.6446  3.3586  0.5026
 5998TIP3    H242190   3.948   5.327  10.074 -1.5004  1.1054  0.7438
 5999TIP3   OH242191   1.558   5.894  12.008 -0.4768  0.5379  0.0083
 5999TIP3    H142192   1.500   5.881  12.083  0.0244 -1.4240  0.1109
 5999TIP3    H242193   1.504   5.936  11.942 -1.1208  1.6418  1.2113
 6000TIP3   OH242194   4.025   5.570  10.167  0.3817  0.6950 -0.1788
 6000TIP3    H142195   4.094   5.621  10.210  1.1372 -0.0695 -0.4617
 6000TIP3    H242196   4.071   5.495  10.128 -0.6456  0.0340 -0.1504
 6001TIP3   OH242197   1.404   5.729  10.466 -0.4662 -0.2782  0.7138
 6001TIP3    H142198   1.448   5.783  10.401 -0.0227 -0.6168  0.7264
 6001TIP3    H242199   1.314   5.760  10.466 -0.3681  0.0183  0.2543
 6002TIP3   OH242200   2.576   6.505  11.361  0.9840  0.2273  0.1837
 6002TIP3    H142201   2.657   6.455  11.351  1.2724  0.6274  0.5145
 6002TIP3    H242202   2.508   6.438  11.373  1.2748 -0.1066 -0.0133
 6003TIP3   OH242203   0.973   0.272  10.732  0.4999  0.2408  0.5209
 6003TIP3    H142204   0.905   0.325  10.773  0.1296  1.2677 -1.3232
 6003TIP3    H242205   0.976   0.192  10.785 -0.5393  1.1233  1.9849
 6004TIP3   OH242206   5.616   3.271  10.182 -0.1751  0.0568 -0.0023
 6004TIP3    H142207   5.602   3.231  10.096  0.2162 -1.2056  0.4949
 6004TIP3    H242208   5.707   3.301  10.180 -0.1593  0.0072 -0.0326
 6005TIP3   OH242209   1.390   4.456  10.866 -0.3996  0.2103  0.1196
 6005TIP3    H142210   1.408   4.500  10.949 -0.4637 -1.9453  1.3637
 6005TIP3    H242211   1.477   4.443  10.827 -0.4863  3.3691 -1.4581
 6006TIP3   OH242212   0.200   0.192  10.467  0.3676  0.5901 -0.8681
 6006TIP3    H142213   0.106   0.185  10.483  0.4887  1.3479  0.2276
 6006TIP3    H242214   0.217   0.127  10.397 -0.4161 -1.9789  1.1610
 6007TIP3   OH242215   0.956   3.043  11.279  0.1583  0.0552 -0.1898
 6007TIP3    H142216   0.970   3.130  11.239 -2.4776  0.9782  0.7000
 6007TIP3    H242217   0.874   3.013  11.242  0.3152 -1.4392  0.6202
 6008TIP3   OH242218   5.408   5.387  11.813  0.5338  0.5354  0.2368
 6008TIP3    H142219   5.318   5.371  11.784  1.2468 -2.1465 -0.8032
 6008TIP3    H242220   5.457   5.398  11.732  1.3917  0.3928  0.7309
 6009TIP3   OH242221   4.119   4.220  11.536 -0.1401 -0.7999 -0.4048
 6009TIP3    H142222   4.180   4.230  11.462 -0.5161 -0.0307 -0.6213
 6009TIP3    H242223   4.095   4.128  11.534  0.4226 -0.9477 -0.7938
 6010TIP3   OH242224   2.079   3.583  10.613  0.3643 -0.3292  0.8279
 6010TIP3    H142225   2.103   3.607  10.523  0.1584  0.4265  0.9678
 6010TIP3    H242226   2.122   3.648  10.668 -0.6473  0.0694  1.1839
 6011TIP3   OH242227   4.520   0.320  11.034 -0.3370  0.0220 -0.0707
 6011TIP3    H142228   4.535   0.385  11.103 -1.8157  0.4171 -0.0861
 6011TIP3    H242229   4.502   0.238  11.082 -1.3921  0.3021  0.0502
 6012TIP3   OH242230   1.791   0.601   9.550  0.0370  0.6207  0.2691
 6012TIP3    H142231   1.764   0.591   9.459  2.9458 -0.0324 -0.6564
 6012TIP3    H242232   1.779   0.514   9.588 -2.4567  1.2098  0.9934
 6013TIP3   OH242233   5.663   4.326  11.876  0.4134 -0.1462 -0.5066
 6013TIP3    H142234   5.669   4.321  11.972 -0.9729 -1.2233 -0.4441
 6013TIP3    H242235   5.574   4.355  11.859  0.5988 -0.1316 -1.4891
 6014TIP3   OH242236   1.607   3.010  11.017  0.0382  0.1141  0.4983
 6014TIP3    H142237   1.558   3.029  11.097  0.3531  1.6140  0.3708
 6014TIP3    H242238   1.647   3.094  10.993 -0.9398 -0.0009 -1.8437
 6015TIP3   OH242239   5.206   2.942  10.775  0.4925  0.0938  0.1243
 6015TIP3    H142240   5.247   3.027  10.756  1.5337 -0.3969  0.1269
 6015TIP3    H242241   5.247   2.914  10.857  0.2462 -0.4799  0.0515
 6016TIP3   OH242242   5.807   1.643  11.609 -0.1809 -0.5680  0.0034
 6016TIP3    H142243   5.762   1.710  11.661  0.4052  0.4496 -0.7449
 6016TIP3    H242244   5.830   1.575  11.672  0.9155  0.8339  1.2051
 6017TIP3   OH242245   4.636   6.376  11.649 -0.1667  0.6393 -0.4845
 6017TIP3    H142246   4.653   6.362  11.742  3.1518 -0.5359 -1.1367
 6017TIP3    H242247   4.549   6.338  11.634 -0.1108 -0.5692  1.8333
 6018TIP3   OH242248   5.824   2.549  11.496 -0.3025 -0.2317 -0.7054
 6018TIP3    H142249   5.807   2.508  11.411  0.5743  0.3318 -1.1714
 6018TIP3    H242250   5.874   2.628  11.475  1.8322 -1.1835  0.4529
 6019TIP3   OH242251   0.638   0.169  10.718  0.3344  0.2614  0.2678
 6019TIP3    H142252   0.547   0.156  10.691  0.8347  0.6332 -1.7061
 6019TIP3    H242253   0.643   0.126  10.804 -1.2463 -1.3557 -0.3747
 6020TIP3   OH242254   1.691   2.073  10.014 -0.1086 -0.2064  0.1304
 6020TIP3    H142255   1.714   1.980  10.008 -0.7798 -0.4227  0.7192
 6020TIP3    H242256   1.595   2.074  10.011 -0.2135  0.2973  2.0066
 6021TIP3   OH242257   2.046   0.547  12.248 -0.4582 -0.2805 -0.0742
 6021TIP3    H142258   2.047   0.455  12.223 -1.1189 -0.3801  0.2348
 6021TIP3    H242259   2.102   0.552  12.325 -0.2606 -0.3837 -0.2094
 6022TIP3   OH242260   4.264   4.238  10.329 -0.2853  0.0656 -0.1473
 6022TIP3    H142261   4.328   4.176  10.294  0.3995  0.0208  1.1140
 6022TIP3    H242262   4.251   4.211  10.420 -2.7408 -0.4159 -0.5813
 6023TIP3   OH242263   1.241   2.701  12.057 -0.1660  0.1736  0.2023
 6023TIP3    H142264   1.262   2.626  12.113 -2.2089  0.1662  1.0592
 6023TIP3    H242265   1.217   2.662  11.973  0.1915 -0.0365  0.1980
 6024TIP3   OH242266   6.002   0.247   9.788  0.2241  0.2967  0.0630
 6024TIP3    H142267   5.938   0.264   9.857  1.8200  0.3436  1.6014
 6024TIP3    H242268   6.013   0.332   9.744 -0.7548  0.2828 -0.2207
 6025TIP3   OH242269   1.911   4.938  12.346  0.2366  0.1770 -0.4047
 6025TIP3    H142270   1.851   4.873  12.383 -1.1503  1.2873 -0.6590
 6025TIP3    H242271   1.968   4.887  12.288  1.0626 -1.2490  1.5373
 6026TIP3   OH242272   2.988   1.543  11.270  0.3125 -0.3736 -0.1793
 6026TIP3    H142273   3.039   1.614  11.310 -1.0477  1.1773 -1.0576
 6026TIP3    H242274   3.039   1.517  11.194  0.3065  0.4322 -0.4644
 6027TIP3   OH242275   5.456   3.051  12.545 -0.9681 -0.0296  0.1065
 6027TIP3    H142276   5.387   2.988  12.562 -0.0364 -0.5320  2.5986
 6027TIP3    H242277   5.416   3.136  12.563 -1.4398 -0.1469 -0.3692
 6028TIP3   OH242278   0.376   4.642  12.939  0.6344 -0.0403 -0.1815
 6028TIP3    H142279   0.421   4.722  12.967  0.2647  0.3182 -0.6184
 6028TIP3    H242280   0.447   4.580  12.922  0.8902 -0.2310  1.4018
 6029TIP3   OH242281   4.506   6.262  11.049 -0.0516 -0.7327  0.1867
 6029TIP3    H142282   4.544   6.184  11.009 -0.9972 -0.5281 -1.1789
 6029TIP3    H242283   4.440   6.229  11.110 -0.3351 -0.9932 -0.2647
 6030TIP3   OH242284   5.874   3.472   9.176 -0.3604  0.1830 -0.2052
 6030TIP3    H142285   5.868   3.382   9.209  2.7001 -0.0627 -0.0043
 6030TIP3    H242286   5.859   3.464   9.082  1.6404 -0.8915 -0.4816
 6031TIP3   OH242287   1.601   4.489  10.681  0.2233 -0.0046  0.1824
 6031TIP3    H142288   1.548   4.524  10.610  1.8549  2.6403  0.1598
 6031TIP3    H242289   1.665   4.432  10.638 -0.6095 -0.7455 -0.1054
 6032TIP3   OH242290   2.370   0.850  11.030 -0.2421  0.5993  0.2632
 6032TIP3    H142291   2.450   0.808  10.999 -0.0607  0.9115  0.3015
 6032TIP3    H242292   2.400   0.918  11.090 -0.4928  1.2247 -0.3086
 6033TIP3   OH242293   0.040   6.293  11.833  0.0924 -0.2240 -0.0993
 6033TIP3    H142294   0.017   6.306  11.741  1.9639  0.6455 -0.4961
 6033TIP3    H242295  -0.034   6.328  11.882 -1.0086 -0.8683 -1.2698
 6034TIP3   OH242296   5.415   3.426  11.488 -0.4652 -0.4732 -0.4013
 6034TIP3    H142297   5.471   3.469  11.423  1.5545 -1.6356  0.5031
 6034TIP3    H242298   5.328   3.425  11.447  0.0193  1.7939 -1.6568
 6035TIP3   OH242299   2.887   2.662   9.522 -0.5282 -0.1626  0.0377
 6035TIP3    H142300   2.865   2.595   9.586  0.6343  1.1476  1.9116
 6035TIP3    H242301   2.805   2.710   9.508 -0.8804 -0.7116  0.2152
 6036TIP3   OH242302   5.210   0.940  10.090 -0.2276 -0.2197 -0.0538
 6036TIP3    H142303   5.256   0.998  10.151  0.0972 -0.0237 -0.4736
 6036TIP3    H242304   5.192   0.861  10.140 -0.1437  0.0143  0.3518
 6037TIP3   OH242305   1.851   3.608  12.205 -0.1520  0.6205  0.2110
 6037TIP3    H142306   1.828   3.680  12.146  0.1615 -0.3808 -1.1633
 6037TIP3    H242307   1.794   3.620  12.281 -0.8559  1.6882 -0.4701
 6038TIP3   OH242308   6.171   0.056   9.636  0.0061  0.0719  0.0069
 6038TIP3    H142309   6.111   0.021   9.570 -1.4278 -2.9821  2.6871
 6038TIP3    H242310   6.122   0.127   9.678  0.2396  0.8174 -0.9271
 6039TIP3   OH242311   2.081   5.150  12.408  0.1939 -0.0354  0.4563
 6039TIP3    H142312   2.017   5.081  12.388 -0.4005  0.6981 -0.2261
 6039TIP3    H242313   2.165   5.105  12.406 -0.0789 -0.5498 -1.1225
 6040TIP3   OH242314   1.880   4.781  10.631 -0.7047  0.0969  0.7890
 6040TIP3    H142315   1.827   4.729  10.691 -1.9830 -0.3173 -0.6390
 6040TIP3    H242316   1.944   4.719  10.594  1.8129  0.8544  3.4829
 6041TIP3   OH242317   6.133   6.695  11.289  0.4039 -0.0400  0.1761
 6041TIP3    H142318   6.073   6.641  11.341  0.4363 -0.2335  0.0135
 6041TIP3    H242319   6.077   6.763  11.251  0.1954 -0.5239 -0.3902
 6042TIP3   OH242320   0.483   4.887  11.687  0.5011  0.5073  0.3677
 6042TIP3    H142321   0.544   4.895  11.760 -0.8748 -0.2132  1.6749
 6042TIP3    H242322   0.419   4.957  11.702  1.4158  1.7987 -1.4518
 6043TIP3   OH242323   5.021   1.654   9.487 -0.7907 -0.2580 -0.1914
 6043TIP3    H142324   5.113   1.657   9.513 -0.9614 -1.1207  0.5559
 6043TIP3    H242325   4.994   1.564   9.502 -1.6714 -0.1004 -0.7297
 6044TIP3   OH242326   3.532   4.194  11.593  0.2739 -0.1617  0.4992
 6044TIP3    H142327   3.614   4.195  11.543  0.1424  1.2582  0.2720
 6044TIP3    H242328   3.497   4.106  11.579  3.2048 -1.9403  3.0739
 6045TIP3   OH242329   6.233   3.167   9.898 -0.0283 -0.6009  0.6999
 6045TIP3    H142330   6.180   3.087   9.909 -1.2249  0.2942  1.8154
 6045TIP3    H242331   6.320   3.143   9.929 -0.3740 -1.4780  1.0174
 6046TIP3   OH242332   4.588   5.451  10.683 -0.0742  0.5380 -0.2959
 6046TIP3    H142333   4.668   5.416  10.644  0.1962  0.7573  0.0521
 6046TIP3    H242334   4.573   5.534  10.636 -1.7465 -0.8388 -2.4386
 6047TIP3   OH242335   0.285   3.493  10.050  0.5511  0.3326 -0.0893
 6047TIP3    H142336   0.370   3.492  10.006  0.7358  1.2193  0.2178
 6047TIP3    H242337   0.303   3.528  10.137  0.2343 -1.6995  0.8512
 6048TIP3   OH242338   1.114   4.990  11.641  0.0473 -0.0295 -0.2871
 6048TIP3    H142339   1.207   4.969  11.644  0.0710  0.1620  0.6595
 6048TIP3    H242340   1.070   4.905  11.650  0.1457  0.0877  1.7975
 6049TIP3   OH242341   3.360   0.592  10.841 -0.6125  0.2148  0.0952
 6049TIP3    H142342   3.387   0.578  10.931  0.8578  0.8328 -0.2183
 6049TIP3    H242343   3.267   0.615  10.846 -1.1177 -1.7999  1.2437
 6050TIP3   OH242344   4.805   1.037  11.133  0.3626 -0.3857 -0.1188
 6050TIP3    H142345   4.770   0.954  11.101  1.2366 -0.6737 -0.3534
 6050TIP3    H242346   4.898   1.020  11.146  0.7127  0.7931 -0.9666
 6051TIP3   OH242347   2.795   4.894   9.589  0.0718  0.1354 -0.4421
 6051TIP3    H142348   2.846   4.814   9.577  0.8405  0.3085  1.3709
 6051TIP3    H242349   2.816   4.947   9.511  2.3249  0.0007  0.0019
 6052TIP3   OH242350   4.614   3.205  11.919 -0.9950  0.5556  0.7322
 6052TIP3    H142351   4.625   3.209  12.014 -1.3133  0.5212  0.7703
 6052TIP3    H242352   4.587   3.115  11.901 -1.0842  0.6030  0.6231
 6053TIP3   OH242353   2.305   3.360  10.800  0.5670 -0.2816 -0.3990
 6053TIP3    H142354   2.332   3.355  10.891  0.9073 -0.7324 -0.5219
 6053TIP3    H242355   2.210   3.347  10.803  0.7532 -1.8554 -0.2241
 6054TIP3   OH242356   2.141   4.963  10.680 -0.1988  0.2809 -0.0303
 6054TIP3    H142357   2.159   4.946  10.588 -0.1141  0.1709  0.0064
 6054TIP3    H242358   2.214   5.019  10.709 -0.2908  0.4176 -0.0615
 6055TIP3   OH242359   2.700   4.144   9.859 -0.0910  0.1462  0.0597
 6055TIP3    H142360   2.704   4.068   9.801 -1.6355 -0.4605  0.6876
 6055TIP3    H242361   2.786   4.185   9.850 -0.1481 -0.1095 -2.3781
 6056TIP3   OH242362   0.853   1.576   9.550  0.0546 -0.4282 -0.2145
 6056TIP3    H142363   0.943   1.597   9.576  0.4786 -2.3282 -0.0184
 6056TIP3    H242364   0.799   1.605   9.623  0.8200 -1.8521  0.9479
 6057TIP3   OH242365   4.838   3.157   9.394 -0.0992  0.0573  1.2043
 6057TIP3    H142366   4.925   3.168   9.356 -1.0289  0.2528 -1.0224
 6057TIP3    H242367   4.811   3.069   9.367 -1.1906  0.5899  0.4588
 6058TIP3   OH242368   4.767   4.564  10.995 -0.5490 -0.2951 -0.3863
 6058TIP3    H142369   4.818   4.517  11.060  0.1150 -0.3355 -0.9258
 6058TIP3    H242370   4.793   4.525  10.911 -1.1202  0.0010 -0.7130
 6059TIP3   OH242371   0.368   2.875  10.673 -0.0664 -0.0629 -0.2826
 6059TIP3    H142372   0.355   2.782  10.656  1.4334 -0.6538  1.4761
 6059TIP3    H242373   0.447   2.898  10.625  0.1627  0.0258  0.1314
 6060TIP3   OH242374   2.623   6.418  11.721 -0.2640 -0.3925  0.3208
 6060TIP3    H142375   2.643   6.503  11.760  0.8783 -1.4422  2.1990
 6060TIP3    H242376   2.696   6.403  11.660 -0.9939  0.3770 -0.7726
 6061TIP3   OH242377   5.462   0.123  11.648  0.3424 -0.3284  0.0668
 6061TIP3    H142378   5.541   0.082  11.612 -0.8601 -1.3896 -1.5059
 6061TIP3    H242379   5.484   0.216  11.654  1.2573 -0.3837 -1.7323
 6062TIP3   OH242380   4.012   4.373  12.017 -0.0464  0.3407 -0.0574
 6062TIP3    H142381   3.955   4.449  12.003 -0.6722  0.1993  1.5459
 6062TIP3    H242382   3.991   4.315  11.944 -1.3979  0.6411  0.0470
 6063TIP3   OH242383   1.907   0.876  10.615 -0.4189  0.3882 -0.9890
 6063TIP3    H142384   1.816   0.851  10.604 -0.6366  0.7810 -0.1030
 6063TIP3    H242385   1.952   0.794  10.635 -0.6806  0.2952 -0.7786
 6064TIP3   OH242386   2.944   5.730  11.889 -0.0580 -0.6476  0.2401
 6064TIP3    H142387   2.976   5.642  11.908  0.9989 -0.1802  0.7190
 6064TIP3    H242388   2.865   5.716  11.838  1.3195 -1.8899 -1.7211
 6065TIP3   OH242389   5.730   1.784  12.415  0.1336 -0.6792 -0.5746
 6065TIP3    H142390   5.748   1.731  12.337 -1.2401 -1.6665 -0.2630
 6065TIP3    H242391   5.742   1.723  12.488 -0.0320 -0.1686 -0.1182
 6066TIP3   OH242392   2.357   6.204  12.638  0.1069 -0.1302  0.4469
 6066TIP3    H142393   2.281   6.217  12.695 -1.1729 -1.1357 -0.9569
 6066TIP3    H242394   2.362   6.284  12.586 -0.4989 -0.3897 -0.0177
 6067TIP3   OH242395   5.470   0.279  10.398 -0.3736 -0.1127 -0.0749
 6067TIP3    H142396   5.467   0.303  10.491  1.8631  0.8209 -0.1806
 6067TIP3    H242397   5.501   0.188  10.398 -2.0604 -0.7344  0.0906
 6068TIP3   OH242398   0.270   6.136   9.489  0.5384 -0.0090 -0.6241
 6068TIP3    H142399   0.313   6.087   9.419  2.3405 -0.2359  0.5749
 6068TIP3    H242400   0.303   6.226   9.479 -0.0110  0.1907 -0.6851
 6069TIP3   OH242401   2.939   3.499  11.311  0.7015  0.0585 -0.7241
 6069TIP3    H142402   2.853   3.505  11.271 -0.0255  0.4615  0.8469
 6069TIP3    H242403   2.977   3.587  11.301  0.0920  0.4648  0.3527
 6070TIP3   OH242404   6.172   0.306  11.589  0.4271 -0.4364  0.2244
 6070TIP3    H142405   6.206   0.395  11.602 -1.5482  0.6947 -1.6066
 6070TIP3    H242406   6.210   0.278  11.505 -2.1673  0.4725 -1.3688
 6071TIP3   OH242407   2.185   1.007  11.364 -0.2120  0.0260 -0.1762
 6071TIP3    H142408   2.137   1.024  11.445  1.6789  0.4734  0.9289
 6071TIP3    H242409   2.211   1.093  11.333  0.4652 -0.2324 -0.3463
 6072TIP3   OH242410   1.772   4.970   8.843 -0.5886 -1.0087  0.2577
 6072TIP3    H142411   1.816   4.947   8.925 -1.0114  0.6356  0.9837
 6072TIP3    H242412   1.679   4.971   8.865 -0.5842  2.1763  0.5849
 6073TIP3   OH242413   4.940   1.383   9.470 -0.4016 -0.3214  0.2326
 6073TIP3    H142414   4.853   1.398   9.435 -0.5981 -1.5542  0.1346
 6073TIP3    H242415   4.966   1.298   9.434  0.6304 -0.2108  0.6664
 6074TIP3   OH242416   2.785   5.052   9.810  0.4639 -0.2391  0.3929
 6074TIP3    H142417   2.703   5.089   9.777  0.6899 -0.5342 -0.5140
 6074TIP3    H242418   2.815   4.993   9.741  2.5069  1.4100 -0.2362
 6075TIP3   OH242419   0.214   2.776   9.838  0.3042  0.9119 -0.0025
 6075TIP3    H142420   0.155   2.777   9.762  0.1228  1.4258  0.1404
 6075TIP3    H242421   0.301   2.795   9.801  0.2871  0.7366 -0.1359
 6076TIP3   OH242422   1.599   5.849  10.985 -0.7856 -0.2524  0.0166
 6076TIP3    H142423   1.603   5.754  10.977  0.0760 -0.1020 -1.9883
 6076TIP3    H242424   1.570   5.879  10.899 -0.9904  1.3149  0.6022
 6077TIP3   OH242425   6.153   4.351  11.306 -0.0974 -0.6083 -0.0579
 6077TIP3    H142426   6.228   4.407  11.326 -0.2833 -0.4433  0.1797
 6077TIP3    H242427   6.077   4.401  11.334 -0.3728 -0.3906 -1.1556
 6078TIP3   OH242428   5.077   5.304   9.403 -0.1212 -0.4119 -0.0436
 6078TIP3    H142429   5.044   5.274   9.319 -1.3546 -0.9549  0.6055
 6078TIP3    H242430   4.999   5.311   9.459  0.5545  0.7731  0.8092
 6079TIP3   OH242431   2.859   1.818  12.393  0.2293  0.2674 -0.0542
 6079TIP3    H142432   2.878   1.856  12.479 -0.0320 -0.1713  0.2025
 6079TIP3    H242433   2.932   1.844  12.338  0.5053  0.3734  0.3586
 6080TIP3   OH242434   2.307   2.746  11.607  0.0538 -0.4863  0.0325
 6080TIP3    H142435   2.340   2.703  11.685 -1.1316 -0.6691  0.4574
 6080TIP3    H242436   2.213   2.757  11.623  0.0710  0.9948 -0.6445
 6081TIP3   OH242437   1.559   4.938  10.666 -0.1834 -0.3597 -0.0638
 6081TIP3    H142438   1.586   5.013  10.613 -0.8266  0.7457  1.1014
 6081TIP3    H242439   1.641   4.903  10.701  0.0393  0.7597  0.5889
 6082TIP3   OH242440   2.523   0.416  11.840 -0.6148 -0.2593 -0.0686
 6082TIP3    H142441   2.533   0.371  11.923  0.8023  0.7802  0.3652
 6082TIP3    H242442   2.459   0.485  11.857 -0.4266 -0.1326  0.1307
 6083TIP3   OH242443   1.915   6.346  11.740  0.3978  0.7550  0.0639
 6083TIP3    H142444   1.862   6.315  11.813 -1.6331 -1.1556 -2.0630
 6083TIP3    H242445   1.895   6.440  11.735 -0.4608  0.6543  1.1413
 6084TIP3   OH242446   4.180   4.502  12.300  0.0313 -0.2068  0.0522
 6084TIP3    H142447   4.089   4.497  12.329  0.2261 -0.4681  0.6365
 6084TIP3    H242448   4.213   4.584  12.338 -0.0347  0.0284 -0.3890
 6085TIP3   OH242449   4.151   3.120  11.443  0.8423 -0.6501  0.7184
 6085TIP3    H142450   4.070   3.082  11.408 -0.0256  1.9118 -0.3885
 6085TIP3    H242451   4.197   3.153  11.365  2.6594 -1.4319  1.3989
 6086TIP3   OH242452   1.379   2.840  12.439  0.0040 -0.5358  0.1529
 6086TIP3    H142453   1.305   2.856  12.380  0.1904  0.9337  0.2643
 6086TIP3    H242454   1.452   2.887  12.399  0.6814 -1.3109  0.4545
 6087TIP3   OH242455   0.169   2.200   9.219 -0.1564 -0.4289  0.0844
 6087TIP3    H142456   0.151   2.133   9.153  0.1591  0.6000 -1.0764
 6087TIP3    H242457   0.136   2.281   9.181 -0.6678  0.0729  1.5342
 6088TIP3   OH242458   5.383   0.549  11.654  0.1467 -0.0611  0.3840
 6088TIP3    H142459   5.327   0.485  11.698 -2.9523 -0.0055 -2.9869
 6088TIP3    H242460   5.465   0.501  11.637 -1.2132 -2.3852  0.0126
 6089TIP3   OH242461   3.401   5.309  11.562  0.1209 -0.2953 -0.8839
 6089TIP3    H142462   3.489   5.296  11.597  1.4090  1.5937 -3.0867
 6089TIP3    H242463   3.382   5.402  11.579 -0.4945 -0.1260 -2.3425
 6090TIP3   OH242464   3.334   6.103  11.127  0.4013 -0.0703  0.2890
 6090TIP3    H142465   3.302   6.016  11.151 -0.2585  0.8213  3.0383
 6090TIP3    H242466   3.254   6.152  11.107  0.6523  0.2696  0.1241
 6091TIP3   OH242467   0.639   4.114  12.195 -0.4715 -0.2915  0.0997
 6091TIP3    H142468   0.647   4.022  12.169  1.6755 -0.1216 -0.0024
 6091TIP3    H242469   0.729   4.144  12.204 -1.1366  1.7838  0.2797
 6092TIP3   OH242470   3.053   4.807   9.199  0.6940 -0.2161 -0.7266
 6092TIP3    H142471   3.111   4.732   9.212  3.4601  0.5892 -5.8526
 6092TIP3    H242472   3.086   4.873   9.260 -1.5132 -2.5781  3.5685
 6093TIP3   OH242473   4.764   3.546  10.547  0.1952 -0.0882  0.2474
 6093TIP3    H142474   4.702   3.573  10.479  0.2655  0.1344  0.2708
 6093TIP3    H242475   4.797   3.461  10.517 -0.2912 -0.3191  0.3468
 6094TIP3   OH242476   2.983   0.611  10.445 -0.0683 -0.2422 -0.2611
 6094TIP3    H142477   3.021   0.524  10.433 -0.8837 -0.6690  0.1496
 6094TIP3    H242478   2.941   0.631  10.361  0.8122  0.1306 -0.6377
 6095TIP3   OH242479   0.099   5.833   9.771  0.2592 -0.6912 -0.5424
 6095TIP3    H142480   0.169   5.861   9.711  0.6773 -2.4733 -0.9613
 6095TIP3    H242481   0.138   5.761   9.821 -0.9491 -1.0185 -0.0296
 6096TIP3   OH242482   3.013   3.914  11.830  0.1453  0.2401 -0.1558
 6096TIP3    H142483   2.926   3.952  11.844  0.3095  0.8082 -0.6231
 6096TIP3    H242484   3.006   3.825  11.865 -0.8236  0.0543 -0.7691
 6097TIP3   OH242485   3.292   1.651  10.651  0.2030 -0.0744 -0.6998
 6097TIP3    H142486   3.347   1.576  10.673  0.8152  0.1748 -1.3241
 6097TIP3    H242487   3.343   1.699  10.586 -0.4250  0.5841 -0.7149
 6098TIP3   OH242488   4.701   2.785  10.686 -0.4974 -0.3670 -0.1573
 6098TIP3    H142489   4.710   2.691  10.673 -0.9152 -0.4946  0.4308
 6098TIP3    H242490   4.791   2.817  10.695 -0.3189 -0.6028 -1.0273
 6099TIP3   OH242491   3.632   1.149  10.836 -0.0695 -0.1756  0.0162
 6099TIP3    H142492   3.677   1.116  10.758  0.6768 -1.9928  1.1760
 6099TIP3    H242493   3.615   1.242  10.816  0.6890 -0.4292 -2.0163
 6100TIP3   OH242494   1.365   6.089   9.299 -0.0427 -0.2687  0.1815
 6100TIP3    H142495   1.419   6.160   9.332  1.2109 -0.8668 -0.5150
 6100TIP3    H242496   1.427   6.025   9.265 -1.2035 -0.6267 -1.3801
 6101TIP3   OH242497   5.471   1.000  11.434  0.4034 -0.4608  0.0829
 6101TIP3    H142498   5.395   1.053  11.455  2.1930  0.5881  5.5867
 6101TIP3    H242499   5.520   1.051  11.369 -0.4982  2.0533  1.2878
 6102TIP3   OH242500   2.457   2.411  10.359  0.3860 -0.5867  0.2221
 6102TIP3    H142501   2.431   2.503  10.360 -0.7816 -0.9114  0.4007
 6102TIP3    H242502   2.391   2.366  10.411  0.9456 -1.5382  0.1422
 6103TIP3   OH242503   3.609   0.048  11.271 -0.1940 -0.0415  0.1728
 6103TIP3    H142504   3.599   0.090  11.186  0.8046 -0.7238 -0.3013
 6103TIP3    H242505   3.553  -0.030  11.265 -0.5111  0.1738  0.3256
 6104TIP3   OH242506   2.088   0.108  10.136  0.1535 -0.1921 -0.4052
 6104TIP3    H142507   2.060   0.194  10.164 -0.6261 -1.0393  1.5746
 6104TIP3    H242508   2.176   0.098  10.172 -0.8653 -1.2982  1.9905
 6105TIP3   OH242509   3.321   1.395   9.803  0.2200 -0.1446 -0.7383
 6105TIP3    H142510   3.394   1.340   9.775 -0.8860 -0.3854 -3.3613
 6105TIP3    H242511   3.278   1.422   9.722 -3.6377 -1.3849  0.6695
 6106TIP3   OH242512   5.022   3.975  12.138  0.4119  0.1697  0.0048
 6106TIP3    H142513   4.935   3.955  12.173  0.8014  1.4652  1.8362
 6106TIP3    H242514   5.007   4.050  12.080  0.1883 -0.1815 -0.3983
 6107TIP3   OH242515   5.933   1.437  10.013 -0.2399  0.3575 -0.1689
 6107TIP3    H142516   5.951   1.475  10.099 -0.5077  0.4863 -0.1716
 6107TIP3    H242517   5.887   1.355  10.032 -0.1860  0.3227 -0.1866
 6108TIP3   OH242518   3.947   2.330  10.227 -0.2794  0.2490 -0.1568
 6108TIP3    H142519   3.999   2.287  10.159 -0.5756 -0.9944  0.3787
 6108TIP3    H242520   3.863   2.349  10.184 -0.1541  0.2793 -0.3891
 6109TIP3   OH242521   6.063   1.658  11.530 -0.2403 -0.3508 -0.3335
 6109TIP3    H142522   5.975   1.697  11.534  0.7299  2.0254 -0.6824
 6109TIP3    H242523   6.122   1.731  11.547  1.7665 -1.4489 -2.1817
 6110TIP3   OH242524   4.794   2.626  11.059 -0.1125  0.3600 -0.0069
 6110TIP3    H142525   4.705   2.659  11.050  0.0034  0.7498  0.2524
 6110TIP3    H242526   4.850   2.703  11.047  0.3012 -0.2049 -2.2784
 6111TIP3   OH242527   4.433   2.826  11.434  0.3048  0.3947 -0.4197
 6111TIP3    H142528   4.497   2.850  11.367  0.5372 -0.3798 -0.4816
 6111TIP3    H242529   4.416   2.908  11.481  2.0844  0.4400  0.2397
 6112TIP3   OH242530   0.215   4.937  12.399 -0.3593 -0.0406  0.2319
 6112TIP3    H142531   0.201   4.883  12.321 -1.3423 -1.9019  1.6225
 6112TIP3    H242532   0.244   5.021  12.364 -3.3705  0.1482 -2.3789
 6113TIP3   OH242533   4.252   4.105   9.677 -0.1003 -0.0011  0.2993
 6113TIP3    H142534   4.222   4.191   9.646  1.0390  0.4338  0.3374
 6113TIP3    H242535   4.175   4.049   9.671 -0.6431  0.8050 -0.5690
 6114TIP3   OH242536   5.896   3.076   9.906  0.3140  0.0167  0.0898
 6114TIP3    H142537   5.925   3.163   9.880  0.1351 -0.0851 -0.4452
 6114TIP3    H242538   5.944   3.016   9.849 -1.8196 -0.1164 -1.6610
 6115TIP3   OH242539   2.981   2.715  12.189 -0.3600  0.1786  0.7924
 6115TIP3    H142540   3.036   2.637  12.177 -1.7692 -0.5483 -1.6984
 6115TIP3    H242541   3.015   2.756  12.268  1.4755 -2.1010  1.3101
 6116TIP3   OH242542   1.014   1.059  12.566  0.5033  0.1781 -0.3155
 6116TIP3    H142543   0.969   1.141  12.586 -1.2815 -0.8996  0.2226
 6116TIP3    H242544   1.043   1.026  12.652  0.4105 -0.2102 -0.4324
 6117TIP3   OH242545   4.736   4.251  11.022 -0.1665  0.8069 -0.0368
 6117TIP3    H142546   4.753   4.324  10.962  1.2758  0.6028  0.0895
 6117TIP3    H242547   4.811   4.193  11.011 -0.4579  0.1848  1.0993
 6118TIP3   OH242548   3.435   4.793  10.800 -0.1802  0.4633 -0.1780
 6118TIP3    H142549   3.385   4.819  10.877  1.2051  0.2325  0.8502
 6118TIP3    H242550   3.443   4.873  10.748  0.4318  1.1005  0.8509
 6119TIP3   OH242551   5.241   1.054  10.921  0.2696 -0.1764  0.1078
 6119TIP3    H142552   5.168   1.015  10.874  0.8398 -1.0105 -0.1191
 6119TIP3    H242553   5.256   0.996  10.996 -0.8672  1.3340  1.5817
 6120TIP3   OH242554   6.127   5.308  12.291 -0.2305  0.2491  0.6370
 6120TIP3    H142555   6.047   5.257  12.302 -0.4675  0.3103 -0.6837
 6120TIP3    H242556   6.195   5.243  12.272  0.2266  0.1222  2.4967
 6121TIP3   OH242557   0.084   5.360  11.617 -0.1081  0.2147  0.2171
 6121TIP3    H142558   0.067   5.280  11.667 -1.9926 -0.1314 -0.8644
 6121TIP3    H242559   0.110   5.328  11.530  1.1279  0.8023  0.3490
 6122TIP3   OH242560   4.853   0.222  12.842  0.3336  0.2338 -0.3820
 6122TIP3    H142561   4.917   0.193  12.777 -0.8313 -0.2737 -1.3467
 6122TIP3    H242562   4.825   0.142  12.886 -0.1573  0.3495 -0.4710
 6123TIP3   OH242563   2.215   1.049  11.721 -0.1694 -0.1432  0.1257
 6123TIP3    H142564   2.310   1.046  11.707 -0.2657 -1.6245 -0.3860
 6123TIP3    H242565   2.193   1.142  11.716  1.1274  0.1529 -0.6226
 6124TIP3   OH242566   5.753   5.750  10.016 -0.1665  0.0455 -0.0819
 6124TIP3    H142567   5.664   5.717  10.024  0.1867 -0.6388  1.1769
 6124TIP3    H242568   5.759   5.780   9.925 -2.0950  1.3693  0.1781
 6125TIP3   OH242569   2.491   5.792  11.036  0.3776  0.3407  0.1256
 6125TIP3    H142570   2.493   5.881  11.071 -0.9776  0.7788 -0.8191
 6125TIP3    H242571   2.568   5.750  11.073 -0.1458  1.2262  2.3645
 6126TIP3   OH242572   4.467   3.429  10.315 -0.5060 -0.0657  0.0014
 6126TIP3    H142573   4.426   3.434  10.228  1.7003 -2.1653 -1.2643
 6126TIP3    H242574   4.555   3.463  10.302 -0.8716  1.9384  2.0734
 6127TIP3   OH242575   3.245   3.513  11.430 -0.0445 -0.4438  0.7824
 6127TIP3    H142576   3.242   3.551  11.342 -0.5635 -1.8277  0.1763
 6127TIP3    H242577   3.289   3.579  11.483 -1.6338  1.3659 -0.0210
 6128TIP3   OH242578   1.883   0.526  12.733  0.2356  0.4779  0.1193
 6128TIP3    H142579   1.794   0.557  12.722  0.0665 -0.1266 -0.3102
 6128TIP3    H242580   1.932   0.602  12.764 -0.2501  1.0473 -0.4722
 6129TIP3   OH242581   2.247   5.688  10.707 -0.2640  0.4694  0.6190
 6129TIP3    H142582   2.162   5.658  10.676  0.4463 -0.7483 -0.2368
 6129TIP3    H242583   2.310   5.627  10.668  1.1649  2.3178 -0.1729
 6130TIP3   OH242584   4.220   5.292  12.473  0.2916 -0.2972  0.2222
 6130TIP3    H142585   4.306   5.251  12.464  0.0889 -0.8813  0.8755
 6130TIP3    H242586   4.207   5.301  12.568 -0.2143  0.1195  0.1197
 6131TIP3   OH242587   0.089   0.323  11.221 -0.3565  0.1721  0.0402
 6131TIP3    H142588   0.034   0.245  11.209  0.8597 -0.5812 -0.8429
 6131TIP3    H242589   0.090   0.337  11.316 -0.6369 -0.8673  0.2105
 6132TIP3   OH242590   3.381   0.069  10.487  0.5395  0.3184 -0.0819
 6132TIP3    H142591   3.321   0.009  10.442 -0.3332  1.0560  0.0722
 6132TIP3    H242592   3.458   0.015  10.506 -0.3221 -0.8464  0.2800
 6133TIP3   OH242593   6.595   2.894  10.513  1.1626 -0.1455 -0.1285
 6133TIP3    H142594   6.690   2.900  10.505  1.2213 -1.9843 -1.6325
 6133TIP3    H242595   6.570   2.828  10.448 -1.1973  0.6059 -0.0799
 6134TIP3   OH242596   4.485   3.199   9.166  0.3899  0.1548 -0.0590
 6134TIP3    H142597   4.471   3.275   9.109  1.3982  1.1864  1.0153
 6134TIP3    H242598   4.425   3.133   9.132  1.0439  0.6653 -2.3899
 6135TIP3   OH242599   5.853   3.626  10.224 -0.0448  0.1681 -0.5074
 6135TIP3    H142600   5.846   3.718  10.250  2.7918  0.1373  0.6633
 6135TIP3    H242601   5.770   3.608  10.180 -0.3668  3.5184 -1.5665
 6136TIP3   OH242602   6.439   1.244  10.669 -0.4974 -0.0449  0.0888
 6136TIP3    H142603   6.413   1.210  10.583  0.6821  0.2211 -0.3857
 6136TIP3    H242604   6.412   1.336  10.666 -0.6550 -0.0898  0.0934
 6137TIP3   OH242605   5.980   5.083  10.356  0.4277  0.3222 -0.1404
 6137TIP3    H142606   5.959   4.995  10.389  1.2045  1.3350  3.4638
 6137TIP3    H242607   5.904   5.136  10.379  1.5621  1.3543  1.4453
 6138TIP3   OH242608   2.721   0.056   9.730  0.2459  0.0624 -0.1791
 6138TIP3    H142609   2.740   0.032   9.640  1.3837 -0.0412  0.0720
 6138TIP3    H242610   2.626   0.072   9.732  0.3012  0.6635 -1.5221
 6139TIP3   OH242611   0.172   4.017  11.456  0.0239  0.3898 -0.0135
 6139TIP3    H142612   0.115   4.083  11.494  0.1182 -0.5950  1.9249
 6139TIP3    H242613   0.178   3.948  11.522 -0.1472 -1.6353 -1.9864
 6140TIP3   OH242614   0.406   5.116  11.011  0.0567  0.2695  0.2915
 6140TIP3    H142615   0.315   5.100  10.986  0.3407 -0.4036 -0.3362
 6140TIP3    H242616   0.429   5.198  10.967  0.2201 -0.3483 -0.8093
 6141TIP3   OH242617   4.080   5.718   9.822 -0.0215  0.1166  0.4283
 6141TIP3    H142618   4.140   5.745   9.891  1.3340 -0.1672 -0.5922
 6141TIP3    H242619   4.089   5.623   9.818  0.8093  0.2264 -0.8954
 6142TIP3   OH242620   5.708   6.595  11.357  0.1316 -0.3359  0.5670
 6142TIP3    H142621   5.632   6.546  11.386 -0.5862  1.7434  2.4826
 6142TIP3    H242622   5.705   6.677  11.407  2.7660  0.4942 -0.4373
 6143TIP3   OH242623   4.755   6.451  12.223  0.2378 -0.5569 -0.6101
 6143TIP3    H142624   4.753   6.366  12.269 -0.7438 -0.6054 -0.7080
 6143TIP3    H242625   4.789   6.512  12.288 -1.1175 -0.6259  0.2091
 6144TIP3   OH242626   4.605   0.700  11.405 -0.1170  0.0247 -0.1738
 6144TIP3    H142627   4.669   0.669  11.469 -1.1556 -0.9647  0.4003
 6144TIP3    H242628   4.531   0.729  11.457 -0.7215 -0.1929 -0.8999
 6145TIP3   OH242629   1.455   0.080   9.013  0.2648 -0.2971 -0.1340
 6145TIP3    H142630   1.451  -0.010   9.044 -1.1146 -0.0498  0.4418
 6145TIP3    H242631   1.418   0.077   8.925 -1.6495  0.0098  0.6316
 6146TIP3   OH242632   3.835   1.406  11.162 -0.6208  0.5387 -0.1942
 6146TIP3    H142633   3.749   1.375  11.190 -1.0851  0.6385 -1.4450
 6146TIP3    H242634   3.816   1.469  11.092  0.4801  0.3568 -0.6758
 6147TIP3   OH242635   1.369   4.162  12.502 -0.4806 -0.0756  0.3216
 6147TIP3    H142636   1.446   4.164  12.559  0.0766  3.2024 -0.3811
 6147TIP3    H242637   1.301   4.207  12.551 -1.0236 -0.2511 -0.2588
 6148TIP3   OH242638   5.354   6.301  11.117  0.1195 -0.7283 -0.0811
 6148TIP3    H142639   5.372   6.380  11.066 -0.2383 -1.3165 -1.1741
 6148TIP3    H242640   5.434   6.249  11.111 -0.2258 -1.2003 -0.8479
 6149TIP3   OH242641   5.094   1.162   9.354  0.4558 -0.2155 -0.0472
 6149TIP3    H142642   5.058   1.125   9.273 -0.4267 -0.5723  0.4805
 6149TIP3    H242643   5.186   1.136   9.354  0.8160  0.9005 -1.5521
 6150TIP3   OH242644   5.958   3.887  10.799  0.1058  0.3458  0.5434
 6150TIP3    H142645   6.031   3.832  10.827 -1.1919 -0.6790  2.1435
 6150TIP3    H242646   5.969   3.969  10.845 -0.2670 -0.1738  1.5868
 6151TIP3   OH242647   4.855   1.957  10.832 -0.7252 -0.0954  0.1662
 6151TIP3    H142648   4.786   1.943  10.897 -0.8938  0.1471  0.0400
 6151TIP3    H242649   4.848   1.881  10.773 -1.4873  0.3879 -0.3817
 6152TIP3   OH242650   3.480   4.249  10.423 -0.2102  0.2428 -0.1345
 6152TIP3    H142651   3.436   4.180  10.473 -0.7208  0.0044 -0.8951
 6152TIP3    H242652   3.413   4.282  10.363  0.3164  0.6976 -0.4825
 6153TIP3   OH242653   1.021   6.203  10.665  0.5559 -0.2116 -0.0507
 6153TIP3    H142654   0.964   6.206  10.742 -1.3980 -0.4087 -1.4076
 6153TIP3    H242655   1.093   6.263  10.686  0.0635 -0.2313  1.8931
 6154TIP3   OH242656   2.117   6.185  12.818 -0.1171  0.8953 -0.0353
 6154TIP3    H142657   2.102   6.091  12.813  0.4337  0.7417  0.8665
 6154TIP3    H242658   2.046   6.224  12.767 -0.2852 -0.0097 -0.5054
 6155TIP3   OH242659   5.075   1.578  10.015  0.4505 -0.1390 -0.0242
 6155TIP3    H142660   5.155   1.614  10.053  1.6904 -1.8048 -0.9197
 6155TIP3    H242661   5.104   1.535   9.934 -1.2903 -1.1414 -0.1624
 6156TIP3   OH242662   1.423   4.727  10.571 -0.4404 -0.1961  0.0182
 6156TIP3    H142663   1.473   4.790  10.624  0.3417 -0.2545 -0.6347
 6156TIP3    H242664   1.403   4.775  10.490 -0.4094 -0.5766 -0.2141
 6157TIP3   OH242665   1.694   6.325  11.949 -0.1853 -0.0361  0.3008
 6157TIP3    H142666   1.669   6.418  11.954  0.6997  0.2182  0.2195
 6157TIP3    H242667   1.617   6.281  11.915 -0.3753  0.7852 -0.3537
 6158TIP3   OH242668   4.748   4.453  10.029 -0.2198 -0.0325  0.2571
 6158TIP3    H142669   4.711   4.373   9.990 -0.9786 -1.0060  2.7319
 6158TIP3    H242670   4.713   4.524   9.976 -0.8091 -1.2724 -1.0851
 6159TIP3   OH242671   3.068   5.435  11.933  0.2257  0.0225  0.2560
 6159TIP3    H142672   3.043   5.409  12.021 -0.2509 -0.6544 -0.0667
 6159TIP3    H242673   3.162   5.448  11.937  0.1605  0.2862  0.9341
 6160TIP3   OH242674   5.398   0.450   9.738  0.4379  0.0972 -0.5980
 6160TIP3    H142675   5.473   0.416   9.688  1.1884  1.8439 -0.7671
 6160TIP3    H242676   5.420   0.433   9.829  1.2969  0.9582 -0.6142
 6161TIP3   OH242677   0.145   0.572  11.991  0.6451  0.0169  0.0315
 6161TIP3    H142678   0.168   0.571  12.084 -2.6077  0.3081  0.9749
 6161TIP3    H242679   0.134   0.480  11.968  0.7738 -0.0274  0.1499
 6162TIP3   OH242680   3.512   0.659  10.068 -0.2470 -0.2032  0.4101
 6162TIP3    H142681   3.464   0.585  10.106 -1.1275  0.0151 -0.2535
 6162TIP3    H242682   3.446   0.728  10.059  0.3617  0.3539  0.1586
 6163TIP3   OH242683   5.203   1.500   9.788  0.0711  0.1616 -0.0349
 6163TIP3    H142684   5.282   1.472   9.833 -0.4692 -0.1823  0.7142
 6163TIP3    H242685   5.171   1.421   9.743  0.6311  0.5112 -1.0795
 6164TIP3   OH242686   4.594   1.875   9.834  0.7855 -0.0332 -0.1806
 6164TIP3    H142687   4.649   1.826   9.894  0.8051  1.1811  0.8405
 6164TIP3    H242688   4.633   1.862   9.748  1.1282 -1.2902  0.1558
 6165TIP3   OH242689   1.348   0.836  10.961  0.2285  0.1998  0.1880
 6165TIP3    H142690   1.422   0.788  10.997  0.3059  0.4109  0.3108
 6165TIP3    H242691   1.305   0.774  10.902  1.5809  0.6373 -1.3466
 6166TIP3   OH242692   2.747   2.004  10.979  0.0811 -0.3253  0.2348
 6166TIP3    H142693   2.789   2.053  11.049 -0.6490  1.1916 -0.3429
 6166TIP3    H242694   2.818   1.956  10.937  1.3238  2.1808 -0.7416
 6167TIP3   OH242695   3.448   3.786   9.665  0.9248 -0.3920 -0.1374
 6167TIP3    H142696   3.440   3.856   9.730  5.6192 -0.5217  0.9488
 6167TIP3    H242697   3.444   3.705   9.717 -0.1887 -0.7945 -0.8010
 6168TIP3   OH242698   0.322   5.765  11.090  0.3560 -0.0232  0.1007
 6168TIP3    H142699   0.229   5.744  11.088  0.2211  0.4185  1.0148
 6168TIP3    H242700   0.357   5.730  11.008 -0.4498 -0.9318  0.1317
 6169TIP3   OH242701   0.777   5.986  18.149 -0.3358 -0.3004 -0.3672
 6169TIP3    H142702   0.694   5.946  18.120 -0.1419 -0.3115 -0.9250
 6169TIP3    H242703   0.768   6.078  18.126 -0.3471 -0.2262 -0.0690
 6170TIP3   OH242704   3.208   3.877  12.236 -0.4887 -0.2192 -0.2013
 6170TIP3    H142705   3.269   3.902  12.306  0.7377  1.9974 -1.9125
 6170TIP3    H242706   3.245   3.796  12.201 -0.1389 -0.4139  0.5771
 6171TIP3   OH242707   5.918   0.988  11.288  0.3475 -0.3531 -1.1070
 6171TIP3    H142708   5.882   1.040  11.360  2.7304 -0.8471  0.5458
 6171TIP3    H242709   5.964   1.051  11.234  0.7756 -0.3327 -0.7229
 6172TIP3   OH242710   3.220   6.553  10.444 -0.2433  0.4879  0.0820
 6172TIP3    H142711   3.262   6.475  10.479  0.6606 -0.1067 -2.1695
 6172TIP3    H242712   3.126   6.532  10.446 -0.0828 -0.2428  0.3992
 6173TIP3   OH242713   1.355   4.176  10.657 -0.3112 -0.2983  0.0642
 6173TIP3    H142714   1.294   4.104  10.642 -0.2275 -0.6207  1.1613
 6173TIP3    H242715   1.309   4.236  10.716 -0.1899  0.3050 -0.4370
 6174TIP3   OH242716   2.702   1.329  10.392 -0.3706  0.0602  0.4698
 6174TIP3    H142717   2.675   1.418  10.370  0.8900  0.4748  0.5335
 6174TIP3    H242718   2.783   1.316  10.344 -1.0485 -1.4394 -0.3399
 6175TIP3   OH242719   2.476   1.049  11.208 -0.7734  0.6028 -0.4195
 6175TIP3    H142720   2.491   1.104  11.132 -0.1022  0.7416 -0.1909
 6175TIP3    H242721   2.448   1.110  11.277 -0.1578  0.6441 -0.2030
 6176TIP3   OH242722   4.991   4.403  10.255 -0.3622 -0.6521  0.4783
 6176TIP3    H142723   4.964   4.494  10.268 -0.7227 -0.8866  1.4080
 6176TIP3    H242724   5.021   4.375  10.341  2.2262 -0.6226 -0.3153
 6177TIP3   OH242725   1.617   5.988  10.511 -0.4623  0.1693  0.0229
 6177TIP3    H142726   1.668   6.057  10.553 -0.8461 -0.1947  1.1200
 6177TIP3    H242727   1.646   5.988  10.420  1.4271  0.0342  0.5889
 6178TIP3   OH242728   4.770   0.756  11.161  0.3111 -0.1890 -0.1075
 6178TIP3    H142729   4.695   0.783  11.214  0.4898  0.0733  0.0110
 6178TIP3    H242730   4.748   0.785  11.072  1.4280  2.2899  0.3481
 6179TIP3   OH242731   5.024   5.118  11.960 -0.2698 -0.6008 -0.0345
 6179TIP3    H142732   5.099   5.064  11.937 -0.2542 -0.0168 -1.4487
 6179TIP3    H242733   4.991   5.081  12.042  1.4624 -0.9627  0.5346
 6180TIP3   OH242734   1.933   2.712   9.521  0.6749  0.5307 -0.1903
 6180TIP3    H142735   1.913   2.638   9.579 -2.1779  2.6627  1.7956
 6180TIP3    H242736   1.877   2.698   9.445  1.3421 -0.1535 -0.5633
 6181TIP3   OH242737   4.837   4.582  12.089 -0.3393 -0.5614 -0.4180
 6181TIP3    H142738   4.875   4.518  12.149  1.0486 -0.3376 -1.0236
 6181TIP3    H242739   4.811   4.655  12.144  2.8825  0.5864 -0.2426
 6182TIP3   OH242740   0.539   3.488   9.909  0.1684  0.0556  0.7095
 6182TIP3    H142741   0.526   3.504   9.816  1.3365 -0.0936  0.5131
 6182TIP3    H242742   0.630   3.511   9.926  0.2064 -0.6871  1.6412
 6183TIP3   OH242743   3.710   5.791  10.680 -0.4156 -0.3169 -0.0679
 6183TIP3    H142744   3.769   5.720  10.653  0.3728  0.4447 -0.4056
 6183TIP3    H242745   3.767   5.852  10.727 -1.1010  0.0638  0.2707
 6184TIP3   OH242746   4.165   3.219  10.270 -0.2849  0.3441  0.9639
 6184TIP3    H142747   4.194   3.201  10.359 -0.9976  0.3297  1.1911
 6184TIP3    H242748   4.078   3.180  10.264  0.0887 -0.3680  0.0085
 6185TIP3   OH242749   2.317   2.105   9.188 -0.2360 -0.2533  0.1487
 6185TIP3    H142750   2.344   2.171   9.252  0.0738  0.2548 -0.4904
 6185TIP3    H242751   2.225   2.126   9.170  0.5529  1.7510 -2.0549
 6186TIP3   OH242752   4.262   2.917  10.679  0.1041  0.1480 -0.9619
 6186TIP3    H142753   4.350   2.921  10.717  0.2837 -1.8589 -1.0581
 6186TIP3    H242754   4.257   2.829  10.641 -2.4190 -0.3258  0.2769
 6187TIP3   OH242755   5.876   0.459  11.679  0.1461  0.0035  0.4914
 6187TIP3    H142756   5.939   0.530  11.666  0.0215  0.0729  0.2661
 6187TIP3    H242757   5.913   0.407  11.751 -0.6362  1.2974  1.8802
 6188TIP3   OH242758   2.538   1.106  10.406 -0.3359 -0.6496  1.2149
 6188TIP3    H142759   2.586   1.030  10.373 -1.3280 -0.5118 -0.6942
 6188TIP3    H242760   2.601   1.178  10.402  0.4614 -1.2472  2.5590
 6189TIP3   OH242761   5.403   5.870  12.129 -0.6568 -0.2143  0.0959
 6189TIP3    H142762   5.316   5.909  12.116  0.4897  1.8614 -2.3512
 6189TIP3    H242763   5.417   5.817  12.050  0.4756 -0.0904  0.1937
 6190TIP3   OH242764   1.944   3.010  10.687  0.2198  0.1245 -0.2488
 6190TIP3    H142765   1.903   2.940  10.738 -0.0325  0.0253 -0.5834
 6190TIP3    H242766   1.875   3.074  10.674  0.4770  0.4889  0.1423
 6191TIP3   OH242767   3.928   0.157  11.693  0.2995 -0.3400  0.3170
 6191TIP3    H142768   3.854   0.196  11.739  0.6484 -0.4734  1.0172
 6191TIP3    H242769   3.894   0.075  11.656  0.2377 -0.6872  1.1257
 6192TIP3   OH242770   6.106   3.671  10.126  0.4075  0.2077 -0.6686
 6192TIP3    H142771   6.078   3.729  10.056  0.1212 -0.0551 -0.7753
 6192TIP3    H242772   6.024   3.633  10.160  0.6506 -0.9006 -1.2650
 6193TIP3   OH242773   4.513   6.236  10.062 -0.2584 -0.3151 -0.4708
 6193TIP3    H142774   4.534   6.304  10.126  3.1279 -0.3030 -1.4123
 6193TIP3    H242775   4.544   6.155  10.103 -2.2374 -1.0618 -0.3009
 6194TIP3   OH242776   3.226   0.388   9.590  0.5751  0.4488 -0.3127
 6194TIP3    H142777   3.140   0.398   9.629 -0.1066 -0.5525 -1.4904
 6194TIP3    H242778   3.269   0.320   9.641  0.1951  0.0776 -0.4854
 6195TIP3   OH242779   0.912   4.076  12.563  0.6153 -0.1363  0.3267
 6195TIP3    H142780   0.833   4.095  12.614  1.1203  0.5466  0.8721
 6195TIP3    H242781   0.984   4.111  12.615  1.1618  0.4672 -0.7861
 6196TIP3   OH242782   2.018   4.360  11.949  0.2595  0.5212  0.0650
 6196TIP3    H142783   2.094   4.351  11.892  0.3850 -0.4973  0.3651
 6196TIP3    H242784   2.040   4.431  12.009  0.9937  0.2043  0.1738
 6197TIP3   OH242785   6.493   3.040  11.866 -0.0137  0.2303 -0.0297
 6197TIP3    H142786   6.430   2.979  11.904  0.8871  0.3019  1.6970
 6197TIP3    H242787   6.575   2.991  11.862  0.6110  1.1346  0.9661
 6198TIP3   OH242788   3.174   2.562  12.310 -0.1115  0.1770  0.0605
 6198TIP3    H142789   3.123   2.587  12.387 -0.2081  0.5653 -0.1276
 6198TIP3    H242790   3.256   2.610  12.318  0.5774 -1.0613  0.7785
 6199TIP3   OH242791   4.764   5.065  11.746  0.3403 -0.4329 -0.0026
 6199TIP3    H142792   4.825   5.055  11.819  1.7972 -0.8890 -1.2437
 6199TIP3    H242793   4.772   5.156  11.719  0.4826 -0.4983 -0.1797
 6200TIP3   OH242794   5.625   3.156  12.297  0.5912 -0.0669 -0.3421
 6200TIP3    H142795   5.571   3.123  12.369  1.6752  0.3485  0.7058
 6200TIP3    H242796   5.585   3.239  12.273  0.9382  0.4173  0.6756
 6201TIP3   OH242797   4.798   0.944  11.477 -0.0538 -0.4341  0.4068
 6201TIP3    H142798   4.751   1.022  11.448 -0.0689  0.1873  2.0348
 6201TIP3    H242799   4.883   0.950  11.434 -1.0714 -1.1188 -1.8799
 6202TIP3   OH242800   1.841   3.349  12.393  0.1192  0.1490  0.2495
 6202TIP3    H142801   1.764   3.388  12.434  1.0833  1.0886  1.2206
 6202TIP3    H242802   1.916   3.391  12.436  1.1863 -0.8966 -0.5059
 6203TIP3   OH242803   6.498   2.053   9.989 -0.2985  0.3600  0.1213
 6203TIP3    H142804   6.470   2.013  10.072  1.0432 -0.7216  0.0920
 6203TIP3    H242805   6.564   1.992   9.955  0.0889  1.4413 -1.1147
 6204TIP3   OH242806   4.628   1.945  12.541 -0.3464  0.2805  0.4892
 6204TIP3    H142807   4.553   1.989  12.583  0.0019  0.8160  0.5541
 6204TIP3    H242808   4.681   1.915  12.614  0.1534  1.0267  0.4385
 6205TIP3   OH242809   6.356   3.867  12.750  0.2489 -0.5767 -0.3782
 6205TIP3    H142810   6.287   3.929  12.727  1.8309  1.2518 -0.3717
 6205TIP3    H242811   6.328   3.829  12.834 -0.8055  0.0001 -0.4554
 6206TIP3   OH242812   2.539   6.082  10.859  0.0601 -0.3109 -0.2084
 6206TIP3    H142813   2.460   6.116  10.815  0.2621  1.3013  0.5963
 6206TIP3    H242814   2.519   6.090  10.952  0.7634 -0.9201 -0.0071
 6207TIP3   OH242815   5.329   6.340  10.067  0.2324  0.4744  0.2352
 6207TIP3    H142816   5.361   6.417  10.021  0.8379 -0.7614 -1.5112
 6207TIP3    H242817   5.398   6.319  10.130  0.6628  0.5885 -0.1993
 6208TIP3   OH242818   0.306   4.224  10.142 -0.1965  0.0976 -0.0162
 6208TIP3    H142819   0.307   4.133  10.171 -1.4037 -0.0072 -0.2598
 6208TIP3    H242820   0.336   4.274  10.218 -3.1227 -0.1806  1.4541
 6209TIP3   OH242821   5.207   3.036   9.486 -0.3738  0.1521 -0.4998
 6209TIP3    H142822   5.188   2.953   9.529  0.3846  0.2862  0.1012
 6209TIP3    H242823   5.271   3.013   9.418  0.3435  0.3463  0.1031
 6210TIP3   OH242824   2.692   6.001  10.277  0.0765 -0.6165 -0.2468
 6210TIP3    H142825   2.779   6.036  10.262  0.9583 -1.4623  2.2691
 6210TIP3    H242826   2.691   5.979  10.371 -2.3532 -1.9353 -0.4872
 6211TIP3   OH242827   2.663   0.923  12.209 -0.0397 -0.1043 -0.6539
 6211TIP3    H142828   2.655   0.924  12.305  1.8907  1.5748 -0.4500
 6211TIP3    H242829   2.630   1.008  12.181 -2.1833 -1.1993 -1.7278
 6212TIP3   OH242830   4.884   4.422  11.197  0.1161 -0.0014  0.1790
 6212TIP3    H142831   4.837   4.341  11.178 -0.6822 -0.1859  2.5936
 6212TIP3    H242832   4.972   4.393  11.221 -0.2102 -0.2251  1.1872
 6213TIP3   OH242833   5.768   6.332  11.728 -0.8643 -0.1958 -0.7355
 6213TIP3    H142834   5.685   6.366  11.763 -0.0801  1.2664 -0.2026
 6213TIP3    H242835   5.742   6.273  11.658 -2.3620  0.2739 -0.6163
 6214TIP3   OH242836   2.361   4.230  11.017  0.3382  0.2385  0.5345
 6214TIP3    H142837   2.324   4.318  11.022  0.3125  0.1670  2.4287
 6214TIP3    H242838   2.455   4.244  11.030  0.4041  0.0267  0.2818
 6215TIP3   OH242839   0.684   0.732  11.462 -0.3131 -0.0292  0.1123
 6215TIP3    H142840   0.666   0.821  11.433 -0.2607 -0.0642 -0.0322
 6215TIP3    H242841   0.779   0.731  11.478  0.3414 -0.9393 -3.1008
 6216TIP3   OH242842   2.594   5.676  11.390  0.5168  0.2342 -0.3047
 6216TIP3    H142843   2.661   5.736  11.357 -0.2260  0.9096 -0.6094
 6216TIP3    H242844   2.643   5.600  11.421  1.5476  1.3103  0.7876
 6217TIP3   OH242845   5.612   4.012   9.745  0.5952  0.0480 -0.6549
 6217TIP3    H142846   5.692   4.018   9.798 -0.3021  0.4424  0.7219
 6217TIP3    H242847   5.582   4.103   9.736  0.2401 -0.1061 -1.0572
 6218TIP3   OH242848   1.185   3.158  11.063  0.1842 -0.2467  0.1606
 6218TIP3    H142849   1.157   3.104  10.989 -1.1046  0.2081  0.2938
 6218TIP3    H242850   1.196   3.096  11.135 -2.3996 -0.2691  0.6214
 6219TIP3   OH242851   6.442   4.991  11.103 -0.0440  0.8220  0.6957
 6219TIP3    H142852   6.468   4.990  11.011  1.1664 -0.7722  1.0256
 6219TIP3    H242853   6.433   5.084  11.124  0.9369  1.2508 -0.6770
 6220TIP3   OH242854   5.031   6.331  11.254  0.4608  0.2656 -0.6596
 6220TIP3    H142855   5.033   6.419  11.291 -0.4327 -0.7737  2.2081
 6220TIP3    H242856   5.112   6.291  11.285 -0.0899 -0.4939 -0.1452
 6221TIP3   OH242857   4.333   3.919  11.703 -0.2639  0.9469  0.6171
 6221TIP3    H142858   4.342   3.887  11.792 -1.2854  3.0813  1.5500
 6221TIP3    H242859   4.407   3.979  11.691 -0.5169  1.1999  0.2849
 6222TIP3   OH242860   2.800   0.312  10.303  0.0271 -0.4219 -0.1782
 6222TIP3    H142861   2.880   0.312  10.356 -0.0388  0.8782 -0.0347
 6222TIP3    H242862   2.789   0.221  10.275  1.6553 -0.5764 -0.3743
 6223TIP3   OH242863   4.087   6.021  10.874  0.4456  0.2288  0.9650
 6223TIP3    H142864   4.133   6.085  10.819 -1.3764  0.4816 -0.3778
 6223TIP3    H242865   4.096   6.056  10.963 -1.4567  3.1015  0.1806
 6224TIP3   OH242866   1.186   0.581  12.579 -0.5110 -0.1271  0.0206
 6224TIP3    H142867   1.221   0.493  12.597  0.9170  0.5063  0.5455
 6224TIP3    H242868   1.109   0.588  12.635 -0.8016 -1.1408 -0.2285
 6225TIP3   OH242869   4.017   1.118  10.255  0.0535 -0.4986 -0.0145
 6225TIP3    H142870   3.933   1.072  10.261  0.0647 -0.5038  0.0960
 6225TIP3    H242871   4.038   1.142  10.345  0.3551 -0.8310  0.0066
 6226TIP3   OH242872   1.129   6.028  11.404 -0.4621  0.0102 -0.4003
 6226TIP3    H142873   1.104   6.091  11.337 -0.2739 -0.1433 -0.6146
 6226TIP3    H242874   1.148   5.947  11.355 -2.1313 -0.6557 -0.0240
 6227TIP3   OH242875   0.170   1.318  11.681 -0.3147 -0.2863 -0.1549
 6227TIP3    H142876   0.212   1.289  11.762  1.0517  2.3347  0.1794
 6227TIP3    H242877   0.234   1.375  11.640 -2.4020  1.4476 -1.1726
 6228TIP3   OH242878   0.549   2.271  12.470  0.0592 -0.1171 -0.1500
 6228TIP3    H142879   0.594   2.289  12.553  0.3799 -0.5856 -0.2147
 6228TIP3    H242880   0.598   2.198  12.432  0.3831  0.5990 -1.1326
 6229TIP3   OH242881   3.064   5.046  12.446 -0.1251  0.1827  0.6307
 6229TIP3    H142882   3.037   5.027  12.536  1.0322 -1.0378  0.7435
 6229TIP3    H242883   2.994   5.010  12.392  0.0376 -0.7087  0.9919
 6230TIP3   OH242884   1.920   4.486  10.227 -0.1956  0.3329  0.1548
 6230TIP3    H142885   2.011   4.456  10.232 -0.3976 -0.0810  2.2735
 6230TIP3    H242886   1.875   4.419  10.176  0.0677 -1.2437  1.8797
 6231TIP3   OH242887   1.935   3.658   9.973  0.6669  0.5235 -0.2244
 6231TIP3    H142888   1.919   3.710  10.052 -0.6963  0.1802 -0.2562
 6231TIP3    H242889   1.915   3.716   9.900 -1.3043 -0.1166 -0.2567
 6232TIP3   OH242890   6.189   0.721  10.693  0.2734  0.0073  0.6179
 6232TIP3    H142891   6.262   0.779  10.671  0.1029 -0.1335 -0.3309
 6232TIP3    H242892   6.230   0.637  10.712  0.5258  0.4202  2.0389
 6233TIP3   OH242893   4.545   2.502  12.011  0.1122  0.0959  0.2972
 6233TIP3    H142894   4.468   2.556  12.029  0.4837  0.3915  1.0440
 6233TIP3    H242895   4.513   2.412  12.018  0.3069  0.1433  3.1013
 6234TIP3   OH242896   3.964   1.728  12.067 -0.8741 -0.5918  0.2972
 6234TIP3    H142897   4.016   1.790  12.016 -0.4862 -1.0948  0.0780
 6234TIP3    H242898   3.928   1.668  12.001 -0.2109 -1.3636  0.6200
 6235TIP3   OH242899   3.262   3.941   9.496  0.8822  0.4153  0.2624
 6235TIP3    H142900   3.305   3.887   9.430  0.3398 -1.9082  1.7017
 6235TIP3    H242901   3.184   3.975   9.452  2.3528  1.9596 -1.3397
 6236TIP3   OH242902   5.294   0.136   9.600  0.1024 -0.2697  0.2742
 6236TIP3    H142903   5.298   0.209   9.539  1.5367  0.1564  0.8284
 6236TIP3    H242904   5.205   0.138   9.634 -0.2752  0.3790 -0.7161
 6237TIP3   OH242905   1.839   1.500  10.924 -0.3749  0.2487 -0.1604
 6237TIP3    H142906   1.908   1.435  10.906  0.8823  0.7773  2.3824
 6237TIP3    H242907   1.764   1.468  10.874  0.6924 -2.2488 -0.3402
 6238TIP3   OH242908   2.193   2.157  10.309 -0.1825  0.7697 -0.7821
 6238TIP3    H142909   2.185   2.134  10.217 -0.9692 -0.6903 -0.3839
 6238TIP3    H242910   2.264   2.102  10.342 -1.2341 -0.2470 -0.1027
 6239TIP3   OH242911   4.984   5.955  11.804 -0.4737  0.1219 -1.0107
 6239TIP3    H142912   4.955   5.972  11.715 -2.3840  1.1812 -0.2212
 6239TIP3    H242913   4.908   5.974  11.859  0.4092 -1.2613  0.7976
 6240TIP3   OH242914   3.626   1.014   9.782  0.3264 -0.1025  0.1190
 6240TIP3    H142915   3.715   1.037   9.755  0.7249 -0.6661  0.9395
 6240TIP3    H242916   3.621   0.919   9.767  0.4218 -0.3612  1.6054
 6241TIP3   OH242917   4.183   3.482   9.653 -0.3360  0.0478 -0.0647
 6241TIP3    H142918   4.100   3.505   9.611  1.4063  2.2698 -2.6683
 6241TIP3    H242919   4.212   3.404   9.607 -0.5532 -0.2154  0.2392
 6242TIP3   OH242920   3.178   5.532  11.233  0.3254  0.3519  0.3475
 6242TIP3    H142921   3.164   5.472  11.160  1.0483 -0.6339  0.9899
 6242TIP3    H242922   3.273   5.548  11.232  0.2151  1.0456  0.5320
 6243TIP3   OH242923   3.193   4.302  12.221  0.2812  0.2149  0.1332
 6243TIP3    H142924   3.260   4.369  12.239 -1.5682  1.8192  1.6147
 6243TIP3    H242925   3.115   4.352  12.197 -0.7805 -1.5095 -0.1901
 6244TIP3   OH242926   6.237   1.489  11.648  0.6324 -0.2348  0.5147
 6244TIP3    H142927   6.164   1.532  11.603  1.2456 -0.0173 -0.2967
 6244TIP3    H242928   6.286   1.560  11.688  0.1746 -0.4157  1.4225
 6245TIP3   OH242929   5.099   0.660  12.458 -0.0011 -0.3401 -0.0505
 6245TIP3    H142930   5.097   0.652  12.553  2.7785 -1.3964  0.0046
 6245TIP3    H242931   5.173   0.606  12.431 -0.9822 -0.4176 -2.8734
 6246TIP3   OH242932   5.730   3.830  11.828 -0.2612 -0.0768  0.0498
 6246TIP3    H142933   5.821   3.859  11.833 -0.4926  1.0154 -1.5053
 6246TIP3    H242934   5.734   3.738  11.853  1.1798  0.0904  0.5781
 6247TIP3   OH242935   1.144   5.510  10.962  0.2377  0.1188  0.2210
 6247TIP3    H142936   1.077   5.527  11.027 -0.2299 -2.4865  0.5208
 6247TIP3    H242937   1.098   5.464  10.891  1.4779 -0.7494 -0.0571
 6248TIP3   OH242938   4.451   6.313   9.800  0.0120  0.3930 -0.4934
 6248TIP3    H142939   4.531   6.286   9.755 -0.3789  0.7948 -1.4421
 6248TIP3    H242940   4.470   6.298   9.893  0.2310 -2.0881 -0.8559
 6249TIP3   OH242941   6.163   5.904  10.041 -0.3291  0.3475 -0.4352
 6249TIP3    H142942   6.133   5.842   9.974  2.6493 -0.1636 -1.4368
 6249TIP3    H242943   6.196   5.848  10.112 -0.2141  0.8392 -0.0925
 6250TIP3   OH242944   3.468   0.702  11.397 -0.0664 -0.1274  0.2207
 6250TIP3    H142945   3.553   0.659  11.400  1.7961  3.2432  0.4841
 6250TIP3    H242946   3.469   0.762  11.472 -1.3458  2.1857 -1.4962
 6251TIP3   OH242947   3.847   6.561  11.781 -0.2794  0.1437  0.1084
 6251TIP3    H142948   3.816   6.470  11.780  0.6783 -0.2053  0.3820
 6251TIP3    H242949   3.927   6.559  11.727 -1.8696  1.4564 -2.4930
 6252TIP3   OH242950   1.525   4.820   9.946  0.3287  0.0035 -0.5255
 6252TIP3    H142951   1.541   4.733   9.983  0.1899  0.2014  0.0090
 6252TIP3    H242952   1.433   4.819   9.920  0.4350 -0.1465 -0.8983
 6253TIP3   OH242953   5.124   5.420  11.772 -0.3319 -0.3905  0.0333
 6253TIP3    H142954   5.062   5.443  11.841 -0.3000 -2.5414  0.8366
 6253TIP3    H242955   5.071   5.380  11.704 -0.0469 -0.5450 -0.1015
 6254TIP3   OH242956   1.219   0.358   9.707 -0.2208  0.3710  0.2786
 6254TIP3    H142957   1.302   0.406   9.710 -1.2460  2.4004 -1.0052
 6254TIP3    H242958   1.233   0.290   9.642  0.0889  1.5573 -0.9503
 6255TIP3   OH242959   6.434   2.205  12.012  0.1828 -0.0253  0.0840
 6255TIP3    H142960   6.419   2.117  12.048  1.9346  0.0116  1.0617
 6255TIP3    H242961   6.524   2.201  11.978 -0.3255  0.9011 -1.4284
 6256TIP3   OH242962   3.678   5.278  11.640  0.5046  0.0078 -0.0849
 6256TIP3    H142963   3.706   5.197  11.598 -0.5856 -0.1822 -0.4917
 6256TIP3    H242964   3.759   5.319  11.670  1.1096 -1.0017 -0.2862
 6257TIP3   OH242965   2.994   3.656  10.451  0.0244  0.0986 -0.3103
 6257TIP3    H142966   3.082   3.688  10.430  0.5674  0.0086  1.6460
 6257TIP3    H242967   3.007   3.567  10.483 -0.4345  0.8704  2.2317
 6258TIP3   OH242968   2.007   5.223  11.873 -0.7838 -0.2701 -0.1889
 6258TIP3    H142969   2.003   5.206  11.968  1.3093 -0.9823 -0.1623
 6258TIP3    H242970   1.945   5.294  11.858 -0.8481  0.1452  1.7904
 6259TIP3   OH242971   1.249   0.237   9.161 -0.4249  0.5024 -0.4350
 6259TIP3    H142972   1.335   0.195   9.153 -1.4218 -2.3311  2.1664
 6259TIP3    H242973   1.188   0.175   9.121 -1.5189  1.4483 -0.2760
 6260TIP3   OH242974   5.543   3.036   9.668 -0.0596  0.3632  0.4642
 6260TIP3    H142975   5.637   3.021   9.657  0.0098  1.1880 -0.1257
 6260TIP3    H242976   5.507   2.948   9.679  1.0922  0.1506  3.4265
 6261TIP3   OH242977   5.915   5.630  11.256  0.0709  0.1563 -0.2670
 6261TIP3    H142978   5.820   5.629  11.268 -0.1059 -1.7463 -1.5036
 6261TIP3    H242979   5.951   5.613  11.343 -0.8628 -2.7586 -0.3594
 6262TIP3   OH242980   2.010   2.632  11.346 -0.0014 -0.3985 -0.6051
 6262TIP3    H142981   2.015   2.580  11.266  0.5720 -0.4074 -0.5674
 6262TIP3    H242982   2.101   2.655  11.366 -0.0595 -0.9890  0.4297
 6263TIP3   OH242983   3.583   2.917  10.860 -0.4643  0.0222  0.1007
 6263TIP3    H142984   3.633   2.847  10.903 -0.1598 -0.3028 -0.7551
 6263TIP3    H242985   3.583   2.892  10.768 -1.7078  0.3279 -0.0010
 6264TIP3   OH242986   1.834   3.989  10.768 -0.5461  0.3875  0.1996
 6264TIP3    H142987   1.910   4.038  10.737 -1.0198  1.2462  0.3521
 6264TIP3    H242988   1.766   4.055  10.779 -0.4721  0.1493  2.9394
 6265TIP3   OH242989   6.392   1.157  11.153 -0.1919 -0.6122 -0.4819
 6265TIP3    H142990   6.467   1.107  11.186 -1.3744 -0.7106  2.3518
 6265TIP3    H242991   6.393   1.142  11.059  3.1754 -0.8120 -0.5536
 6266TIP3   OH242992   1.403   3.283  12.496  0.3277 -0.0491  0.1446
 6266TIP3    H142993   1.465   3.356  12.493 -1.4763  1.6118  0.6382
 6266TIP3    H242994   1.433   3.228  12.568 -0.0046  1.9592  1.9202
 6267TIP3   OH242995   6.644   3.369  12.389  0.1614 -0.1785 -0.1200
 6267TIP3    H142996   6.683   3.453  12.415 -0.1615  0.3176 -1.1608
 6267TIP3    H242997   6.710   3.329  12.332  1.3250 -1.7384  2.1487
 6268TIP3   OH242998   5.229   0.214  10.717 -0.4195  0.5822 -0.2029
 6268TIP3    H142999   5.236   0.133  10.667  0.0253 -1.0687  2.3043
 6268TIP3    H243000   5.318   0.248  10.719  0.0838 -0.6804  1.3796
 6269TIP3   OH243001   1.547   3.064  11.274  0.4638 -0.5939  0.3582
 6269TIP3    H143002   1.588   3.017  11.347  2.0939  0.2502  0.0460
 6269TIP3    H243003   1.453   3.058  11.291  0.7240 -1.9676  1.5377
 6270TIP3   OH243004   3.910   3.074   8.917 -0.3330  0.0510 -0.0225
 6270TIP3    H143005   3.855   3.108   8.846  0.6800 -1.5030 -1.6387
 6270TIP3    H243006   3.999   3.081   8.884  0.1922 -0.4628  1.2129
 6271TIP3   OH243007   6.721   1.995   9.366  0.0351 -0.1407  0.0025
 6271TIP3    H143008   6.665   2.072   9.358 -1.1971 -1.1668 -1.9406
 6271TIP3    H243009   6.803   2.029   9.403 -1.4962  1.5499  2.0737
 6272TIP3   OH243010   3.699   6.052  11.874 -0.7163 -0.1004 -0.5511
 6272TIP3    H143011   3.694   6.073  11.968 -1.1245 -2.3168 -0.0071
 6272TIP3    H243012   3.607   6.048  11.846 -0.5815  1.4143 -1.3022
 6273TIP3   OH243013   4.302   3.760  12.245 -0.1445 -0.5755  0.3480
 6273TIP3    H143014   4.306   3.699  12.171  2.4258 -1.9107  1.4306
 6273TIP3    H243015   4.213   3.793  12.244 -1.3267 -3.4070 -1.0971
 6274TIP3   OH243016   4.126   0.805  11.962 -0.2504 -0.0115 -0.5023
 6274TIP3    H143017   4.080   0.780  12.042  0.6751  0.1705  0.1067
 6274TIP3    H243018   4.215   0.771  11.974 -0.0534  0.1699 -1.3781
 6275TIP3   OH243019   6.287   2.748  11.587 -0.3552  0.1066  0.0649
 6275TIP3    H143020   6.277   2.781  11.677 -0.0751  1.1503 -0.2681
 6275TIP3    H243021   6.227   2.674  11.582  1.9919 -2.1246  2.0986
 6276TIP3   OH243022   2.694   4.711  12.058  0.4657 -0.4937  0.2665
 6276TIP3    H143023   2.610   4.686  12.019  0.5070  0.0312 -0.1725
 6276TIP3    H243024   2.755   4.644  12.026  0.6164  0.2506 -1.0750
 6277TIP3   OH243025   1.871   3.881  10.521  0.6388  0.2581 -0.4820
 6277TIP3    H143026   1.796   3.929  10.486 -0.6864 -1.4624 -0.1546
 6277TIP3    H243027   1.867   3.894  10.615  0.4617 -0.2217 -0.4209
 6278TIP3   OH243028   0.911   6.376  12.113  0.6614  0.1078  0.5538
 6278TIP3    H143029   0.959   6.331  12.043 -0.1082  0.6497 -0.3441
 6278TIP3    H243030   0.823   6.387  12.079 -0.5179 -1.9669  2.6739
 6279TIP3   OH243031   1.861   2.233  12.715  0.6564 -0.0449 -0.1488
 6279TIP3    H143032   1.921   2.266  12.782 -0.8172  1.4386  0.5359
 6279TIP3    H243033   1.818   2.158  12.756 -0.2065  0.8298  0.5969
 6280TIP3   OH243034   2.346   3.771  12.293  0.0206 -0.0828 -0.3557
 6280TIP3    H143035   2.429   3.801  12.332  0.2997 -0.8035 -0.3769
 6280TIP3    H243036   2.323   3.693  12.344 -0.1735 -0.4134 -0.9492
 6281TIP3   OH243037   3.003   1.276  10.486  0.0647  0.1244  0.2781
 6281TIP3    H143038   2.923   1.245  10.528 -0.4294  1.5633  0.4422
 6281TIP3    H243039   3.005   1.370  10.504 -0.4926  1.0041 -3.3146
 6282TIP3   OH243040   5.267   3.050   9.791 -0.0308 -0.3919 -0.3499
 6282TIP3    H143041   5.225   3.131   9.762  0.4287  0.3522  0.9442
 6282TIP3    H243042   5.353   3.051   9.749  0.4818  0.4853  0.6457
 6283TIP3   OH243043   5.189   0.881  10.469  0.4054  0.2896  0.1029
 6283TIP3    H143044   5.131   0.946  10.431 -0.1567 -1.3172 -1.9643
 6283TIP3    H243045   5.150   0.860  10.553 -1.0140  0.5180 -0.4784
 6284TIP3   OH243046   3.162   5.805   9.885  0.1117 -0.0765  0.2202
 6284TIP3    H143047   3.179   5.849   9.968  1.0973 -1.2701  0.6904
 6284TIP3    H243048   3.249   5.791   9.847 -0.1346 -1.7549  0.2009
 6285TIP3   OH243049   3.898   0.492  11.045 -0.3625 -0.5222 -0.4031
 6285TIP3    H143050   3.883   0.585  11.030  0.1831 -0.1548  1.0971
 6285TIP3    H243051   3.993   0.481  11.037 -0.4231 -0.9458 -0.5515
 6286TIP3   OH243052   1.646   4.790  11.696  0.8958  0.1563  0.6541
 6286TIP3    H143053   1.658   4.849  11.621  0.5864  0.8468  1.1353
 6286TIP3    H243054   1.727   4.797  11.746  1.3167 -0.7105  0.1222
 6287TIP3   OH243055   6.117   6.030   9.730 -0.1038 -0.6938 -0.1798
 6287TIP3    H143056   6.148   6.091   9.663 -0.3555  0.9796  1.1521
 6287TIP3    H243057   6.195   6.008   9.781 -0.1719 -0.7505 -0.0997
 6288TIP3   OH243058   0.898   0.972   9.918  0.2195  0.9818  0.3597
 6288TIP3    H143059   0.929   1.052   9.875 -1.3494  0.4093 -2.0359
 6288TIP3    H243060   0.831   0.938   9.859  2.1729 -3.1823  0.1977
 6289TIP3   OH243061   3.075   0.896  10.482 -0.3675  0.0657  0.1001
 6289TIP3    H143062   3.072   0.801  10.490  0.2336  0.1134  1.0718
 6289TIP3    H243063   3.079   0.928  10.572  0.8403  0.9469 -0.2314
 6290TIP3   OH243064   5.099   0.668   9.935  0.3958 -0.1361  0.0808
 6290TIP3    H143065   5.073   0.581   9.968 -0.2203 -0.2285 -0.6312
 6290TIP3    H243066   5.183   0.685   9.977 -0.0905 -0.5076  1.2486
 6291TIP3   OH243067   2.027   3.969  10.174 -0.7584  0.3097  0.1693
 6291TIP3    H143068   1.957   3.904  10.177 -0.8100  0.3960  0.8596
 6291TIP3    H243069   2.061   3.973  10.263 -0.6572  1.1263  0.0993
 6292TIP3   OH243070   0.906   3.447  11.492  0.2039  0.1332 -0.5847
 6292TIP3    H143071   0.871   3.420  11.578  0.5745  0.0696 -0.4526
 6292TIP3    H243072   0.868   3.533  11.477 -0.0323  0.0528 -0.4528
 6293TIP3   OH243073   3.797   1.852   9.660 -0.3048  0.1382  0.2146
 6293TIP3    H143074   3.761   1.874   9.747  1.2752  2.2381  0.3908
 6293TIP3    H243075   3.847   1.929   9.634 -1.1926 -0.2068 -2.8654
 6294TIP3   OH243076   4.387   3.376  12.539 -0.1493 -0.1173 -0.5351
 6294TIP3    H143077   4.473   3.353  12.503  0.2718  0.4082  0.1153
 6294TIP3    H243078   4.350   3.293  12.568  0.8177 -0.1583  0.6301
 6295TIP3   OH243079   6.419   4.521  12.653  0.1683 -0.5303 -0.4740
 6295TIP3    H143080   6.361   4.536  12.727  0.9845  1.1909 -0.1360
 6295TIP3    H243081   6.476   4.450  12.682 -0.4323 -0.8314 -0.0103
 6296TIP3   OH243082   1.529   5.117   9.120  0.2062 -0.3155 -0.0202
 6296TIP3    H143083   1.603   5.165   9.083  0.1312  1.3722  1.8488
 6296TIP3    H243084   1.458   5.181   9.122 -1.0298 -1.6212 -0.8589
 6297TIP3   OH243085   3.831   6.517  11.257  0.0439  0.0290 -0.0437
 6297TIP3    H143086   3.841   6.532  11.163 -0.0975  1.2923  0.1317
 6297TIP3    H243087   3.777   6.437  11.262  0.5774 -0.4176 -1.0135
 6298TIP3   OH243088   4.109   3.492   9.905 -0.1748 -0.0904  0.1759
 6298TIP3    H143089   4.092   3.586   9.909 -3.6854 -0.6045  0.2162
 6298TIP3    H243090   4.131   3.476   9.813 -3.7666  0.3422 -0.9236
 6299TIP3   OH243091   4.644   2.142  10.786 -0.3847 -0.7477  0.3092
 6299TIP3    H143092   4.724   2.092  10.768 -0.0195  0.0448 -0.3509
 6299TIP3    H243093   4.672   2.212  10.846 -0.4079 -0.0473 -0.4658
 6300TIP3   OH243094   6.291   4.066  11.305  0.0994  0.0674 -1.1227
 6300TIP3    H143095   6.260   4.155  11.321  0.8699  0.3768 -1.3391
 6300TIP3    H243096   6.382   4.076  11.280  1.4782 -1.0237  2.7285
 6301TIP3   OH243097   6.627   1.612  10.333  0.2510  0.4693 -0.6158
 6301TIP3    H143098   6.670   1.563  10.404 -0.6744 -0.8814 -0.9445
 6301TIP3    H243099   6.695   1.671  10.301  1.5245 -0.7730 -0.3361
 6302TIP3   OH243100   0.947   6.524  10.831  0.3608 -0.5727 -0.4113
 6302TIP3    H143101   0.870   6.557  10.784  0.2894  0.3624  0.3219
 6302TIP3    H243102   0.919   6.441  10.867 -1.0388  0.6671  1.5699
 6303TIP3   OH243103   5.787   5.999  11.835  0.2399  0.1284 -0.0451
 6303TIP3    H143104   5.804   6.079  11.886 -0.1408  1.6174 -2.1212
 6303TIP3    H243105   5.697   6.010  11.805  0.6169 -0.4636 -1.4137
 6304TIP3   OH243106   3.992   4.235  11.770  0.7981 -0.0289 -0.5915
 6304TIP3    H143107   4.007   4.150  11.812 -1.2735 -0.6001 -0.8889
 6304TIP3    H243108   4.032   4.226  11.684  1.0968 -0.5051 -0.4084
 6305TIP3   OH243109   6.475   5.469  11.827 -0.0408  0.2778  0.9457
 6305TIP3    H143110   6.466   5.374  11.837  0.4916  0.3393  2.2669
 6305TIP3    H243111   6.435   5.488  11.743  2.1942 -1.4626 -0.6309
 6306TIP3   OH243112   4.104   3.362   9.313 -1.0314 -0.5572 -0.0974
 6306TIP3    H143113   4.166   3.349   9.241  1.5258  3.6321  1.0188
 6306TIP3    H243114   4.150   3.333   9.391 -1.3829  0.4030  0.4895
 6307TIP3   OH243115   3.597   3.709  12.641  0.4928  0.3252  0.3483
 6307TIP3    H143116   3.622   3.700  12.733  2.5883  0.4793 -0.1357
 6307TIP3    H243117   3.558   3.625  12.618 -1.1323  0.6663  1.6279
 6308TIP3   OH243118   1.615   5.514  10.102  0.1344 -0.3144 -0.0293
 6308TIP3    H143119   1.519   5.519  10.106  0.0372 -0.8153 -1.3667
 6308TIP3    H243120   1.638   5.448  10.167 -0.3001  0.7500  1.2628
 6309TIP3   OH243121   5.364   1.198   9.460 -0.2743 -0.0778 -0.1772
 6309TIP3    H143122   5.289   1.257   9.474  0.4322  1.1287 -1.2543
 6309TIP3    H243123   5.341   1.119   9.509 -1.4696  0.9063  0.9358
 6310TIP3   OH243124   0.031   3.265  11.855  0.0376 -0.6311  0.3338
 6310TIP3    H143125   0.053   3.245  11.764  1.1314 -1.1478  0.6954
 6310TIP3    H243126  -0.052   3.220  11.871  1.0901 -2.6894  0.3304
 6311TIP3   OH243127   6.423   3.089  12.785 -0.0014  0.1094  0.1512
 6311TIP3    H143128   6.490   3.051  12.841  0.4863  0.3611 -0.2530
 6311TIP3    H243129   6.346   3.033  12.797  0.9496 -1.5209 -1.0748
 6312TIP3   OH243130   2.215   4.341   9.499  0.0088  0.4303 -0.0378
 6312TIP3    H143131   2.276   4.368   9.430  1.5956  1.4615  1.6741
 6312TIP3    H243132   2.249   4.257   9.530 -1.2650 -0.5144 -1.1179
 6313TIP3   OH243133   4.693   5.137   9.383  0.1898 -0.0821 -0.3325
 6313TIP3    H143134   4.705   5.208   9.446  0.2729  0.7281 -1.2272
 6313TIP3    H243135   4.640   5.072   9.429  0.7172  0.2338  0.7478
 6314TIP3   OH243136   1.806   3.984   9.082  0.2419  0.2577 -0.3886
 6314TIP3    H143137   1.830   3.903   9.127  0.3550  1.4293  1.7769
 6314TIP3    H243138   1.712   3.994   9.099  0.2971  0.7497 -0.3650
 6315TIP3   OH243139   2.319   2.696  10.948 -0.0591  0.1474  0.0718
 6315TIP3    H143140   2.374   2.692  11.026  0.0166 -0.9201 -0.0136
 6315TIP3    H243141   2.289   2.787  10.944 -0.2021  0.1891  1.4435
 6316TIP3   OH243142   0.132   2.316   9.981 -0.2004  0.0532 -0.3303
 6316TIP3    H143143   0.038   2.301   9.970 -0.4284 -0.1594  1.5475
 6316TIP3    H243144   0.140   2.411   9.990 -0.4414 -0.0334  0.9550
 6317TIP3   OH243145   6.246   6.299  11.080  0.1702  0.7230  0.0394
 6317TIP3    H143146   6.282   6.246  11.152  0.9961  0.7096 -0.3670
 6317TIP3    H243147   6.153   6.278  11.080  0.4820 -0.8333 -0.1725
 6318TIP3   OH243148   2.111   1.552  11.161  0.3090  0.1490 -0.4800
 6318TIP3    H143149   2.181   1.555  11.227  1.6507  1.8391 -1.8838
 6318TIP3    H243150   2.031   1.567  11.211  1.1685  0.3555  0.8993
 6319TIP3   OH243151   5.598   1.329   9.507 -0.4846 -0.5068 -0.2640
 6319TIP3    H143152   5.671   1.282   9.467 -0.4176  1.0879 -2.1138
 6319TIP3    H243153   5.520   1.282   9.477 -0.3263 -0.9067 -0.0619
 6320TIP3   OH243154   3.224   4.787  11.333  0.0746 -0.7557  0.1342
 6320TIP3    H143155   3.262   4.700  11.320  0.3049 -0.7244  0.5889
 6320TIP3    H243156   3.139   4.769  11.375 -0.1346 -0.7911 -0.3002
 6321TIP3   OH243157   6.297   3.417   8.940  0.5652  0.6743 -0.8946
 6321TIP3    H143158   6.354   3.476   8.891  1.8896  0.5108  0.3552
 6321TIP3    H243159   6.356   3.375   9.003 -1.1629  1.4105  1.3339
 6322TIP3   OH243160   5.359   4.787   9.658 -0.1175 -0.1181  0.4010
 6322TIP3    H143161   5.328   4.877   9.646  0.9206  0.1313 -0.4929
 6322TIP3    H243162   5.350   4.772   9.752 -0.1909  0.9561  0.5841
 6323TIP3   OH243163   6.726   5.002  10.093 -0.2933  0.5814 -0.0735
 6323TIP3    H143164   6.655   4.994  10.157  1.9497 -0.0507  2.5525
 6323TIP3    H243165   6.769   4.916  10.094  1.7160  1.5300  0.0366
 6324TIP3   OH243166   2.870   4.783  10.054  0.2169  0.3719 -0.2264
 6324TIP3    H143167   2.817   4.739   9.988 -0.0121  0.0576  0.1634
 6324TIP3    H243168   2.960   4.759  10.032  0.0454 -0.8667  0.3965
 6325TIP3   OH243169   6.124   2.775  10.406  0.2099 -0.0129 -0.1286
 6325TIP3    H143170   6.099   2.689  10.437  0.4594  0.2981  0.9967
 6325TIP3    H243171   6.204   2.760  10.354  0.2367 -0.4570  0.0428
 6326TIP3   OH243172   0.753   5.246  11.621  0.0618 -0.1862  0.0798
 6326TIP3    H143173   0.674   5.282  11.661 -0.3911  1.4548 -2.1295
 6326TIP3    H243174   0.720   5.191  11.550  0.8480  1.2386 -1.4515
 6327TIP3   OH243175   2.081   0.156  12.478  0.0972 -0.3288 -0.0987
 6327TIP3    H143176   2.162   0.171  12.429  0.2824 -0.4828  0.1544
 6327TIP3    H243177   2.111   0.136  12.567 -0.1741 -1.2622 -0.2080
 6328TIP3   OH243178   5.474   0.031  10.771 -0.0499 -0.4574  0.4060
 6328TIP3    H143179   5.570   0.024  10.767 -0.0410 -0.3462  0.4337
 6328TIP3    H243180   5.455   0.051  10.863 -0.0358  0.5185  0.2079
 6329TIP3   OH243181   3.825   5.088   9.388  0.1270 -0.4802  0.5106
 6329TIP3    H143182   3.782   5.146   9.325  1.1229  0.9848  1.1217
 6329TIP3    H243183   3.753   5.054   9.442 -0.5009  0.1540  0.1015
 6330TIP3   OH243184   1.356   3.231   9.322  0.1305  0.6194 -0.0610
 6330TIP3    H143185   1.270   3.197   9.349 -0.7648  1.8426 -1.2084
 6330TIP3    H243186   1.392   3.270   9.401 -0.7846  0.8836  0.2396
 6331TIP3   OH243187   6.502   5.018  12.473  0.3157  0.2656 -0.8832
 6331TIP3    H143188   6.525   4.926  12.487  0.0451  0.2365 -0.6452
 6331TIP3    H243189   6.489   5.053  12.561 -0.9830  0.1786 -1.0198
 6332TIP3   OH243190   0.475   5.215  11.691  0.4338 -0.1966  0.1053
 6332TIP3    H143191   0.427   5.297  11.690  2.9277  1.4916  2.9815
 6332TIP3    H243192   0.412   5.151  11.725 -0.5136  1.3755  1.4405
 6333TIP3   OH243193   0.640   5.323  10.426  0.0609 -0.4120  0.0235
 6333TIP3    H143194   0.575   5.392  10.412  1.6232  1.0458 -0.3219
 6333TIP3    H243195   0.638   5.308  10.520 -1.0259 -0.6683 -0.0207
 6334TIP3   OH243196   0.033   3.664  12.235  0.4155 -0.0473 -0.5974
 6334TIP3    H143197   0.048   3.575  12.204  2.5420 -0.1193  0.4345
 6334TIP3    H243198   0.049   3.660  12.329  0.9966  1.4836 -0.5938
 6335TIP3   OH243199   2.423   0.639   9.746 -0.1897 -0.0283  0.3950
 6335TIP3    H143200   2.460   0.693   9.815  0.0773 -1.6032  1.5404
 6335TIP3    H243201   2.342   0.683   9.721 -0.1565  0.7099  1.5300
 6336TIP3   OH243202   1.786   5.479  12.868 -0.3426  0.1011  0.3684
 6336TIP3    H143203   1.707   5.483  12.814 -0.2169 -1.2149  0.0423
 6336TIP3    H243204   1.822   5.392  12.851  1.8334  1.0674 -0.3979
 6337TIP3   OH243205   4.383   3.570  12.755  0.2504  0.2484  0.5854
 6337TIP3    H143206   4.393   3.492  12.700 -2.7129 -0.1076  0.3575
 6337TIP3    H243207   4.421   3.545  12.839  2.9538  0.0545 -0.5790
 6338TIP3   OH243208   2.137   2.789  10.299  0.5684 -0.1206  0.3183
 6338TIP3    H143209   2.202   2.778  10.367  0.5441  1.1309  0.5684
 6338TIP3    H243210   2.055   2.758  10.338  0.9109 -1.2745  0.1539
 6339TIP3   OH243211   2.875   5.903   9.222 -0.1099 -0.3875  0.0932
 6339TIP3    H143212   2.815   5.831   9.203 -0.3379  0.5280 -3.1358
 6339TIP3    H243213   2.960   5.874   9.190 -0.1738  0.6656 -1.1094
 6340TIP3   OH243214   4.930   2.862   9.727  0.6318  0.1310  0.0842
 6340TIP3    H143215   4.950   2.883   9.818 -2.1618  0.1652  0.7719
 6340TIP3    H243216   4.916   2.947   9.685 -2.1053  0.0607  0.7068
 6341TIP3   OH243217   5.012   6.453  10.717  0.2081 -0.3030 -0.1921
 6341TIP3    H143218   5.076   6.467  10.648  1.4524 -1.2558  0.7089
 6341TIP3    H243219   4.942   6.515  10.699  2.3379  2.2874 -0.0647
 6342TIP3   OH243220   2.237   3.751  11.103 -0.5498  0.3748 -0.4076
 6342TIP3    H143221   2.179   3.681  11.133 -2.8895  1.5164 -1.9909
 6342TIP3    H243222   2.200   3.830  11.141 -0.0762  1.1588 -1.5535
 6343TIP3   OH243223   3.471   5.203  11.884  0.8876  0.0039  0.4119
 6343TIP3    H143224   3.492   5.181  11.975 -1.1735 -1.2698  0.6464
 6343TIP3    H243225   3.409   5.275  11.890  0.2155 -0.5343  0.0707
 6344TIP3   OH243226   6.641   2.726   9.942  0.4880 -0.5454  0.1184
 6344TIP3    H143227   6.552   2.700   9.964  0.1834  1.1085  0.9445
 6344TIP3    H243228   6.631   2.810   9.897  1.5930 -0.7123 -0.4835
 6345TIP3   OH243229   0.704   6.688   9.148  0.4851 -0.6163 -0.3778
 6345TIP3    H143230   0.670   6.737   9.224 -0.4063 -0.5417 -0.8164
 6345TIP3    H243231   0.796   6.713   9.143  0.7354 -1.1424  1.0926
 6346TIP3   OH243232   0.651   4.349  10.182 -0.4356 -0.2080  0.1322
 6346TIP3    H143233   0.703   4.269  10.190 -0.0491  0.2003  2.2073
 6346TIP3    H243234   0.690   4.410  10.244 -0.1338  1.9774 -2.0323
 6347TIP3   OH243235   5.876   3.642  11.076 -0.6985 -0.1742 -0.1168
 6347TIP3    H143236   5.839   3.694  11.006 -0.6130  1.2776  0.8680
 6347TIP3    H243237   5.933   3.703  11.124  0.6754 -1.5916  0.1272
 6348TIP3   OH243238   3.669   0.354  12.546 -0.4164 -1.0101 -0.4491
 6348TIP3    H143239   3.693   0.262  12.561  0.7136 -0.5184  1.0987
 6348TIP3    H243240   3.721   0.402  12.611 -2.0632  0.5944 -0.2609
 6349TIP3   OH243241   3.367   1.402  11.661 -0.3856  0.4883 -0.9940
 6349TIP3    H143242   3.301   1.465  11.689  0.3456  1.2934 -1.0352
 6349TIP3    H243243   3.326   1.353  11.590 -1.5239 -0.1616  0.0829
 6350TIP3   OH243244   2.488   5.710   9.570 -0.3491  0.1526 -0.3092
 6350TIP3    H143245   2.402   5.722   9.610 -0.3423 -0.7003 -0.0167
 6350TIP3    H243246   2.550   5.718   9.643 -0.2539 -0.2493 -0.3451
 6351TIP3   OH243247   0.436   2.710  12.072 -0.2130 -0.0992  0.6478
 6351TIP3    H143248   0.382   2.634  12.050  0.2439 -0.1998 -0.2201
 6351TIP3    H243249   0.509   2.705  12.010  0.2173  0.6321  1.0806
 6352TIP3   OH243250   4.794   6.070  10.241 -0.4729 -0.0589 -0.2660
 6352TIP3    H143251   4.784   6.150  10.294 -1.7803  0.1923 -0.8521
 6352TIP3    H243252   4.872   6.028  10.277 -0.1501  1.1294  0.5162
 6353TIP3   OH243253   2.943   5.454  10.574  0.1991  0.1290 -0.2037
 6353TIP3    H143254   2.981   5.366  10.567 -0.4659 -0.2226  0.4649
 6353TIP3    H243255   2.982   5.503  10.502  1.2192 -0.4790 -0.0874
 6354TIP3   OH243256   2.702   4.863  10.827  0.6883 -0.0234  0.3829
 6354TIP3    H143257   2.650   4.808  10.768  0.3035  0.7960 -0.0616
 6354TIP3    H243258   2.775   4.807  10.854  2.2734  0.2585 -2.7839
 6355TIP3   OH243259   1.375   2.855   9.959 -1.0583  0.1257  0.1370
 6355TIP3    H143260   1.370   2.894  10.046 -0.8836  1.0689 -0.2590
 6355TIP3    H243261   1.353   2.763   9.972  0.0725 -0.0022  1.3412
 6356TIP3   OH243262   2.115   5.905  11.605 -0.0629 -0.1938  0.2413
 6356TIP3    H143263   2.135   5.836  11.543 -0.9652 -0.8666  0.6785
 6356TIP3    H243264   2.095   5.981  11.551  2.2365  0.1485 -0.2328
 6357TIP3   OH243265   2.173   5.331   9.535 -0.1907  0.1153  0.1680
 6357TIP3    H143266   2.176   5.236   9.542 -0.4218  0.0762 -0.2009
 6357TIP3    H243267   2.116   5.358   9.607  2.4978  0.2657  2.3743
 6358TIP3   OH243268   3.901   1.835  12.643  0.3612  0.7497  0.1733
 6358TIP3    H143269   3.931   1.895  12.575  3.3420 -0.0861  0.6402
 6358TIP3    H243270   3.893   1.751  12.599  2.5512  0.1488  0.8348
 6359TIP3   OH243271   0.666   6.440  12.450  0.6325 -0.0007  0.0745
 6359TIP3    H143272   0.608   6.461  12.523  0.6254  0.1177  0.0358
 6359TIP3    H243273   0.681   6.346  12.457  0.0872 -0.1142 -0.1666
 6360TIP3   OH243274   0.399   3.893   9.245  0.6538  0.3948 -0.6374
 6360TIP3    H143275   0.384   3.960   9.178 -0.3689  0.8169 -0.0141
 6360TIP3    H243276   0.339   3.917   9.316  1.2594 -0.4054  0.1636
 6361TIP3   OH243277   4.882   1.019  12.414  0.6444 -0.6459 -0.2266
 6361TIP3    H143278   4.793   1.007  12.380  0.1514 -0.6109  0.9928
 6361TIP3    H243279   4.896   1.114  12.412  1.5767 -0.7702 -2.5959
 6362TIP3   OH243280   3.424   5.261  12.439  0.1738 -0.7544  0.5677
 6362TIP3    H143281   3.465   5.238  12.522  1.4557  3.1210  1.1894
 6362TIP3    H243282   3.497   5.269  12.377 -0.1418  1.1482  0.3737
 6363TIP3   OH243283   1.515   2.041   9.686  0.3756  0.6555  0.5208
 6363TIP3    H143284   1.565   2.114   9.649  1.0784 -0.4773 -0.8916
 6363TIP3    H243285   1.488   2.072   9.772  2.7476  1.6889  0.9908
 6364TIP3   OH243286   2.031   1.235  12.393 -0.2940 -0.0429  0.4932
 6364TIP3    H143287   1.970   1.177  12.439 -0.8747  0.6053  0.5775
 6364TIP3    H243288   2.013   1.322  12.430 -0.6526  0.4756 -0.8147
 6365TIP3   OH243289   4.174   0.398  11.006  0.1518 -0.4840 -0.2443
 6365TIP3    H143290   4.177   0.343  10.928  1.1062 -1.5883  0.5446
 6365TIP3    H243291   4.203   0.341  11.077  1.4873  1.1134  0.5623
 6366TIP3   OH243292   5.031   0.830  12.236 -0.3865 -0.1630 -0.1706
 6366TIP3    H143293   4.984   0.887  12.298  1.0480 -0.2391  1.0291
 6366TIP3    H243294   5.094   0.782  12.290  0.1365 -1.0773 -1.5365
 6367TIP3   OH243295   1.912   5.158   9.945  0.0193 -0.3816 -0.2132
 6367TIP3    H143296   1.851   5.231   9.935  0.0464 -0.2247  0.7300
 6367TIP3    H243297   1.861   5.081   9.919 -0.3135 -0.1476 -0.2637
 6368TIP3   OH243298   2.012   5.087  10.368  0.0153  0.3669  0.0136
 6368TIP3    H143299   2.108   5.094  10.363  0.0484 -0.3663 -0.4960
 6368TIP3    H243300   1.994   4.995  10.349 -0.7885  0.4750  0.2296
 6369TIP3   OH243301   5.935   2.945  10.152  0.2884  0.1577  0.0782
 6369TIP3    H143302   5.991   2.871  10.127  0.1584 -0.3383  1.1741
 6369TIP3    H243303   5.918   2.992  10.070  2.0479  0.1358 -0.3418
 6370TIP3   OH243304   4.960   3.734  10.618  0.1707 -0.0297  0.1496
 6370TIP3    H143305   4.881   3.706  10.573 -0.0808 -0.8332  1.0620
 6370TIP3    H243306   4.994   3.655  10.659  1.8860  0.1359 -0.8667
 6371TIP3   OH243307   2.083   0.183  11.318  1.2504  0.0994  0.0136
 6371TIP3    H143308   2.117   0.227  11.240  1.7413 -0.5851 -0.1684
 6371TIP3    H243309   2.157   0.182  11.379  1.5090 -1.1710 -0.2848
 6372TIP3   OH243310   0.424   6.082  10.932  0.0722  0.1018 -0.0348
 6372TIP3    H143311   0.341   6.044  10.905 -0.7050  0.9087  1.0982
 6372TIP3    H243312   0.402   6.172  10.957  0.9673 -0.1139  1.7205
 6373TIP3   OH243313   5.495   2.706  10.278 -0.4345  0.4219 -0.3085
 6373TIP3    H143314   5.499   2.773  10.210 -1.3648 -0.1917 -0.9823
 6373TIP3    H243315   5.561   2.733  10.342  0.6584  0.8413 -1.5865
 6374TIP3   OH243316   3.947   5.220  11.257  0.2677  0.5057  0.1883
 6374TIP3    H143317   3.854   5.234  11.274  0.2069  0.9502 -0.5047
 6374TIP3    H243318   3.986   5.212  11.345 -0.4391  0.1531  0.4796
 6375TIP3   OH243319   6.209   6.177  10.802 -0.6460  0.3634  0.0234
 6375TIP3    H143320   6.258   6.218  10.873  0.6001 -0.2723 -0.4470
 6375TIP3    H243321   6.217   6.083  10.818  0.4409  0.1744 -1.4503
 6376TIP3   OH243322   6.646   0.597  10.368 -0.2206 -0.2622  0.3988
 6376TIP3    H143323   6.642   0.653  10.290 -0.2725  2.0624  1.9911
 6376TIP3    H243324   6.565   0.615  10.415 -0.0818 -1.4469  1.1316
 6377TIP3   OH243325   1.718   5.364  12.122  0.0210  0.7470  0.0193
 6377TIP3    H143326   1.672   5.314  12.190  0.5458  0.4790  0.1847
 6377TIP3    H243327   1.757   5.438  12.169  0.4282  0.5327  0.0259
 6378TIP3   OH243328   1.255   1.200  10.112  0.4231 -0.3611 -0.4118
 6378TIP3    H143329   1.200   1.214  10.189 -0.4694  1.3858 -1.3115
 6378TIP3    H243330   1.258   1.105  10.101 -1.8420 -0.5379  0.0898
 6379TIP3   OH243331   0.265   1.262   9.340 -0.1616  0.0869 -0.1509
 6379TIP3    H143332   0.311   1.289   9.261 -0.6569 -0.6427 -0.6922
 6379TIP3    H243333   0.215   1.339   9.367 -0.4784  0.1437 -0.8926
 6380TIP3   OH243334   6.292   4.879  10.577 -0.1040 -0.1017  0.1364
 6380TIP3    H143335   6.246   4.954  10.540 -0.6814 -0.0002  1.0137
 6380TIP3    H243336   6.384   4.903  10.573 -0.3346  1.1172  1.3280
 6381TIP3   OH243337   4.447   3.549   9.558  0.3695 -0.4847  0.6317
 6381TIP3    H143338   4.456   3.644   9.548  0.9456 -0.5721  0.2496
 6381TIP3    H243339   4.361   3.537   9.599  0.3474  0.2068  0.8032
 6382TIP3   OH243340   4.379   0.880   9.498  0.3200  0.2390 -0.2005
 6382TIP3    H143341   4.340   0.800   9.463  0.2423  0.6665 -1.1167
 6382TIP3    H243342   4.473   0.870   9.482  0.2900  0.4120 -0.4910
 6383TIP3   OH243343   4.254   4.670   9.749 -0.0259  0.3289  0.9046
 6383TIP3    H143344   4.349   4.668   9.745 -0.0077 -1.5960  1.4088
 6383TIP3    H243345   4.234   4.691   9.840 -0.1451  2.3725  0.4639
 6384TIP3   OH243346   0.659   4.886  10.459 -0.3321 -0.1360 -0.1836
 6384TIP3    H143347   0.678   4.939  10.536  0.7633 -0.9935  0.1614
 6384TIP3    H243348   0.661   4.796  10.491 -1.5361 -0.4286 -0.8847
 6385TIP3   OH243349   5.733   6.239  10.610 -0.3118 -0.4246  0.4231
 6385TIP3    H143350   5.777   6.188  10.678  0.6558  1.1987  1.0728
 6385TIP3    H243351   5.774   6.210  10.528 -0.3914 -1.2923  0.6855
 6386TIP3   OH243352   3.883   1.570  10.285 -0.0090  0.4695  0.2664
 6386TIP3    H143353   3.924   1.638  10.231 -1.9610  2.6300  1.3485
 6386TIP3    H243354   3.847   1.617  10.360 -1.3094 -1.8194  1.1706
 6387TIP3   OH243355   5.029   6.054   9.894 -0.1288  0.4243 -0.0814
 6387TIP3    H143356   5.123   6.059   9.910 -0.1572  0.1120  0.1902
 6387TIP3    H243357   5.020   6.064   9.799  0.4717 -3.1481 -0.6454
 6388TIP3   OH243358   1.130   3.050  10.421 -0.1285  0.5062 -0.2782
 6388TIP3    H143359   1.126   3.146  10.412 -0.7940  0.6400  1.1224
 6388TIP3    H243360   1.181   3.021  10.345  1.4522  2.1007  0.1146
 6389TIP3   OH243361   1.555   0.047   9.950  0.0349  0.3517 -0.4833
 6389TIP3    H143362   1.568   0.132   9.992  0.1426  0.2642 -0.3370
 6389TIP3    H243363   1.480   0.060   9.892  0.5731  0.7782 -1.0990
 6390TIP3   OH243364   1.177   4.240  10.911  0.4028 -0.1978  0.2410
 6390TIP3    H143365   1.224   4.322  10.894  0.8230 -0.0949  1.7531
 6390TIP3    H243366   1.230   4.195  10.977  0.0533 -1.5997 -0.4006
 6391TIP3   OH243367   6.611   3.864  12.678 -0.3890 -0.4986 -0.1005
 6391TIP3    H143368   6.644   3.944  12.720 -0.3078 -0.3256 -0.4901
 6391TIP3    H243369   6.518   3.862  12.700 -0.7747  0.6212 -1.5183
 6392TIP3   OH243370   3.938   4.105  10.580  0.1274 -0.2004  0.7205
 6392TIP3    H143371   3.995   4.042  10.622 -0.0033 -1.0857 -0.3871
 6392TIP3    H243372   3.879   4.134  10.649  1.5751  0.3667  1.7674
 6393TIP3   OH243373   5.374   0.855  11.700  0.5469  1.4902  0.7901
 6393TIP3    H143374   5.316   0.928  11.678 -1.2292  0.0347  0.4159
 6393TIP3    H243375   5.328   0.778  11.667  3.4934  0.3667 -1.0719
 6394TIP3   OH243376   2.898   4.310  10.259  0.3197 -0.1547  0.2240
 6394TIP3    H143377   2.825   4.254  10.284 -1.8063  0.7700 -3.1650
 6394TIP3    H243378   2.868   4.399  10.280  0.9414  0.1546 -0.1615
 6395TIP3   OH243379   5.625   1.166  11.210 -0.1679 -0.6557 -0.3243
 6395TIP3    H143380   5.657   1.228  11.276 -0.2130 -1.8659  0.8748
 6395TIP3    H243381   5.665   1.196  11.129 -0.2339  0.9784  0.2011
 6396TIP3   OH243382   4.958   0.879  18.824  0.0745  1.2369  0.2994
 6396TIP3    H143383   5.053   0.881  18.818  0.1001  1.0125  0.5771
 6396TIP3    H243384   4.937   0.785  18.830 -0.2196  1.2383 -0.6375
 6397TIP3   OH243385   2.603   6.698  10.755  0.1516 -0.2988 -0.1070
 6397TIP3    H143386   2.562   6.612  10.756 -0.4849 -0.1156 -2.5626
 6397TIP3    H243387   2.533   6.758  10.782  0.5895 -0.5014  1.5828
 6398TIP3   OH243388   5.303   0.685   9.637  0.0869  0.2054  0.1229
 6398TIP3    H143389   5.237   0.706   9.703  0.7242 -0.2036  0.9112
 6398TIP3    H243390   5.343   0.604   9.668 -0.4262 -0.6868 -1.4091
 6399TIP3   OH243391   1.516   6.542  11.811 -0.2677  0.0171  0.4118
 6399TIP3    H143392   1.498   6.583  11.726 -0.8423 -0.1048  0.4725
 6399TIP3    H243393   1.472   6.457  11.806  0.3586 -0.3237  0.5364
 6400TIP3   OH243394   5.460   2.164  11.759 -0.1831 -0.5959  0.0440
 6400TIP3    H143395   5.392   2.099  11.744 -1.1592  0.0686  1.3981
 6400TIP3    H243396   5.413   2.244  11.779  0.9815 -0.1847  1.3112
 6401TIP3   OH243397   4.423   3.066  11.046  0.2703  0.5156  0.0290
 6401TIP3    H143398   4.431   3.010  10.968  1.4159  0.4285  0.1912
 6401TIP3    H243399   4.495   3.129  11.037 -0.3754  1.3115  0.3795
 6402TIP3   OH243400   3.342   4.510  12.329 -0.7680 -0.1702  0.3775
 6402TIP3    H143401   3.273   4.547  12.384  0.3752  0.3511  1.5163
 6402TIP3    H243402   3.401   4.584  12.312 -2.0385  0.2119 -3.2206
 6403TIP3   OH243403   3.856   6.331   9.918 -0.5314 -0.0922 -0.6391
 6403TIP3    H143404   3.919   6.375   9.976  0.0185 -1.1945 -0.3764
 6403TIP3    H243405   3.792   6.399   9.897 -0.9632  0.2743  1.5681
 6404TIP3   OH243406   6.243   3.201   9.614  0.2417  0.0925 -0.0613
 6404TIP3    H143407   6.164   3.208   9.562 -0.0910  2.3107  0.6337
 6404TIP3    H243408   6.214   3.164   9.697 -0.2962  1.8118  0.5518
 6405TIP3   OH243409   4.599   1.686  10.497 -0.9276 -0.1315  0.0078
 6405TIP3    H143410   4.557   1.602  10.512 -1.3387  0.4706  2.6232
 6405TIP3    H243411   4.535   1.751  10.527  0.0404  1.0236 -0.3474
 6406TIP3   OH243412   2.959   2.822  12.841 -0.4857 -0.5559  0.0831
 6406TIP3    H143413   2.893   2.787  12.901 -0.6774 -0.3179  0.0128
 6406TIP3    H243414   2.909   2.877  12.780 -0.4490 -1.7334 -1.0316
 6407TIP3   OH243415   1.092   4.577  10.993  0.4680 -0.0751 -0.7546
 6407TIP3    H143416   1.064   4.587  10.902 -1.8290 -1.4989 -0.2861
 6407TIP3    H243417   1.012   4.589  11.044  1.6224  0.2390  1.0682
 6408TIP3   OH243418   3.435   1.422  10.673 -0.0459  0.8822  0.4047
 6408TIP3    H143419   3.431   1.419  10.768 -2.2253  0.6208  0.3754
 6408TIP3    H243420   3.378   1.350  10.645  2.3857 -0.5737 -1.1520
 6409TIP3   OH243421   5.606   5.922  12.285 -0.5126  0.4825 -0.3296
 6409TIP3    H143422   5.531   5.908  12.227 -0.6949  1.8676 -0.4654
 6409TIP3    H243423   5.581   5.997  12.338  0.2397  0.1088  0.5654
 6410TIP3   OH243424   2.920   3.098  10.501  0.7864 -0.3815  0.0134
 6410TIP3    H143425   2.905   3.083  10.594  2.8595  1.8625  0.8300
 6410TIP3    H243426   2.833   3.092  10.461  0.0102 -2.5754  1.8363
 6411TIP3   OH243427   2.261   6.675   9.359 -0.2230 -0.1236  0.4850
 6411TIP3    H143428   2.237   6.688   9.268  0.2633 -1.2225  0.1780
 6411TIP3    H243429   2.276   6.581   9.366 -1.7691 -0.2944  2.0758
 6412TIP3   OH243430   6.559   4.778   9.866 -0.3212  0.1364 -0.2325
 6412TIP3    H143431   6.512   4.813   9.941  0.6931 -0.1940  0.5774
 6412TIP3    H243432   6.498   4.714   9.827 -0.6604 -0.0689  0.6125
 6413TIP3   OH243433   4.067   0.084   9.281 -0.2773 -0.0402 -0.3870
 6413TIP3    H143434   4.121   0.053   9.209  0.2844  1.2962 -0.5556
 6413TIP3    H243435   4.128   0.123   9.343 -1.0537  1.8954 -0.7838
 6414TIP3   OH243436   0.050   3.459  11.616  0.2882  0.0804 -0.2332
 6414TIP3    H143437   0.041   3.466  11.711 -0.4338 -1.1953 -0.1790
 6414TIP3    H243438   0.066   3.549  11.587 -1.7501  0.8807  0.8809
 6415TIP3   OH243439   5.250   1.744  11.139  0.0240  0.1187 -0.8059
 6415TIP3    H143440   5.171   1.724  11.088 -0.7249  1.2025 -0.1023
 6415TIP3    H243441   5.297   1.808  11.087  0.3837 -0.4230 -1.1590
 6416TIP3   OH243442   4.529   5.295   9.937  0.0313  0.0761  0.2837
 6416TIP3    H143443   4.473   5.336   9.871 -2.4578  2.1337  3.4109
 6416TIP3    H243444   4.477   5.223   9.972  0.4748  0.2399  1.3183
 6417TIP3   OH243445   0.389   2.493  11.558  0.2379 -0.6391 -0.6803
 6417TIP3    H143446   0.468   2.520  11.510  0.1322 -0.5996 -0.8336
 6417TIP3    H243447   0.336   2.448  11.492 -0.6791  0.9028 -1.0386
 6418TIP3   OH243448   1.790   0.875  12.245 -0.1196  0.1621  0.4067
 6418TIP3    H143449   1.884   0.880  12.262 -0.0318 -2.5561  1.2030
 6418TIP3    H243450   1.752   0.844  12.327 -1.7401  1.1709  0.0806
 6419TIP3   OH243451   0.983   1.363  12.128  0.0111  0.2426 -0.1939
 6419TIP3    H143452   0.922   1.436  12.138  0.5739  0.4591  2.1683
 6419TIP3    H243453   0.964   1.305  12.202  0.7222 -1.1710 -1.0672
 6420TIP3   OH243454   5.785   6.170  10.361 -0.0284  0.3780  0.0963
 6420TIP3    H143455   5.834   6.250  10.342  1.1116  0.0001  1.2294
 6420TIP3    H243456   5.840   6.100  10.325 -2.4249  0.1459 -3.6334
 6421TIP3   OH243457   5.207   4.109   9.540 -0.2723  0.2172 -0.1572
 6421TIP3    H143458   5.137   4.043   9.546 -1.0120  0.8779 -1.2628
 6421TIP3    H243459   5.190   4.169   9.613  0.0099 -0.4139  0.4460
 6422TIP3   OH243460   6.199   0.962  11.456 -0.0103 -0.5629 -0.1322
 6422TIP3    H143461   6.225   0.952  11.547  0.2155  1.2821  0.0391
 6422TIP3    H243462   6.210   1.055  11.438 -2.6965 -0.3732 -1.2193
 6423TIP3   OH243463   6.541   3.635  11.332 -0.1698 -0.0323  0.1260
 6423TIP3    H143464   6.467   3.689  11.304  0.1848  0.9730  1.0623
 6423TIP3    H243465   6.611   3.654  11.270  0.0597  0.8535  0.6481
 6424TIP3   OH243466   5.057   0.542  10.475  0.1256 -0.6142 -0.5261
 6424TIP3    H143467   5.009   0.486  10.536  2.0570 -0.0080  1.6678
 6424TIP3    H243468   5.065   0.490  10.395  0.2995 -2.7411  0.8259
 6425TIP3   OH243469   1.332   5.441  10.456  0.1406  0.1022  0.0901
 6425TIP3    H143470   1.335   5.414  10.364 -0.9319  0.1279  0.0292
 6425TIP3    H243471   1.372   5.528  10.457 -0.4842  0.4051 -0.4853
 6426TIP3   OH243472   1.418   1.640  11.558 -0.5854 -0.5273 -0.5051
 6426TIP3    H143473   1.435   1.680  11.643 -1.8658 -1.0110  0.0033
 6426TIP3    H243474   1.363   1.704  11.512  0.8777  0.1627 -1.3745
 6427TIP3   OH243475   2.149   6.534  10.313 -0.4672  0.4180 -0.0889
 6427TIP3    H143476   2.123   6.442  10.308  0.4656  0.1485 -0.3265
 6427TIP3    H243477   2.089   6.573  10.376 -0.4712 -0.5034  0.4986
 6428TIP3   OH243478   5.997   4.933  11.557  0.1698  0.0469  0.2246
 6428TIP3    H143479   5.931   4.869  11.532  0.1007  0.9178 -2.1376
 6428TIP3    H243480   5.949   5.015  11.565  0.8187  0.5676 -0.8851
 6429TIP3   OH243481   1.609   4.170  10.744  0.1418  0.5010  0.0711
 6429TIP3    H143482   1.583   4.142  10.832  2.0930 -0.6478  0.3367
 6429TIP3    H243483   1.527   4.172  10.694 -0.8747  0.2316  1.6467
 6430TIP3   OH243484   5.626   5.489  11.952 -0.3892 -0.1636  0.5066
 6430TIP3    H143485   5.538   5.453  11.947 -0.5289 -0.0505  1.8288
 6430TIP3    H243486   5.635   5.519  12.043  0.5444  1.0159  0.0590
 6431TIP3   OH243487   1.552   5.650  11.221  0.6363 -0.7471 -0.6425
 6431TIP3    H143488   1.459   5.626  11.218  0.0199  1.4745 -1.8720
 6431TIP3    H243489   1.582   5.640  11.131  1.2838 -0.3948 -0.4700
 6432TIP3   OH243490   0.307   3.146  11.957 -0.2653  0.3189 -0.3329
 6432TIP3    H143491   0.211   3.147  11.954 -0.4456 -3.2059  0.3480
 6432TIP3    H243492   0.333   3.212  11.893 -3.1233  1.3575 -0.5694
 6433TIP3   OH243493   1.687   6.669  11.539  0.5962 -0.0165  0.7027
 6433TIP3    H143494   1.711   6.747  11.589  1.8891  0.5636 -0.7290
 6433TIP3    H243495   1.621   6.699  11.477  3.4360  0.9267 -2.1730
 6434TIP3   OH243496   0.383   2.133  10.169  0.2661 -0.1125  0.3951
 6434TIP3    H143497   0.449   2.073  10.203 -0.3347 -0.6740  0.5763
 6434TIP3    H243498   0.387   2.209  10.228 -0.1002 -0.6674  1.1452
 6435TIP3   OH243499   6.299   2.244  11.090  0.4366 -0.2724 -0.2248
 6435TIP3    H143500   6.271   2.185  11.159 -1.0128  0.7442  0.1156
 6435TIP3    H243501   6.262   2.207  11.010 -0.8427  0.3349  0.0438
 6436TIP3   OH243502   0.064   0.700  11.310  0.0479 -0.1630  0.3635
 6436TIP3    H143503   0.156   0.674  11.318  0.2057  0.1016 -0.4981
 6436TIP3    H243504   0.044   0.741  11.394  1.2955  1.5337 -0.1108
 6437TIP3   OH243505   3.097   4.078  10.028 -0.1418 -0.0297 -0.2295
 6437TIP3    H143506   3.161   4.052   9.961 -0.7198  1.0991 -1.2652
 6437TIP3    H243507   3.034   4.133   9.980 -1.2671 -0.2119  0.9970
 6438TIP3   OH243508   5.010   5.394   9.891 -0.5545 -0.1147 -0.2069
 6438TIP3    H143509   4.938   5.333   9.872  0.1394 -1.2570  0.6921
 6438TIP3    H243510   4.976   5.452   9.959 -0.6309 -0.6715  0.2374
 6439TIP3   OH243511   3.852   0.315  10.391  0.7798 -0.6367 -0.3403
 6439TIP3    H143512   3.918   0.265  10.438  1.7407  0.5053 -0.4417
 6439TIP3    H243513   3.856   0.403  10.429 -0.2438 -0.3807 -0.7793
 6440TIP3   OH243514   3.994   5.950   9.721 -0.3772 -0.1163  0.2977
 6440TIP3    H143515   4.061   6.013   9.749  0.0700  0.0276 -1.0296
 6440TIP3    H243516   4.038   5.865   9.721 -0.1076  0.0052 -0.7670
 6441TIP3   OH243517   3.099   4.297  10.468  0.1387 -0.5731 -0.3574
 6441TIP3    H143518   3.131   4.381  10.435 -0.8143  0.4182  1.1145
 6441TIP3    H243519   3.022   4.278  10.415 -1.0237  0.7033  0.7840
 6442TIP3   OH243520   0.448   4.219   9.542 -0.4809  0.2011  0.0364
 6442TIP3    H143521   0.479   4.133   9.569 -0.4993 -0.8925 -3.0210
 6442TIP3    H243522   0.523   4.276   9.553  1.2275 -1.3483 -2.5720
 6443TIP3   OH243523   6.186   6.171  10.070  0.4143 -0.3128 -0.3537
 6443TIP3    H143524   6.146   6.224  10.001  2.1757  0.1125 -1.1054
 6443TIP3    H243525   6.169   6.081  10.043  0.2687 -0.1455 -0.8447
 6444TIP3   OH243526   5.726   0.272  12.097 -0.1456 -0.0974 -0.0037
 6444TIP3    H143527   5.642   0.235  12.126 -0.6902 -0.4175 -1.8739
 6444TIP3    H243528   5.735   0.244  12.006  1.2628  1.2361 -0.3204
 6445TIP3   OH243529   0.849   3.201   9.817 -0.5451  0.2991 -0.4770
 6445TIP3    H143530   0.939   3.169   9.823 -1.2765 -1.6880  1.1259
 6445TIP3    H243531   0.855   3.283   9.768  1.7893 -1.0733 -2.7075
 6446TIP3   OH243532   4.803   0.394   9.744 -0.2219 -0.1389  0.2781
 6446TIP3    H143533   4.837   0.480   9.719  4.2325 -1.7353  0.0622
 6446TIP3    H243534   4.755   0.411   9.826  1.1107  2.4502  0.6247
 6447TIP3   OH243535   5.842   2.549  13.144  0.4577 -0.2582 -0.0965
 6447TIP3    H143536   5.816   2.608  13.215  1.7565 -0.5148  0.6279
 6447TIP3    H243537   5.937   2.560  13.137  0.3294 -0.0576 -1.9883
 6448TIP3   OH243538   5.917   5.483  11.007 -0.0483 -0.3394  0.1265
 6448TIP3    H143539   5.905   5.550  11.074  1.1924 -2.1455  2.3291
 6448TIP3    H243540   5.833   5.477  10.963 -0.1222  2.7860 -0.3727
 6449TIP3   OH243541   5.231   3.964  11.225  0.1355 -0.0641  0.4952
 6449TIP3    H143542   5.198   4.040  11.273 -0.7277  0.0069 -0.1802
 6449TIP3    H243543   5.323   3.985  11.209  0.2617  0.2119  1.5042
 6450TIP3   OH243544   1.175   6.074   9.706 -0.0172  0.0609 -0.0126
 6450TIP3    H143545   1.258   6.077   9.753  0.5165  0.6473 -0.9749
 6450TIP3    H243546   1.176   6.152   9.650 -0.6468 -0.5963 -0.9711
 6451TIP3   OH243547   4.948   4.732   9.233 -0.1349 -0.3865 -0.0727
 6451TIP3    H143548   4.998   4.799   9.188 -1.5592  1.0932  0.4425
 6451TIP3    H243549   4.857   4.750   9.209 -0.8123 -0.3849  2.2307
 6452TIP3   OH243550   0.140   6.484  10.863  0.3141 -0.0744 -0.4210
 6452TIP3    H143551   0.177   6.468  10.951  0.8882  1.9579 -0.2333
 6452TIP3    H243552   0.209   6.456  10.803  0.2300 -0.7565 -0.2023
 6453TIP3   OH243553   6.082   5.457  11.643 -0.1515 -0.3132  0.2500
 6453TIP3    H143554   6.057   5.468  11.734 -0.2004  0.4981  0.1479
 6453TIP3    H243555   6.038   5.529  11.597 -0.5367 -1.0021 -0.4953
 6454TIP3   OH243556   1.490   4.675   9.592  0.0475  0.5874 -0.0381
 6454TIP3    H143557   1.545   4.665   9.514 -0.9265 -2.8276 -0.4772
 6454TIP3    H243558   1.542   4.635   9.662  0.3248  2.3559  0.8129
 6455TIP3   OH243559   1.040   3.916   9.972  0.0557 -0.7474 -0.1711
 6455TIP3    H143560   1.132   3.937   9.958 -0.4163  2.1288  0.4167
 6455TIP3    H243561   1.036   3.880  10.061  0.5448 -0.4737 -0.0394
 6456TIP3   OH243562   1.140   0.806  10.471 -0.0947 -0.6121 -0.3296
 6456TIP3    H143563   1.228   0.836  10.494 -0.0999 -0.8033 -0.0487
 6456TIP3    H243564   1.149   0.771  10.382  0.4035 -1.7832  0.1572
 6457TIP3   OH243565   4.922   5.218   9.192  0.0019  0.4672 -0.0936
 6457TIP3    H143566   4.895   5.207   9.100  0.5666 -1.7938 -0.0355
 6457TIP3    H243567   4.842   5.204   9.242  0.1492 -0.7457 -0.1655
 6458TIP3   OH243568   3.604   6.344   9.738  0.3754  0.2623 -0.4629
 6458TIP3    H143569   3.561   6.385   9.663 -1.6775  1.0581  1.0384
 6458TIP3    H243570   3.629   6.257   9.707 -1.6798  0.0399 -1.7028
 6459TIP3   OH243571   3.798   5.670   9.732  0.7336 -0.7627  0.0771
 6459TIP3    H143572   3.883   5.670   9.777  0.8148  0.0664 -0.0589
 6459TIP3    H243573   3.808   5.735   9.662 -0.3730  0.1760  0.7596
 6460TIP3   OH243574   5.806   6.373  10.131  0.2776 -0.1068  0.7793
 6460TIP3    H143575   5.842   6.456  10.100  1.2012 -0.9338 -0.4695
 6460TIP3    H243576   5.839   6.308  10.069 -2.4412 -1.1033  0.2543
 6461TIP3   OH243577   3.913   4.892  10.952 -0.0481 -0.4604  0.5977
 6461TIP3    H143578   3.862   4.920  10.876 -0.9313 -0.4232  1.1855
 6461TIP3    H243579   3.951   4.972  10.987 -0.2549 -0.3772  0.6305
 6462TIP3   OH243580   1.072   0.947  10.713  0.6795 -0.2662  0.4503
 6462TIP3    H143581   1.099   0.895  10.637  0.1460 -0.7618  0.5966
 6462TIP3    H243582   1.152   0.993  10.739  0.8558 -0.0445 -0.4435
 6463TIP3   OH243583   3.790   6.304  11.864  0.4593 -0.4613  0.0486
 6463TIP3    H143584   3.739   6.330  11.941  0.9726 -0.8012  0.5090
 6463TIP3    H243585   3.749   6.223  11.834  0.0564 -0.1553 -0.2354
 6464TIP3   OH243586   0.322   5.908   9.631  0.0097  0.4903  0.2060
 6464TIP3    H143587   0.408   5.899   9.674 -0.2982  1.6931  1.1268
 6464TIP3    H243588   0.326   5.993   9.589 -0.1186 -0.1967 -1.2649
 6465TIP3   OH243589   1.859   4.574  11.185  0.4182 -0.1242  0.2304
 6465TIP3    H143590   1.807   4.493  11.181  0.4790 -0.1578  0.1229
 6465TIP3    H243591   1.818   4.625  11.255 -1.9668  1.4019 -2.0637
 6466TIP3   OH243592   6.736   3.566  11.874  0.4354  0.2614 -0.5803
 6466TIP3    H143593   6.711   3.659  11.872 -1.8665 -0.2512  0.8345
 6466TIP3    H243594   6.744   3.545  11.967  0.2134 -1.1358 -0.8549
 6467TIP3   OH243595   4.117   2.898  10.165  0.0220 -0.7455  0.0399
 6467TIP3    H143596   4.087   2.835  10.231 -2.3013 -1.0121 -1.1815
 6467TIP3    H243597   4.204   2.924  10.196 -0.1911 -2.2551  2.1920
 6468TIP3   OH243598   5.442   1.298  12.612 -0.1119  0.8390 -0.1435
 6468TIP3    H143599   5.501   1.370  12.634  0.3770 -0.0798  1.7629
 6468TIP3    H243600   5.362   1.316  12.662 -0.8872  1.2621 -1.5006
 6469TIP3   OH243601   5.762   0.965   9.713  0.0640  0.1710 -0.5247
 6469TIP3    H143602   5.690   0.907   9.689 -0.0116 -0.4792  1.1615
 6469TIP3    H243603   5.805   0.921   9.787  0.8740  1.5888 -0.1171
 6470TIP3   OH243604   6.323   0.561  11.293 -0.1563  0.5240 -0.0854
 6470TIP3    H143605   6.278   0.640  11.262  0.0180  0.7729  0.2884
 6470TIP3    H243606   6.275   0.489  11.253 -0.5850  0.8043 -0.0808
 6471TIP3   OH243607   3.847   1.867  11.237 -0.1205  0.5112 -0.1775
 6471TIP3    H143608   3.839   1.962  11.243 -0.7547  0.4453  0.0993
 6471TIP3    H243609   3.839   1.835  11.327  0.0062  0.1916 -0.2756
 6472TIP3   OH243610   5.773   1.809  10.460  0.0258 -0.0310  0.5658
 6472TIP3    H143611   5.724   1.837  10.383  0.7263 -1.4447 -0.4425
 6472TIP3    H243612   5.708   1.769  10.517 -0.5522  1.3015  0.8680
 6473TIP3   OH243613   1.133   1.900   9.962 -0.2455  0.1533 -0.6853
 6473TIP3    H143614   1.075   1.835   9.922 -1.7232 -0.3109  1.9854
 6473TIP3    H243615   1.075   1.971   9.989  0.7327  0.6390  0.2024
 6474TIP3   OH243616   2.795   5.614  12.267 -0.2054 -0.7474  0.9533
 6474TIP3    H143617   2.709   5.571  12.270 -0.1426 -1.1146 -0.9854
 6474TIP3    H243618   2.816   5.618  12.174  0.9050  1.3410  1.2419
 6475TIP3   OH243619   0.120   1.516   9.405  0.0578  0.4543  0.3627
 6475TIP3    H143620   0.069   1.593   9.430  0.3945  0.6704  0.4022
 6475TIP3    H243621   0.193   1.551   9.355 -0.3011  0.0653 -0.4392
 6476TIP3   OH243622   2.389   3.603  11.801 -0.7192  0.2456 -0.1096
 6476TIP3    H143623   2.391   3.666  11.729 -0.4347 -0.0366 -0.3490
 6476TIP3    H243624   2.441   3.644  11.870  1.6990 -0.8298 -1.1905
 6477TIP3   OH243625   2.464   4.630  10.759  0.4525  0.2133  0.6030
 6477TIP3    H143626   2.432   4.570  10.692  0.5058 -0.6809  1.3541
 6477TIP3    H243627   2.393   4.694  10.769  0.0398 -0.1960  0.3648
 6478TIP3   OH243628   6.559   2.675  11.176 -0.0685  0.1000  0.0796
 6478TIP3    H143629   6.648   2.690  11.208 -0.8343 -0.7951  2.9523
 6478TIP3    H243630   6.532   2.593  11.218 -1.9187 -0.1514 -1.4706
 6479TIP3   OH243631   0.695   1.353  11.429  0.2993  0.3968 -0.5806
 6479TIP3    H143632   0.682   1.292  11.502 -0.4075  1.5994  0.3406
 6479TIP3    H243633   0.788   1.375  11.433  0.4463 -0.2066 -0.5886
 6480TIP3   OH243634   3.013   6.625  11.025  0.7533 -0.2239 -0.3869
 6480TIP3    H143635   3.013   6.711  10.984 -0.7311  0.6823  1.3445
 6480TIP3    H243636   2.966   6.568  10.964 -0.8721  0.9351 -0.2710
 6481TIP3   OH243637   2.454   0.377  11.570 -0.3585  0.0352 -0.3312
 6481TIP3    H143638   2.522   0.435  11.534 -1.5442  0.9017 -1.2256
 6481TIP3    H243639   2.475   0.372  11.663  2.3822 -1.7030 -0.9150
 6482TIP3   OH243640   2.326   3.200  11.423 -0.4121 -0.0257  0.6531
 6482TIP3    H143641   2.353   3.109  11.430  1.5079  0.2456 -1.7476
 6482TIP3    H243642   2.405   3.246  11.393 -1.7976  2.1007  0.0653
 6483TIP3   OH243643   2.448   3.145  12.034 -0.3266  0.2313  0.7311
 6483TIP3    H143644   2.368   3.104  12.067 -0.1893 -0.9112 -0.2998
 6483TIP3    H243645   2.429   3.164  11.942 -0.2000  2.0638  1.0376
 6484TIP3   OH243646   3.439   2.209  11.801  0.0829 -0.1056 -0.2332
 6484TIP3    H143647   3.377   2.156  11.851  1.7738 -1.0738  0.9725
 6484TIP3    H243648   3.445   2.291  11.849 -2.4258  1.2495 -2.0188
 6485TIP3   OH243649   4.507   3.348  10.853  0.1820 -0.7749 -0.0097
 6485TIP3    H143650   4.413   3.333  10.845  0.0903 -1.2046  1.6236
 6485TIP3    H243651   4.526   3.335  10.946  1.5203  1.2785  0.0614
 6486TIP3   OH243652   2.803   5.837  11.283 -0.6825 -0.3752 -0.1102
 6486TIP3    H143653   2.864   5.774  11.320 -0.5547 -0.4646 -0.4774
 6486TIP3    H243654   2.787   5.806  11.194 -1.5785 -0.5856  0.1151
 6487TIP3   OH243655   2.786   2.493  10.023 -0.0302  0.0159  0.1707
 6487TIP3    H143656   2.860   2.518  10.079  0.2464  1.0530 -0.6130
 6487TIP3    H243657   2.732   2.437  10.078  0.3085  0.8735  1.4322
 6488TIP3   OH243658   2.178   3.564  11.620 -0.4708 -0.3365 -0.3818
 6488TIP3    H143659   2.250   3.626  11.608  0.0721 -1.2239 -1.8854
 6488TIP3    H243660   2.187   3.535  11.711  0.6415  0.1078 -0.3330
 6489TIP3   OH243661   0.378   6.468  10.513 -0.2416 -0.4887  0.0692
 6489TIP3    H143662   0.414   6.540  10.460  0.7175 -1.9104 -1.3088
 6489TIP3    H243663   0.284   6.468  10.493 -0.0444 -0.3983 -0.9077
 6490TIP3   OH243664   3.625   2.166  10.981 -0.0828  0.0390  0.9526
 6490TIP3    H143665   3.720   2.160  10.992  0.0177  0.4942  0.3642
 6490TIP3    H243666   3.613   2.181  10.887 -0.6877  0.8981  1.1598
 6491TIP3   OH243667   2.975   6.152   9.693 -0.4956 -0.1593 -0.7159
 6491TIP3    H143668   2.932   6.170   9.610 -1.8253  3.0808  0.4764
 6491TIP3    H243669   3.032   6.228   9.707 -0.4450 -0.5273  1.3692
 6492TIP3   OH243670   5.937   3.714  12.245  0.5068  0.0144  0.0745
 6492TIP3    H143671   5.921   3.698  12.338 -1.0684  3.2317  0.4968
 6492TIP3    H243672   6.021   3.759  12.242  0.7726 -0.4863 -0.1351
 6493TIP3   OH243673   1.969   2.263  10.865  0.6287 -0.0486 -0.3220
 6493TIP3    H143674   2.023   2.198  10.910  1.6918  1.0883  0.1024
 6493TIP3    H243675   2.013   2.346  10.881 -1.7815  1.1172  0.9022
 6494TIP3   OH243676   1.354   2.290  11.559 -0.4954 -0.0134  0.5863
 6494TIP3    H143677   1.412   2.250  11.495 -2.4266 -1.2811 -0.4789
 6494TIP3    H243678   1.395   2.374  11.579  1.9653 -1.0794  0.3594
 6495TIP3   OH243679   5.857   0.836   9.921 -0.1962 -0.2691  0.8534
 6495TIP3    H143680   5.807   0.790   9.989  0.6645 -0.4270  1.3928
 6495TIP3    H243681   5.933   0.872   9.967 -0.5095  1.1442  0.3179
 6496TIP3   OH243682   3.295   5.643  10.910  0.0809  0.0763  0.5558
 6496TIP3    H143683   3.225   5.579  10.925 -1.0184  1.5053  1.7463
 6496TIP3    H243684   3.337   5.653  10.995  0.1665  0.9997  0.4100
 6497TIP3   OH243685   5.258   3.230  12.042 -0.1753 -0.4432  0.0899
 6497TIP3    H143686   5.299   3.153  12.001 -0.5059  0.2532 -1.6422
 6497TIP3    H243687   5.274   3.219  12.135  1.7606 -1.4659 -0.3108
 6498TIP3   OH243688   5.153   3.786  10.960 -0.0844 -0.2529 -0.0299
 6498TIP3    H143689   5.175   3.742  11.042 -1.6017 -0.0674  0.5076
 6498TIP3    H243690   5.058   3.776  10.952 -0.1518  0.9524 -1.0498
 6499TIP3   OH243691   5.182   3.208  11.297  0.0666  0.3157 -0.0105
 6499TIP3    H143692   5.140   3.288  11.330 -0.7775  0.1550 -0.6599
 6499TIP3    H243693   5.122   3.176  11.230  0.7841 -0.4462 -0.2985
 6500TIP3   OH243694   1.137   0.910   9.555  0.2473  0.6057  0.3965
 6500TIP3    H143695   1.086   0.985   9.585  0.0948  0.1200  1.3885
 6500TIP3    H243696   1.216   0.948   9.517 -0.4318  1.3188 -0.3229
 6501TIP3   OH243697   4.356   3.136  10.078 -0.5846  0.6361 -0.2437
 6501TIP3    H143698   4.438   3.098  10.109 -1.4215 -1.0263 -0.0050
 6501TIP3    H243699   4.306   3.153  10.158 -2.1912 -2.3930 -0.4751
 6502TIP3   OH243700   2.964   0.327  11.593  0.0395  0.6574 -0.3059
 6502TIP3    H143701   2.965   0.252  11.533 -1.9935 -0.6714  1.2075
 6502TIP3    H243702   2.880   0.321  11.638 -0.0493  3.7105  0.1152
 6503TIP3   OH243703   2.628   1.555  12.496 -0.3444  0.4677  0.2642
 6503TIP3    H143704   2.585   1.594  12.572 -0.6609  1.0679 -0.2127
 6503TIP3    H243705   2.711   1.522  12.529 -0.2258  1.2372  0.7648
 6504TIP3   OH243706   1.425   0.382  10.203  0.2526 -0.1936 -0.3718
 6504TIP3    H143707   1.448   0.436  10.279  0.3202 -0.9252  0.1443
 6504TIP3    H243708   1.334   0.357  10.220  1.0748 -2.6168  0.9019
 6505TIP3   OH243709   2.917   1.372  10.204  0.0539 -0.4379  0.1546
 6505TIP3    H143710   2.986   1.325  10.252  0.0097 -1.8323 -1.0804
 6505TIP3    H243711   2.927   1.344  10.113 -0.0273  1.9581 -0.6622
 6506TIP3   OH243712   0.948   1.603  10.789 -0.0425 -0.5133  0.0022
 6506TIP3    H143713   1.025   1.574  10.740  0.2911  0.9105 -0.3477
 6506TIP3    H243714   0.943   1.543  10.863  0.8908 -1.1549 -0.4327
 6507TIP3   OH243715   0.928   2.361   9.101 -0.2201 -0.2639 -0.2737
 6507TIP3    H143716   0.975   2.278   9.110 -1.2140 -0.8223 -0.1425
 6507TIP3    H243717   0.836   2.338   9.110 -0.6190  0.6305 -1.6921
 6508TIP3   OH243718   2.269   1.342   9.699 -0.0947  0.2586 -0.1531
 6508TIP3    H143719   2.318   1.422   9.683 -0.5229  0.4827 -0.3733
 6508TIP3    H243720   2.248   1.346   9.793  0.4678  0.0657 -0.0177
 6509TIP3   OH243721   5.621   0.849  10.278 -0.6101 -0.2448  0.4353
 6509TIP3    H143722   5.656   0.788  10.213  0.8914  1.1079 -0.0866
 6509TIP3    H243723   5.608   0.930  10.229  0.3333  0.7334  1.7796
 6510TIP3   OH243724   2.332   0.587  11.922 -0.1357  0.1006 -0.0141
 6510TIP3    H143725   2.303   0.641  11.849  1.0560 -0.4244 -0.9243
 6510TIP3    H243726   2.255   0.537  11.948 -0.2410 -0.8071 -1.9341
 6511TIP3   OH243727   5.928   1.623  11.068  0.2444  0.7492  0.4958
 6511TIP3    H143728   5.999   1.677  11.103  0.4254  1.2873 -0.6367
 6511TIP3    H243729   5.853   1.642  11.124  1.3253 -0.9886  2.6834
 6512TIP3   OH243730   4.535   0.953  11.749 -0.3657 -0.2472  0.3969
 6512TIP3    H143731   4.575   1.004  11.679 -1.8304  0.1790 -0.1615
 6512TIP3    H243732   4.520   1.016  11.820 -0.3434 -0.3275  0.4729
 6513TIP3   OH243733   1.109   6.432  12.905 -0.3979  0.5339  0.1886
 6513TIP3    H143734   1.193   6.477  12.920 -0.7271  0.6184  2.0288
 6513TIP3    H243735   1.109   6.360  12.968 -1.7034  0.5198  0.1974
 6514TIP3   OH243736   1.345   2.568   9.929  0.7351 -0.4554 -0.3512
 6514TIP3    H143737   1.377   2.565   9.839 -0.2029 -1.7754 -0.6775
 6514TIP3    H243738   1.399   2.503   9.975 -0.3946 -1.5950 -0.5639
 6515TIP3   OH243739   5.874   4.719   9.775 -0.9912 -0.7154  0.2797
 6515TIP3    H143740   5.806   4.784   9.795  2.0362  3.0821 -0.4537
 6515TIP3    H243741   5.881   4.720   9.680 -0.5101 -1.7334  0.2906
 6516TIP3   OH243742   0.197   4.326   9.497  0.3749 -0.3582 -0.2195
 6516TIP3    H143743   0.202   4.409   9.544  0.5858 -0.1760 -0.5587
 6516TIP3    H243744   0.286   4.292   9.498  0.1803 -0.8718  0.4299
 6517TIP3   OH243745   5.016   0.851  10.697 -0.2277  0.4142  0.1115
 6517TIP3    H143746   5.005   0.940  10.729  0.7180  0.6441 -0.1828
 6517TIP3    H243747   5.014   0.797  10.777 -1.3503  0.6220  0.2435
 6518TIP3   OH243748   2.320   3.339  11.848 -0.4744 -0.3870  0.2103
 6518TIP3    H143749   2.369   3.419  11.829  1.1427 -1.5258 -0.6142
 6518TIP3    H243750   2.229   3.361  11.827 -0.1174  1.3272  0.3382
 6519TIP3   OH243751   1.168   4.782  11.937  0.6708 -0.3212  0.0830
 6519TIP3    H143752   1.211   4.810  11.857  0.5516  1.8461  0.7142
 6519TIP3    H243753   1.190   4.850  12.001 -4.3446  1.6170  0.2521
 6520TIP3   OH243754   1.991   2.404  11.156 -0.1585 -0.2731  0.2372
 6520TIP3    H143755   2.071   2.402  11.208  0.4857  0.9254 -0.6496
 6520TIP3    H243756   1.951   2.318  11.169  0.9882 -0.6935  1.1167
 6521TIP3   OH243757   2.673   1.765  10.483 -0.1717 -0.3370  0.5079
 6521TIP3    H143758   2.767   1.749  10.492  0.3062  1.6634 -0.3828
 6521TIP3    H243759   2.645   1.793  10.570  0.2841  0.0900  0.5187
 6522TIP3   OH243760   0.459   4.616  11.692  0.0372  0.7716 -0.2818
 6522TIP3    H143761   0.535   4.586  11.742  0.0864  0.7921 -0.3445
 6522TIP3    H243762   0.489   4.696  11.648  0.0118  0.7201 -0.3922
 6523TIP3   OH243763   5.279   3.694  10.671 -0.4353  0.1647  0.0701
 6523TIP3    H143764   5.322   3.661  10.749 -1.2012 -0.5744  0.2078
 6523TIP3    H243765   5.195   3.729  10.702 -1.5058 -1.6488 -0.5541
 6524TIP3   OH243766   2.530   6.424  10.830  0.2840 -0.2565  0.1689
 6524TIP3    H143767   2.574   6.374  10.899 -0.1950 -0.9606 -0.0263
 6524TIP3    H243768   2.437   6.412  10.847  0.1431 -1.0886 -1.0354
 6525TIP3   OH243769   1.342   3.454  11.328  0.4112  0.3455 -0.4220
 6525TIP3    H143770   1.258   3.413  11.345 -0.5954  1.5325 -2.1687
 6525TIP3    H243771   1.366   3.425  11.240  0.9579  1.3971 -0.6421
 6526TIP3   OH243772   2.902   2.065  11.528  0.5514  0.6064  0.1694
 6526TIP3    H143773   2.943   2.026  11.604  0.1352  2.7526  1.5864
 6526TIP3    H243774   2.842   2.130  11.564  0.8391  2.1742 -2.0020
 6527TIP3   OH243775   6.656   0.052  11.476 -0.3435  0.3384 -0.2268
 6527TIP3    H143776   6.746   0.020  11.467 -0.7837 -0.4375 -2.5238
 6527TIP3    H243777   6.665   0.148  11.482  0.6072  0.3956 -1.9592
 6528TIP3   OH243778   5.878   3.957   9.574 -0.2964  0.0489  0.2626
 6528TIP3    H143779   5.961   3.999   9.595  0.3703 -0.7944 -0.5695
 6528TIP3    H243780   5.879   3.949   9.479 -1.9298  1.1949  0.1122
 6529TIP3   OH243781   6.484   1.733  12.418 -0.1207 -0.2352 -0.1568
 6529TIP3    H143782   6.555   1.796  12.410  0.4385 -0.7242  0.8835
 6529TIP3    H243783   6.432   1.765  12.492  0.7525 -1.5291  1.0603
 6530TIP3   OH243784   0.151   5.047   9.860  0.6856 -0.5786 -0.3509
 6530TIP3    H143785   0.147   5.025   9.953  1.1421  0.5267 -0.0529
 6530TIP3    H243786   0.103   4.977   9.816  0.5506 -1.1617  0.7077
 6531TIP3   OH243787   4.306   4.039   9.965 -0.5257 -0.4745 -0.0974
 6531TIP3    H143788   4.307   3.951   9.929  0.8848 -0.1850 -0.8378
 6531TIP3    H243789   4.314   4.096   9.889  0.2046  0.2276  0.4862
 6532TIP3   OH243790   3.579   5.972  10.528 -0.2317  0.2912 -0.5461
 6532TIP3    H143791   3.509   5.936  10.583 -0.6495 -1.1173 -1.9250
 6532TIP3    H243792   3.659   5.949  10.575 -0.6288  1.5213  0.8228
 6533TIP3   OH243793   6.013   2.354  10.748  0.0580 -0.3377  0.2762
 6533TIP3    H143794   5.962   2.275  10.764  0.3225 -1.1907 -2.4868
 6533TIP3    H243795   5.957   2.425  10.779 -0.6237 -1.5079  1.8569
 6534TIP3   OH243796   5.923   5.808   9.533 -0.5620 -0.4991 -0.2161
 6534TIP3    H143797   5.840   5.765   9.510 -0.5392 -0.1592 -0.9825
 6534TIP3    H243798   5.902   5.901   9.535 -0.3004 -0.4442  0.0513
 6535TIP3   OH243799   6.343   4.563   9.236  0.0178 -0.6150 -0.3589
 6535TIP3    H143800   6.355   4.481   9.283 -0.5209 -0.8402 -0.6040
 6535TIP3    H243801   6.327   4.537   9.145 -1.7814 -0.3370 -0.1528
 6536TIP3   OH243802   4.252   0.640  11.026  0.1551  0.4601 -0.0471
 6536TIP3    H143803   4.258   0.634  11.121  0.5220 -0.7445 -0.1325
 6536TIP3    H243804   4.211   0.558  10.999  1.8769 -0.1196 -1.0559
 6537TIP3   OH243805   3.552   2.735  10.611 -0.4571  0.5535 -0.3806
 6537TIP3    H143806   3.544   2.640  10.610  2.1318  0.2541  0.1341
 6537TIP3    H243807   3.533   2.762  10.521 -1.4234 -0.4179 -0.4731
 6538TIP3   OH243808   3.227   4.276   9.778 -0.2532 -0.5802 -0.1632
 6538TIP3    H143809   3.210   4.323   9.696  0.0718  0.4789  0.3535
 6538TIP3    H243810   3.271   4.196   9.751  0.5351  0.1033 -0.9839
 6539TIP3   OH243811   1.088   4.475  12.203  0.4754 -0.2418  0.0626
 6539TIP3    H143812   1.125   4.396  12.163  0.5471 -0.4357  0.5014
 6539TIP3    H243813   0.994   4.466  12.190  0.6183  0.9262 -2.2960
 6540TIP3   OH243814   1.136   2.135   9.440 -0.1081 -0.3098  0.0151
 6540TIP3    H143815   1.081   2.088   9.503  0.3882 -1.5635 -0.4504
 6540TIP3    H243816   1.185   2.197   9.494  0.3213 -1.3704  0.8953
 6541TIP3   OH243817   6.357   4.486  10.012 -0.0485 -0.2758  0.0599
 6541TIP3    H143818   6.365   4.555   9.946  1.2592  0.8529  1.3270
 6541TIP3    H243819   6.263   4.470  10.018 -0.2253 -0.0413 -1.6918
 6542TIP3   OH243820   4.833   0.489  11.009  0.0514  0.3543 -0.4959
 6542TIP3    H143821   4.770   0.421  10.986  0.5671 -0.1422 -0.4665
 6542TIP3    H243822   4.841   0.484  11.104  0.5157  0.0592 -0.5437
 6543TIP3   OH243823   6.167   2.596  12.886  0.1248 -0.0500  0.1291
 6543TIP3    H143824   6.108   2.521  12.886  2.2891 -1.8366 -0.6783
 6543TIP3    H243825   6.245   2.566  12.840  1.1803  2.6394 -0.0250
 6544TIP3   OH243826   1.022   1.657  11.171 -0.2157  0.2619  0.2356
 6544TIP3    H143827   1.001   1.735  11.222 -0.4591 -0.3112  1.0249
 6544TIP3    H243828   0.937   1.624  11.142 -0.1267  0.1758  0.0734
 6545TIP3   OH243829   2.750   5.440   9.431  0.0820  0.4883 -0.2808
 6545TIP3    H143830   2.814   5.511   9.437 -1.5768  2.1110 -0.9616
 6545TIP3    H243831   2.689   5.468   9.363 -0.6815 -1.5715 -0.5093
 6546TIP3   OH243832   4.029   3.759   9.805 -0.1471  0.0394 -0.2006
 6546TIP3    H143833   4.003   3.836   9.857 -0.8606 -0.3745  0.0738
 6546TIP3    H243834   3.970   3.760   9.730  1.9348  1.5666 -1.9530
 6547TIP3   OH243835   1.736   2.609  10.191  0.2010 -0.4459  0.3840
 6547TIP3    H143836   1.817   2.660  10.183  0.6504 -1.0263  1.0045
 6547TIP3    H243837   1.724   2.570  10.105  0.6041 -0.3753  0.2929
 6548TIP3   OH243838   4.635   0.194   9.653 -0.0211  0.5227  0.1109
 6548TIP3    H143839   4.695   0.262   9.684 -0.7112  0.5598  1.4352
 6548TIP3    H243840   4.564   0.193   9.718 -0.1093 -1.3491  0.0365
 6549TIP3   OH243841   3.071   3.815   9.873 -0.3335  0.2142  0.5943
 6549TIP3    H143842   3.031   3.751   9.813  1.9584 -1.3331  0.6097
 6549TIP3    H243843   3.069   3.772   9.959 -2.5988  1.9747  1.5259
 6550TIP3   OH243844   4.501   6.515  11.169 -0.3543  0.1313  0.0664
 6550TIP3    H143845   4.567   6.511  11.238  0.7158  1.3977 -0.8491
 6550TIP3    H243846   4.511   6.432  11.122  0.8632  0.4742 -0.2979
 6551TIP3   OH243847   3.189   4.129  11.746 -0.3244 -0.8875 -0.0698
 6551TIP3    H143848   3.236   4.088  11.673  0.6697 -1.5785  0.9364
 6551TIP3    H243849   3.149   4.056  11.793 -0.8334 -0.4567  0.1820
 6552TIP3   OH243850   2.769   3.914   9.720  0.0699 -0.1262  0.4567
 6552TIP3    H143851   2.849   3.879   9.760  0.5609  1.5450  1.0287
 6552TIP3    H243852   2.798   3.950   9.636  0.1181  1.2377  1.0343
 6553TIP3   OH243853   1.452   6.268  11.824 -0.2947  0.6193  0.1314
 6553TIP3    H143854   1.465   6.195  11.763 -2.5780  1.7953 -1.9591
 6553TIP3    H243855   1.408   6.230  11.899 -0.4346 -0.3638 -0.4364
 6554TIP3   OH243856   1.538   3.068  11.599  0.4939  0.2489 -0.4236
 6554TIP3    H143857   1.448   3.038  11.613  0.7760  0.4352  2.4680
 6554TIP3    H243858   1.530   3.164  11.594  0.5475  0.2962  0.2781
 6555TIP3   OH243859   3.489   3.378  11.359 -0.4870 -0.5764  0.2488
 6555TIP3    H143860   3.422   3.441  11.386  0.4451 -0.1697  1.7314
 6555TIP3    H243861   3.516   3.336  11.440  1.6915 -0.0662 -0.1542
 6556TIP3   OH243862   6.250   0.936   9.669 -0.3019  0.5079  0.0700
 6556TIP3    H143863   6.188   1.001   9.635 -1.5292 -0.6485 -0.0016
 6556TIP3    H243864   6.336   0.975   9.655 -0.8141  0.7646 -2.9810
 6557TIP3   OH243865   1.090   3.765   8.856 -0.3457 -0.2865  0.8276
 6557TIP3    H143866   1.022   3.698   8.854 -0.7176  0.0887 -0.0186
 6557TIP3    H243867   1.168   3.720   8.823 -0.4789 -0.4225  0.6921
 6558TIP3   OH243868   6.664   4.329  10.802 -0.4770  0.0285 -0.8315
 6558TIP3    H143869   6.752   4.340  10.838 -0.6377 -0.8108 -0.1538
 6558TIP3    H243870   6.666   4.376  10.719  0.1098  1.4070 -0.0633
 6559TIP3   OH243871   1.927   1.516   9.194 -0.0788  0.3747 -0.2957
 6559TIP3    H143872   1.884   1.570   9.260 -0.1935  0.5411 -0.5066
 6559TIP3    H243873   2.015   1.553   9.187  0.7021 -1.0066  1.3701
 6560TIP3   OH243874   0.704   5.724  10.573 -1.0999  0.6180 -0.2835
 6560TIP3    H143875   0.748   5.761  10.650 -0.1080  0.7897 -0.9076
 6560TIP3    H243876   0.666   5.642  10.604 -0.7899  0.7252  0.4050
 6561TIP3   OH243877   2.353   0.392   9.479  0.4241  0.0837  0.1056
 6561TIP3    H143878   2.368   0.298   9.473  1.3819  0.2835 -1.0506
 6561TIP3    H243879   2.382   0.415   9.568 -0.2322 -0.7632  0.5553
 6562TIP3   OH243880   1.287   0.609  10.758  0.2365 -0.1001  0.1328
 6562TIP3    H143881   1.372   0.630  10.717  0.3699 -0.5788  0.1616
 6562TIP3    H243882   1.242   0.555  10.693 -0.3283  0.7149 -0.1638
 6563TIP3   OH243883   1.377   6.535  10.461  0.2739 -0.0092  0.3719
 6563TIP3    H143884   1.296   6.531  10.513  0.1364 -1.0764  0.0918
 6563TIP3    H243885   1.394   6.445  10.436  2.0311  0.0756  1.1199
 6564TIP3   OH243886   0.623   2.037   9.785 -0.3720  0.1613  0.1261
 6564TIP3    H143887   0.560   2.022   9.855  0.2500  0.6345  0.8015
 6564TIP3    H243888   0.570   2.067   9.711 -0.8692  1.5346  0.9910
 6565TIP3   OH243889   3.975   3.554   9.114 -0.2141 -0.4513  0.6566
 6565TIP3    H143890   4.007   3.501   9.187  1.6194  0.6590  0.7376
 6565TIP3    H243891   3.891   3.588   9.144 -0.2376 -1.2888  1.6038
 6566TIP3   OH243892   3.753   2.186   9.936  0.0605 -0.6610 -0.1216
 6566TIP3    H143893   3.804   2.119   9.981 -1.3478  0.3410  3.2998
 6566TIP3    H243894   3.682   2.138   9.895  0.9191 -1.5443 -0.6336
 6567TIP3   OH243895   6.726   1.898   9.909  0.3495  0.2435 -0.3041
 6567TIP3    H143896   6.796   1.937   9.962 -0.9057  0.0695  1.5919
 6567TIP3    H243897   6.712   1.812   9.948 -1.5453  0.6407 -0.0161
 6568TIP3   OH243898   3.837   2.384   9.734 -0.3363  0.1118  0.3706
 6568TIP3    H143899   3.869   2.413   9.649 -2.5018 -0.8353 -0.8502
 6568TIP3    H243900   3.882   2.302   9.751  0.4559  0.5421  0.3977
 6569TIP3   OH243901   2.100   0.857  10.227 -0.1530  0.1918 -0.2699
 6569TIP3    H143902   2.070   0.901  10.307 -0.4710  1.6695 -1.1610
 6569TIP3    H243903   2.026   0.863  10.167  0.1456 -0.7413 -0.7573
 6570TIP3   OH243904   3.462   1.709   9.628 -0.3049  0.9307  0.0403
 6570TIP3    H143905   3.368   1.696   9.626 -0.7568  3.5762  0.3620
 6570TIP3    H243906   3.499   1.620   9.629 -2.7655 -0.1624  0.3361
 6571TIP3   OH243907   2.300   1.565  11.974 -0.3096  0.2380  0.0605
 6571TIP3    H143908   2.390   1.534  11.965 -0.0069  1.4018 -1.2840
 6571TIP3    H243909   2.285   1.571  12.068  0.6512 -0.9616  0.3091
 6572TIP3   OH243910   3.199   6.547  11.207 -0.4095 -0.1119  0.0051
 6572TIP3    H143911   3.140   6.594  11.148  0.1800 -0.2985 -0.7545
 6572TIP3    H243912   3.142   6.493  11.261 -0.9189 -0.4559 -0.8605
 6573TIP3   OH243913   3.673   3.749  10.681 -0.7357  0.3105  0.1498
 6573TIP3    H143914   3.645   3.770  10.770 -2.2085  0.4449 -0.3175
 6573TIP3    H243915   3.618   3.803  10.625 -0.3515 -0.3234 -0.8714
 6574TIP3   OH243916   2.919   3.778  11.326  0.4222  0.1677 -0.5774
 6574TIP3    H143917   2.888   3.868  11.316  0.3931  0.0768 -1.4136
 6574TIP3    H243918   2.941   3.770  11.419 -0.3150  0.7972 -0.3401
 6575TIP3   OH243919   0.026   6.076  10.493  0.3831  0.2129 -0.0140
 6575TIP3    H143920   0.038   6.014  10.421  0.0737  0.6811 -0.4789
 6575TIP3    H243921  -0.062   6.058  10.526  0.3859  0.2414  0.0093
 6576TIP3   OH243922   1.061   6.249   9.034  0.1331  0.1841 -0.5544
 6576TIP3    H143923   1.078   6.312   9.104  0.5146 -0.6623  0.1306
 6576TIP3    H243924   1.148   6.220   9.006 -0.0188 -2.0489  1.0245
 6577TIP3   OH243925   5.665   1.857  10.895 -0.2891  0.7340 -0.3564
 6577TIP3    H143926   5.616   1.776  10.881  1.5947 -0.3517 -1.0764
 6577TIP3    H243927   5.624   1.921  10.838 -1.6897  0.2467  0.0759
 6578TIP3   OH243928   0.398   4.577  10.665 -0.3966 -0.4443  0.3403
 6578TIP3    H143929   0.303   4.585  10.667 -0.5829 -2.0081  3.5891
 6578TIP3    H243930   0.417   4.500  10.719  2.7278 -0.1290 -0.1407
 6579TIP3   OH243931   3.866   3.451  11.166  0.0777 -0.2853  0.2938
 6579TIP3    H143932   3.782   3.408  11.150 -0.0139 -0.3565  0.9315
 6579TIP3    H243933   3.845   3.521  11.228  0.5424 -0.5066  0.7061
 6580TIP3   OH243934   6.212   1.211  10.293 -0.5258  0.2281  0.6265
 6580TIP3    H143935   6.181   1.121  10.282  0.1026 -0.1173  1.5893
 6580TIP3    H243936   6.306   1.203  10.309 -0.4769  1.0434  0.8037
 6581TIP3   OH243937   0.463   2.067  11.766  0.3006 -0.1811 -0.7809
 6581TIP3    H143938   0.402   2.109  11.707 -0.0575  0.5415  0.0699
 6581TIP3    H243939   0.421   2.072  11.852  0.6868 -1.4314 -0.5041
 6582TIP3   OH243940   1.284   3.833   9.911  0.2355  0.1661 -0.2229
 6582TIP3    H143941   1.361   3.779   9.927 -0.2056 -0.1462  0.9776
 6582TIP3    H243942   1.268   3.826   9.817  1.4918  0.0096 -0.4455
 6583TIP3   OH243943   6.398   1.203   9.772 -0.2171 -0.4538 -0.1330
 6583TIP3    H143944   6.361   1.230   9.856  0.5324  0.4372 -0.0871
 6583TIP3    H243945   6.375   1.273   9.712  1.1646 -0.0059 -0.1635
 6584TIP3   OH243946   5.601   0.360   9.549 -0.5226 -0.3872 -0.2732
 6584TIP3    H143947   5.685   0.404   9.539 -0.5245 -0.0020  1.1035
 6584TIP3    H243948   5.621   0.267   9.546 -0.4789 -0.3772 -2.9631
 6585TIP3   OH243949   0.316   1.013   9.465 -0.0765 -0.1291  0.1796
 6585TIP3    H143950   0.308   1.099   9.423  1.2675 -0.4963 -0.8934
 6585TIP3    H243951   0.408   0.990   9.456 -0.0239 -0.8768  2.1244
 6586TIP3   OH243952   3.192   5.877  12.374  0.1707  0.3023 -0.3266
 6586TIP3    H143953   3.104   5.862  12.410 -0.1906 -1.1553 -1.7417
 6586TIP3    H243954   3.179   5.942  12.306  0.2153  0.1952 -0.4374
 6587TIP3   OH243955   4.769   2.932  11.051 -0.0981 -0.1216  0.0815
 6587TIP3    H143956   4.863   2.916  11.038 -0.1182 -1.9786  1.8082
 6587TIP3    H243957   4.738   2.960  10.965  2.0227  0.5587 -0.5405
 6588TIP3   OH243958   4.587   0.008  10.560  0.2892 -0.1057 -0.1080
 6588TIP3    H143959   4.599  -0.063  10.497  0.4389  0.5736 -0.8785
 6588TIP3    H243960   4.508   0.053  10.530  0.3527  0.2148  0.1973
 6589TIP3   OH243961   4.828   1.812   9.398  0.7068 -0.2026 -0.2130
 6589TIP3    H143962   4.744   1.770   9.414  0.7698 -0.6694 -1.0611
 6589TIP3    H243963   4.891   1.740   9.397  1.1605  0.1626  0.6256
 6590TIP3   OH243964   6.183   1.416  12.331 -0.3662  0.3522  0.1247
 6590TIP3    H143965   6.155   1.436  12.420 -2.6443  0.4640 -0.5404
 6590TIP3    H243966   6.191   1.321  12.328 -0.8173  0.3090  0.3100
 6591TIP3   OH243967   1.075   4.810  10.789  0.2744 -0.7414 -0.4790
 6591TIP3    H143968   1.037   4.757  10.718  2.0569 -4.0486  0.7943
 6591TIP3    H243969   1.168   4.792  10.784  0.9121  1.8674  0.5512
 6592TIP3   OH243970   6.208   2.134  10.386 -0.2355 -0.4035  0.2114
 6592TIP3    H143971   6.155   2.065  10.427 -0.2358 -0.6778 -0.2435
 6592TIP3    H243972   6.155   2.164  10.313  0.3493 -0.8789 -0.4254
 6593TIP3   OH243973   6.542   2.471   9.216  0.0020 -0.4136  0.0517
 6593TIP3    H143974   6.453   2.436   9.215  0.3884 -1.5279  1.2516
 6593TIP3    H243975   6.579   2.440   9.299  1.3702  0.3924 -0.2187
 6594TIP3   OH243976   5.683   2.438   9.390  0.4340 -0.4021 -0.4087
 6594TIP3    H143977   5.744   2.492   9.340  1.5381 -0.1925  1.1045
 6594TIP3    H243978   5.683   2.353   9.346 -1.8810  0.9250 -3.2703
 6595TIP3   OH243979   3.724   3.286  12.382 -0.2560  0.3066  0.3436
 6595TIP3    H143980   3.815   3.286  12.414 -0.0859  0.1423 -0.1276
 6595TIP3    H243981   3.671   3.280  12.461  0.1447  0.3940  0.6266
 6596TIP3   OH243982   6.423   6.733  11.598 -0.3162 -0.5413 -0.2248
 6596TIP3    H143983   6.374   6.798  11.547 -2.0916 -0.1328  1.8332
 6596TIP3    H243984   6.507   6.727  11.554 -0.5616  2.1846 -1.2869
 6597TIP3   OH243985   0.782   1.825  11.477  0.5751 -0.2559  0.5732
 6597TIP3    H143986   0.754   1.860  11.561 -0.7536  0.6725 -0.2173
 6597TIP3    H243987   0.701   1.808  11.429  1.1593  3.5011 -2.2109
 6598TIP3   OH243988   4.794   4.952   9.914  0.1734 -0.4591 -0.3390
 6598TIP3    H143989   4.848   4.892   9.862  1.5273  0.1893  0.2596
 6598TIP3    H243990   4.716   4.902   9.936  0.8145 -1.6506 -0.6913
 6599TIP3   OH243991   5.995   0.090  10.106  0.4877 -0.2908 -0.0934
 6599TIP3    H143992   5.946   0.148  10.048  1.4732  0.2218 -0.4301
 6599TIP3    H243993   6.050   0.038  10.047  0.2115 -0.9983  0.2626
 6600TIP3   OH243994   1.830   4.938  11.884 -0.0971 -0.0545 -0.6414
 6600TIP3    H143995   1.814   4.967  11.973 -1.2408  0.0568 -0.8605
 6600TIP3    H243996   1.835   4.843  11.890 -1.8212 -0.1862 -0.6524
 6601TIP3   OH243997   1.300   1.262  11.298 -0.2729  0.3433 -0.1167
 6601TIP3    H143998   1.299   1.171  11.267  2.1594  0.4993 -0.8533
 6601TIP3    H243999   1.209   1.291  11.289 -0.9711 -1.7902 -0.5427
 6602TIP3   OH244000   3.482   4.179  11.185 -0.1366  0.5568  0.1481
 6602TIP3    H144001   3.415   4.160  11.250 -1.2661 -1.7191 -1.5452
 6602TIP3    H244002   3.537   4.101  11.183  1.5647  1.6847  0.2634
 6603TIP3   OH244003   0.283   2.114  10.626 -0.1145  0.2290 -0.1465
 6603TIP3    H144004   0.230   2.079  10.554  1.1638  1.3044 -1.6919
 6603TIP3    H244005   0.292   2.207  10.606  0.4458  0.5074  1.3187
 6604TIP3   OH244006   0.582   1.538  10.263  0.4842  0.0817 -0.2616
 6604TIP3    H144007   0.606   1.615  10.313 -0.1600  0.9128 -1.1839
 6604TIP3    H244008   0.489   1.523  10.283  0.9185 -1.2224  0.8775
 6605TIP3   OH244009   1.899   1.650  11.423 -0.3700  0.1932 -0.3087
 6605TIP3    H144010   1.957   1.727  11.421  1.2622 -0.9904 -1.1350
 6605TIP3    H244011   1.821   1.677  11.375 -0.0904  1.5202 -0.0572
 6606TIP3   OH244012   6.160   1.095  12.015  0.0769 -0.7722  0.4059
 6606TIP3    H144013   6.181   1.024  11.955  1.8603 -0.5284  0.6744
 6606TIP3    H244014   6.161   1.054  12.102 -1.6538 -0.9559  0.3590
 6607TIP3   OH244015   5.013   5.144  10.910  0.0235 -0.1381  0.1126
 6607TIP3    H144016   5.052   5.066  10.949  0.9250  0.6274  0.7769
 6607TIP3    H244017   5.081   5.180  10.853  0.4515  1.3398  1.4645
 6608TIP3   OH244018   0.056   1.682  11.053 -1.0242  0.2145  0.5796
 6608TIP3    H144019  -0.018   1.625  11.031  0.5256 -0.8800 -2.4751
 6608TIP3    H244020   0.048   1.757  10.994  0.6162 -0.2953 -0.3696
 6609TIP3   OH244021   4.065   3.568  11.354 -0.0151  0.2600 -0.0277
 6609TIP3    H144022   4.009   3.580  11.431  1.0813  0.1839  0.8028
 6609TIP3    H244023   4.005   3.539  11.286 -0.8130 -1.0989  1.1850
 6610TIP3   OH244024   2.660   3.257  18.763  0.3044 -0.2859 -0.5290
 6610TIP3    H144025   2.619   3.232  18.846  1.2485  1.4244  0.5375
 6610TIP3    H244026   2.603   3.221  18.696  0.0847 -2.6776  0.8317
 6611TIP3   OH244027   6.469   3.061  12.524  0.7465  0.1283  0.4908
 6611TIP3    H144028   6.421   2.978  12.527  1.7068 -0.4729 -0.1741
 6611TIP3    H244029   6.474   3.089  12.616  0.6149 -0.6740  0.7531
 6612TIP3   OH244030   5.584   3.881   9.143  0.0840 -0.4081  0.5257
 6612TIP3    H144031   5.499   3.842   9.160  0.5833 -1.7915  0.0328
 6612TIP3    H244032   5.647   3.819   9.181  0.9947 -1.0923 -1.9040
 6613TIP3   OH244033   4.453   2.397  11.169  0.4556 -0.2740 -0.1181
 6613TIP3    H144034   4.470   2.478  11.217 -0.6421 -0.3676  0.4791
 6613TIP3    H244035   4.425   2.335  11.237  0.1958 -0.8162 -0.7085
 6614TIP3   OH244036   1.223   4.236  12.167  0.0483  0.0989  0.0091
 6614TIP3    H144037   1.187   4.164  12.116 -0.9564 -0.7832  1.8403
 6614TIP3    H244038   1.318   4.219  12.168 -0.1615 -1.1910  0.3363
 6615TIP3   OH244039   2.039   5.814  11.850  0.0280 -0.5858  0.1941
 6615TIP3    H144040   1.944   5.827  11.850  0.1065  0.0399  0.8563
 6615TIP3    H244041   2.066   5.843  11.763 -0.1194  1.4757  0.7909
 6616TIP3   OH244042   1.480   4.879   9.269  0.2550  0.2110  0.1790
 6616TIP3    H144043   1.448   4.915   9.351  2.1745  2.8845 -0.0995
 6616TIP3    H244044   1.484   4.954   9.210 -1.0384 -1.6035 -2.4129
 6617TIP3   OH244045   3.648   2.733  10.293  0.1265  0.3355 -0.7617
 6617TIP3    H144046   3.631   2.640  10.309 -0.6717  0.5596 -0.2661
 6617TIP3    H244047   3.734   2.734  10.251 -0.6184 -0.7653 -2.4068
 6618TIP3   OH244048   1.086   4.310  10.201 -0.2962 -0.4900 -0.6795
 6618TIP3    H144049   1.003   4.325  10.247 -0.6243  1.1022 -1.7122
 6618TIP3    H244050   1.153   4.319  10.268 -0.8594  0.0065 -0.1795
 6619TIP3   OH244051   2.660   3.757   9.943 -0.2358  0.4858 -0.5460
 6619TIP3    H144052   2.636   3.817   9.872  0.9349  0.1107 -1.2970
 6619TIP3    H244053   2.639   3.670   9.908  0.2092  0.3071 -0.3713
 6620TIP3   OH244054   0.714   5.860  11.583  0.2691  0.1322 -0.4192
 6620TIP3    H144055   0.785   5.925  11.584 -0.2451  0.7083 -0.2877
 6620TIP3    H244056   0.637   5.909  11.612 -0.1152 -0.5664 -0.2328
 6621TIP3   OH244057   3.251   5.110  10.973 -0.8712 -0.3860  0.0749
 6621TIP3    H144058   3.269   5.202  10.989 -0.8358 -0.1266 -1.3519
 6621TIP3    H244059   3.328   5.064  11.006  0.4081  0.3444 -1.7607
 6622TIP3   OH244060   1.094   5.620   9.477 -0.4623  0.0572 -0.4187
 6622TIP3    H144061   1.063   5.668   9.400 -1.3561  0.3362  0.1043
 6622TIP3    H244062   1.114   5.687   9.541  1.1773 -0.1260 -0.7013
 6623TIP3   OH244063   3.923   3.128  10.404 -0.8869  0.0253  0.1957
 6623TIP3    H144064   3.857   3.066  10.436 -0.4866  0.2949  1.6314
 6623TIP3    H244065   3.956   3.170  10.483 -1.3723  2.3245 -0.7627
 6624TIP3   OH244066   0.184   0.509  10.329  0.3082  0.6121 -0.6497
 6624TIP3    H144067   0.094   0.542  10.330  0.5673  1.3440 -0.3847
 6624TIP3    H244068   0.188   0.454  10.251 -1.5822 -3.0173  1.5413
 6625TIP3   OH244069   5.665   0.340  11.353  0.7131  0.7929  0.8551
 6625TIP3    H144070   5.745   0.390  11.339  2.3433 -1.7087  0.6608
 6625TIP3    H244071   5.632   0.321  11.265  0.9251  0.3060  0.8764
 6626TIP3   OH244072   5.187   3.317  10.960 -0.1921 -0.1074  0.0784
 6626TIP3    H144073   5.246   3.381  10.921 -2.1883  1.1841 -0.9803
 6626TIP3    H244074   5.167   3.352  11.047 -1.1269  0.6601 -0.4240
 6627TIP3   OH244075   3.827   4.490  10.449 -0.3989  0.0621  0.1056
 6627TIP3    H144076   3.892   4.443  10.501 -0.5055 -1.1757 -0.8555
 6627TIP3    H244077   3.865   4.577  10.436  0.8563 -0.5059 -0.0824
 6628TIP3   OH244078   0.752   5.294  12.897 -0.0111  0.7639  0.0903
 6628TIP3    H144079   0.778   5.262  12.984  3.6183  0.2035 -1.0253
 6628TIP3    H244080   0.714   5.217  12.855  1.5334 -0.0294  0.0481
 6629TIP3   OH244081   0.887   2.625  10.482 -0.1646 -0.3054  0.4479
 6629TIP3    H144082   0.791   2.625  10.484 -0.1571 -0.5574  1.3593
 6629TIP3    H244083   0.909   2.602  10.392 -0.9656 -0.8008  0.3671
 6630TIP3   OH244084   1.805   1.751  12.139 -0.2502  0.2371  0.0861
 6630TIP3    H144085   1.835   1.783  12.224 -0.9122 -0.4107  0.5683
 6630TIP3    H244086   1.734   1.810  12.115  0.5568  1.0100 -0.4819
 6631TIP3   OH244087   4.280   3.384  12.160 -0.2210 -0.6473 -0.2071
 6631TIP3    H144088   4.187   3.380  12.182 -0.2465  2.0243  0.5792
 6631TIP3    H244089   4.306   3.293  12.146 -2.3986 -1.6998  1.8831
 6632TIP3   OH244090   6.365   2.555   9.533 -0.0491 -0.0070  0.0380
 6632TIP3    H144091   6.428   2.561   9.605 -1.0640 -0.2276  0.9710
 6632TIP3    H244092   6.341   2.462   9.530 -3.8638  0.5847  2.9388
 6633TIP3   OH244093   1.616   4.494   9.773  0.3200  0.3470  0.1005
 6633TIP3    H144094   1.667   4.446   9.708 -0.2461 -0.2302  0.0717
 6633TIP3    H244095   1.660   4.475   9.856  0.0705 -0.2879  0.0971
 6634TIP3   OH244096   5.755   0.125  10.383 -0.3338  0.0410 -0.3097
 6634TIP3    H144097   5.769   0.218  10.401  0.8340  0.0106 -0.9799
 6634TIP3    H244098   5.682   0.101  10.440 -1.2819  1.5804 -0.7793
 6635TIP3   OH244099   0.375   2.493  12.237 -0.2334  0.4813 -0.0179
 6635TIP3    H144100   0.464   2.466  12.214 -0.2080  1.4095 -1.0696
 6635TIP3    H244101   0.364   2.578  12.195 -2.0998 -0.2248 -1.0765
 6636TIP3   OH244102   0.131   5.823  11.838 -0.0166 -0.0868  0.0209
 6636TIP3    H144103   0.133   5.728  11.853  1.0922 -0.3229 -1.4115
 6636TIP3    H244104   0.086   5.833  11.754  0.0065  0.6493  0.0903
 6637TIP3   OH244105   6.514   1.897  10.498  0.3403 -0.2917  0.2262
 6637TIP3    H144106   6.563   1.857  10.569  0.1519  1.4015  1.3712
 6637TIP3    H244107   6.425   1.907  10.531  0.0153 -0.3238 -0.5977
 6638TIP3   OH244108   0.156   3.266   9.830 -0.1123  0.0475 -0.6679
 6638TIP3    H144109   0.127   3.294   9.743  1.8023  0.5181 -1.2206
 6638TIP3    H244110   0.207   3.340   9.863  1.0754 -0.9753 -0.1215
 6639TIP3   OH244111   6.623   3.510   9.479  0.4319  0.8540  0.1601
 6639TIP3    H144112   6.551   3.530   9.418  1.2229  0.4285 -0.9429
 6639TIP3    H244113   6.588   3.441   9.535  0.4105 -0.3739 -1.2872
 6640TIP3   OH244114   4.334   1.636  12.796 -0.5727 -0.0520  0.3084
 6640TIP3    H144115   4.284   1.718  12.792 -0.1597  0.2193  0.5700
 6640TIP3    H244116   4.311   1.598  12.880 -1.8209 -0.9060 -0.3836
 6641TIP3   OH244117   3.478   6.456  11.638 -0.1827 -0.1159  0.2125
 6641TIP3    H144118   3.466   6.383  11.699  0.8844 -2.1103 -1.8122
 6641TIP3    H244119   3.405   6.450  11.577  0.2712  0.0580 -0.3676
 6642TIP3   OH244120   0.657   2.280  12.725 -0.1658  0.1561  0.2357
 6642TIP3    H144121   0.705   2.292  12.807 -1.0844 -0.7571  0.9421
 6642TIP3    H244122   0.603   2.203  12.740 -0.5351  0.1118 -1.1596
 6643TIP3   OH244123   5.949   6.569  10.630 -0.3249 -0.2804 -0.0322
 6643TIP3    H144124   6.022   6.630  10.629  0.1300 -0.7702 -2.3249
 6643TIP3    H244125   5.969   6.508  10.700  0.8791  0.2746  0.1246
 6644TIP3   OH244126   1.215   3.307  12.719  0.0232  0.1627  0.2900
 6644TIP3    H144127   1.251   3.249  12.786  3.5581  2.7703  0.9518
 6644TIP3    H244128   1.291   3.333  12.666 -1.6679  2.6251 -1.1319
 6645TIP3   OH244129   6.061   0.724  10.430 -0.8179  0.1844 -0.3244
 6645TIP3    H144130   6.088   0.715  10.521  1.0869  0.7046 -0.7779
 6645TIP3    H244131   6.133   0.685  10.380 -1.3687  0.7711 -1.6355
 6646TIP3   OH244132   1.550   5.263  11.076 -0.3187 -0.9124 -0.0224
 6646TIP3    H144133   1.505   5.330  11.025 -1.4103 -1.5258  0.1076
 6646TIP3    H244134   1.601   5.214  11.011  0.5199  0.0492 -0.1115
 6647TIP3   OH244135   5.340   0.031  10.054  0.1786 -0.0399 -0.4856
 6647TIP3    H144136   5.295   0.013  10.137  0.2188 -0.0626 -0.4682
 6647TIP3    H244137   5.388  -0.050  10.035  0.2908  0.0190 -0.4536
 6648TIP3   OH244138   2.037   6.260  10.445 -0.2150 -0.2143  0.0103
 6648TIP3    H144139   2.011   6.249  10.353 -0.4228  0.0437  0.0396
 6648TIP3    H244140   2.131   6.240  10.445  0.2312  1.7099 -0.6119
 6649TIP3   OH244141   5.261   2.233  10.190  0.2473 -0.3259  0.1141
 6649TIP3    H144142   5.180   2.184  10.207  0.8976 -1.0572  1.2133
 6649TIP3    H244143   5.236   2.298  10.124 -0.6866 -2.0385 -1.3014
 6650TIP3   OH244144   0.028   3.690   9.057 -0.4412 -0.1119  0.0422
 6650TIP3    H144145   0.096   3.629   9.027 -0.5443  0.3818 -1.2510
 6650TIP3    H244146   0.077   3.760   9.101 -0.1886 -0.3040  0.0686
 6651TIP3   OH244147   5.635   3.120  11.891 -0.4560  0.0523  0.1631
 6651TIP3    H144148   5.593   3.087  11.970  0.8782  0.1511  0.9517
 6651TIP3    H244149   5.641   3.215  11.905  0.5859 -0.0296  0.3766
 6652TIP3   OH244150   5.914   4.109  10.595 -0.3194 -0.4424 -0.0534
 6652TIP3    H144151   5.923   4.071  10.508  0.5453 -1.6824  0.5454
 6652TIP3    H244152   5.826   4.082  10.623  0.4760 -2.6092  0.5855
 6653TIP3   OH244153   0.934   0.148  11.128  0.0645 -0.4664  0.2513
 6653TIP3    H144154   0.975   0.224  11.169 -0.6986  1.0740 -1.6658
 6653TIP3    H244155   0.842   0.155  11.152  0.0136 -0.8848  0.1874
 6654TIP3   OH244156   0.041   3.650  12.518 -0.1252  0.5680 -0.2937
 6654TIP3    H144157   0.018   3.721  12.578 -0.6176 -0.3032  0.5743
 6654TIP3    H244158   0.127   3.622  12.547 -0.6731 -0.3444  0.5112
 6655TIP3   OH244159   5.150   6.439   9.470  0.5681 -0.0223  0.4295
 6655TIP3    H144160   5.140   6.375   9.540 -0.8230 -2.1427 -1.5649
 6655TIP3    H244161   5.102   6.516   9.502 -2.2772 -1.8225  0.8632
 6656TIP3   OH244162   0.840   4.748  10.084  0.2630  0.0116  0.1369
 6656TIP3    H144163   0.792   4.825  10.116 -0.9638 -0.4644 -0.5111
 6656TIP3    H244164   0.896   4.782  10.014  0.6249  0.5120  0.6600
 6657TIP3   OH244165   5.130   2.401  10.802  0.0869 -0.5397 -0.1960
 6657TIP3    H144166   5.177   2.361  10.876 -0.0418 -0.6915 -0.1955
 6657TIP3    H244167   5.148   2.343  10.728  0.6248 -0.1155 -0.3999
 6658TIP3   OH244168   4.397   6.198  11.284 -0.3601 -0.2861 -0.6409
 6658TIP3    H144169   4.332   6.128  11.277 -0.8844  0.2770 -1.6323
 6658TIP3    H244170   4.376   6.244  11.365 -1.1114 -0.2027 -0.8775
 6659TIP3   OH244171   6.375   3.570  10.632  0.3888 -0.4418  0.3811
 6659TIP3    H144172   6.324   3.500  10.592 -0.5741  0.0823  0.6545
 6659TIP3    H244173   6.450   3.526  10.672  0.1200 -1.2382  0.0252
 6660TIP3   OH244174   2.260   2.164  12.820 -0.4257  0.1910 -0.7175
 6660TIP3    H144175   2.311   2.245  12.812  0.4409 -0.1779  0.6988
 6660TIP3    H244176   2.177   2.192  12.861 -0.4219  0.4620 -0.8906
 6661TIP3   OH244177   3.146   2.315  11.671 -0.1439  0.1693  0.0019
 6661TIP3    H144178   3.060   2.273  11.680 -0.2279  0.3367 -0.0056
 6661TIP3    H244179   3.142   2.360  11.587 -0.1693  0.4538  0.1560
 6662TIP3   OH244180   6.542   2.389  11.743  0.3562  0.0362 -0.2639
 6662TIP3    H144181   6.586   2.318  11.789  1.2390  1.2666  0.8772
 6662TIP3    H244182   6.568   2.379  11.651  2.6425  0.4191  0.2986
 6663TIP3   OH244183   6.668   2.142  12.745  0.1092  0.4264  0.1164
 6663TIP3    H144184   6.690   2.234  12.752  2.3920 -0.1142  0.7691
 6663TIP3    H244185   6.574   2.141  12.726  0.1620  2.8683 -0.5470
 6664TIP3   OH244186   0.319   3.720  12.213  0.5311 -0.3752  0.3771
 6664TIP3    H144187   0.232   3.691  12.241  0.5991 -1.0220 -0.0449
 6664TIP3    H244188   0.333   3.803  12.258 -0.4314 -0.1112  0.2113
 6665TIP3   OH244189   6.021   4.703  12.847 -0.8492  0.1030  0.6112
 6665TIP3    H144190   6.021   4.612  12.819  0.1445 -0.1890  1.5018
 6665TIP3    H244191   6.113   4.722  12.867 -1.1962  0.9593  1.4677
 6666TIP3   OH244192   5.974   6.246  11.094  0.3786 -0.0105 -0.6351
 6666TIP3    H144193   5.942   6.157  11.076  0.8539 -0.2985 -0.1099
 6666TIP3    H244194   5.896   6.301  11.094 -0.1235 -0.6806  0.5490
 6667TIP3   OH244195   1.950   3.342  10.634 -0.1311  0.0000 -0.4249
 6667TIP3    H144196   1.952   3.305  10.545 -0.3544  1.1415 -0.9282
 6667TIP3    H244197   1.990   3.429  10.624 -2.8352  1.4019 -0.0265
 6668TIP3   OH244198   1.456   3.391  11.576  0.3573  0.0809  0.5263
 6668TIP3    H144199   1.372   3.377  11.619  0.0754 -0.8201 -0.2854
 6668TIP3    H244200   1.435   3.395  11.483  1.2796 -0.8041  0.2623
 6669TIP3   OH244201   1.511   5.127  11.999  0.3792 -0.2149  0.1855
 6669TIP3    H144202   1.571   5.100  12.069 -1.5306  0.2123  2.0854
 6669TIP3    H244203   1.569   5.161  11.931  2.4054 -1.8535  0.9689
 6670TIP3   OH244204   5.512   5.104   9.862  0.0201  0.4499  0.0964
 6670TIP3    H144205   5.484   5.170   9.925  0.7590  0.6907  0.1793
 6670TIP3    H244206   5.562   5.153   9.797 -2.7326  0.6455 -2.0758
 6671TIP3   OH244207   1.549   0.700  11.070  0.2699 -0.4840 -0.1894
 6671TIP3    H144208   1.621   0.718  11.130 -1.0067 -0.0711  1.2894
 6671TIP3    H244209   1.490   0.643  11.120 -0.8687 -0.0829 -1.0293
 6672TIP3   OH244210   2.960   4.769  10.896 -0.5917 -0.4260 -0.3235
 6672TIP3    H144211   2.955   4.840  10.960  0.8969  0.0849 -0.7151
 6672TIP3    H244212   2.926   4.692  10.942  0.1941 -0.0219  1.0129
 6673TIP3   OH244213   1.927   3.671  11.209  0.5529  0.0354  0.0953
 6673TIP3    H144214   1.863   3.599  11.201  0.1652  0.4681 -0.9808
 6673TIP3    H244215   1.911   3.725  11.132  0.6336  1.4587  1.0407
 6674TIP3   OH244216   1.373   3.350  10.262  0.1351  0.0191 -0.2661
 6674TIP3    H144217   1.426   3.357  10.183  0.2001  0.1207 -0.2139
 6674TIP3    H244218   1.432   3.311  10.327 -0.3113 -1.3127 -0.6354
 6675TIP3   OH244219   5.115   3.554  10.249 -0.3962  0.3412  0.2130
 6675TIP3    H144220   5.087   3.463  10.238 -0.3094  0.2282  0.8609
 6675TIP3    H244221   5.185   3.565  10.184 -0.1959 -0.1510  0.3352
 6676TIP3   OH244222   1.867   0.083  12.325 -0.5286 -0.5592 -0.4747
 6676TIP3    H144223   1.858   0.144  12.252  0.1661  1.3907  0.9723
 6676TIP3    H244224   1.926   0.127  12.386 -0.3689 -2.5062  0.8726
 6677TIP3   OH244225   1.114   0.465  10.573  0.3787 -0.0424 -0.6021
 6677TIP3    H144226   1.075   0.398  10.629 -0.7149  1.4376  0.4803
 6677TIP3    H244227   1.047   0.482  10.506  0.9817 -0.5737 -1.3577
 6678TIP3   OH244228   5.159   4.193   9.264  0.4395 -0.0352  0.3140
 6678TIP3    H144229   5.067   4.214   9.247  0.5975 -0.0097 -0.5479
 6678TIP3    H244230   5.157   4.135   9.340 -0.4833 -1.8402 -0.9911
 6679TIP3   OH244231   2.332   5.218  10.313  0.1565 -0.3445 -0.2925
 6679TIP3    H144232   2.421   5.211  10.278  0.0015  0.6557 -0.9300
 6679TIP3    H244233   2.275   5.206  10.237 -0.2378 -0.1827 -0.0268
 6680TIP3   OH244234   5.559   2.771  12.995  0.6330 -0.5453 -0.0718
 6680TIP3    H144235   5.611   2.840  12.953  2.3789 -1.0985  1.0941
 6680TIP3    H244236   5.592   2.689  12.958  0.1186 -0.8772  0.1944
 6681TIP3   OH244237   4.062   2.391  11.434  0.0016  0.0928 -0.2057
 6681TIP3    H144238   4.023   2.418  11.518  1.1128  0.0009  0.3600
 6681TIP3    H244239   4.053   2.296  11.434 -1.3047  0.1930 -0.8759
 6682TIP3   OH244240   3.046   0.477  10.781 -0.0006  0.1690 -0.1510
 6682TIP3    H144241   3.058   0.403  10.721  1.6790  1.0086 -0.9221
 6682TIP3    H244242   2.956   0.506  10.766  0.2156  0.0265 -1.8783
 6683TIP3   OH244243   0.242   2.630  13.182 -0.3229  0.0294 -0.1549
 6683TIP3    H144244   0.182   2.559  13.159 -2.8814  2.0759 -0.3403
 6683TIP3    H244245   0.329   2.593  13.169 -1.5134 -2.8710 -0.7430
 6684TIP3   OH244246   5.185   3.819   9.687  0.3633 -0.3635  0.6201
 6684TIP3    H144247   5.272   3.781   9.674  0.2703 -0.1514 -0.7772
 6684TIP3    H244248   5.182   3.840   9.780  2.0775  0.2651  0.5760
 6685TIP3   OH244249   1.653   5.444   9.595  0.1490 -0.3397 -0.2378
 6685TIP3    H144250   1.719   5.477   9.533 -0.1908  0.2349 -0.2971
 6685TIP3    H244251   1.590   5.398   9.540  0.3039 -0.5720 -0.2216
 6686TIP3   OH244252   0.894   0.819   9.442 -0.3422 -0.2285 -0.5225
 6686TIP3    H144253   0.961   0.844   9.506 -1.3836  0.9776  0.1390
 6686TIP3    H244254   0.925   0.855   9.359 -0.9097  1.7430  0.0768
 6687TIP3   OH244255   0.678   0.618  12.254 -0.1036 -0.3177  0.1955
 6687TIP3    H144256   0.724   0.599  12.335 -1.2629 -1.7843  0.5742
 6687TIP3    H244257   0.746   0.623  12.187  0.8188  0.4033  1.1697
 6688TIP3   OH244258   4.372   0.038  12.051 -0.4782  0.4917  0.2083
 6688TIP3    H144259   4.399   0.003  12.136  0.4912  0.2429 -0.2034
 6688TIP3    H244260   4.291  -0.008  12.031  0.9910 -1.9134 -0.5457
 6689TIP3   OH244261   4.568   5.583  11.989  0.1855 -0.2372 -0.0213
 6689TIP3    H144262   4.619   5.663  11.973  0.1689 -0.0796  0.6565
 6689TIP3    H244263   4.552   5.584  12.084 -0.1732 -0.8317 -0.0712
 6690TIP3   OH244264   0.058   6.512  11.290  0.0087 -0.3837  0.5121
 6690TIP3    H144265  -0.030   6.536  11.262  0.1113  2.2146  2.1156
 6690TIP3    H244266   0.059   6.531  11.384  2.3153 -0.1844  0.4932
 6691TIP3   OH244267   2.295   3.385   9.649  0.1350 -0.2579 -0.1688
 6691TIP3    H144268   2.259   3.430   9.725  1.3339  0.3849  0.0426
 6691TIP3    H244269   2.372   3.339   9.683  0.6791  0.0290 -0.9915
 6692TIP3   OH244270   1.798   6.432  11.463 -0.6247  0.3321 -0.4894
 6692TIP3    H144271   1.761   6.506  11.511  0.1516  2.0224 -2.3362
 6692TIP3    H244272   1.893   6.439  11.477 -0.5142 -0.0987 -0.9766
 6693TIP3   OH244273   2.368   4.376   9.261  0.2668 -0.4856  0.7937
 6693TIP3    H144274   2.377   4.323   9.182 -3.3610  1.6782 -1.3269
 6693TIP3    H244275   2.419   4.455   9.243 -2.5241  1.1086 -0.6366
 6694TIP3   OH244276   1.232   6.032  10.320  0.4937 -0.3552  0.2023
 6694TIP3    H144277   1.209   5.975  10.393  1.6616  0.1889  1.0282
 6694TIP3    H244278   1.167   6.103  10.325 -0.1123 -0.8943  0.0223
 6695TIP3   OH244279   5.075   3.020  10.268 -0.4784  0.5677 -0.5856
 6695TIP3    H144280   5.129   2.968  10.327 -0.4641  0.6068 -0.5639
 6695TIP3    H244281   5.121   3.104  10.260 -0.4156  0.5181 -0.7515
 6696TIP3   OH244282   0.116   1.861  10.845  0.3674  0.3855 -0.3307
 6696TIP3    H144283   0.211   1.869  10.849  0.2767  1.2219  0.3479
 6696TIP3    H244284   0.084   1.949  10.859 -0.5299  0.0251 -0.0633
 6697TIP3   OH244285   6.452   6.214   9.489 -0.2466 -0.6211  0.0031
 6697TIP3    H144286   6.548   6.215   9.485 -0.0925 -0.6680  2.2026
 6697TIP3    H244287   6.430   6.121   9.492 -0.2626 -0.5975  0.7354
 6698TIP3   OH244288   0.990   6.692   9.959 -0.2447 -0.4863  0.1456
 6698TIP3    H144289   0.947   6.777   9.959 -1.6712 -1.1487 -0.7280
 6698TIP3    H244290   1.078   6.708   9.992  0.1206  1.6160 -1.6492
 6699TIP3   OH244291   2.759   2.648   9.256 -0.5672  0.1795 -0.2455
 6699TIP3    H144292   2.713   2.571   9.288 -0.0730 -0.1181 -0.2427
 6699TIP3    H244293   2.846   2.642   9.296 -0.5262  0.7337 -0.2486
 6700TIP3   OH244294   2.013   4.246  11.085 -0.2049 -0.0175  0.1474
 6700TIP3    H144295   2.041   4.337  11.088 -1.5118  0.4137  2.3130
 6700TIP3    H244296   1.990   4.230  10.994 -0.0961  1.8851 -0.2466
 6701TIP3   OH244297   6.473   0.119  10.672 -0.1651 -0.4023  0.1996
 6701TIP3    H144298   6.493   0.173  10.596  2.6007  0.1236  1.1905
 6701TIP3    H244299   6.481   0.029  10.640  3.0055 -0.2227  0.2027
 6702TIP3   OH244300   5.261   2.769  12.831  0.5808  0.1677  0.0405
 6702TIP3    H144301   5.202   2.702  12.863 -0.9714  1.0989 -0.7481
 6702TIP3    H244302   5.313   2.794  12.908  0.4228 -1.1160  0.5914
 6703TIP3   OH244303   4.560   4.705   9.747 -0.0961 -0.0231 -0.3724
 6703TIP3    H144304   4.540   4.736   9.835  0.0933  0.1996 -0.4089
 6703TIP3    H244305   4.656   4.700   9.744  0.0753  2.4770 -1.4143
 6704TIP3   OH244306   1.564   6.654  10.709 -0.4710 -0.0905 -0.7271
 6704TIP3    H144307   1.485   6.637  10.761  0.5486 -0.1126  0.8890
 6704TIP3    H244308   1.586   6.745  10.728  0.3239 -0.3141 -0.5427
 6705TIP3   OH244309   6.173   4.513   9.574  0.4776  0.8135 -0.5575
 6705TIP3    H144310   6.153   4.577   9.506 -0.1205  0.4355 -0.7435
 6705TIP3    H244311   6.108   4.444   9.562  0.4516  0.6756  0.3099
 6706TIP3   OH244312   3.583   4.546   9.788  0.6652  0.2785 -0.6026
 6706TIP3    H144313   3.659   4.603   9.775  1.5574 -1.0693 -1.5605
 6706TIP3    H244314   3.591   4.516   9.878  1.7634 -0.4809 -0.9260
 6707TIP3   OH244315   0.847   5.728   9.574 -0.2053 -0.2621 -0.0607
 6707TIP3    H144316   0.827   5.659   9.511 -2.6626 -0.3321  0.7044
 6707TIP3    H244317   0.852   5.808   9.523  2.4514 -0.8763 -0.9282
 6708TIP3   OH244318   3.940   2.396  12.155 -0.1218  0.1216  0.0603
 6708TIP3    H144319   4.031   2.419  12.139 -0.0728 -1.1457 -1.8461
 6708TIP3    H244320   3.940   2.351  12.239  0.9606  0.4173  0.2242
 6709TIP3   OH244321   3.786   4.419   9.323 -0.4904  0.0154 -0.2826
 6709TIP3    H144322   3.864   4.460   9.286 -0.1080 -1.1009 -0.7784
 6709TIP3    H244323   3.787   4.330   9.287 -0.8436 -0.6939  1.3745
 6710TIP3   OH244324   6.444   0.432  10.957 -0.0381 -0.5040  0.5999
 6710TIP3    H144325   6.448   0.519  10.997  2.6111 -0.6115  0.7694
 6710TIP3    H244326   6.491   0.375  11.018 -0.3170 -1.7163 -0.2850
 6711TIP3   OH244327   6.087   4.446  10.020  0.0022 -0.0841  0.3989
 6711TIP3    H144328   6.044   4.444   9.934 -0.0444 -1.2596  0.4369
 6711TIP3    H244329   6.019   4.475  10.080 -0.6733 -1.5852  0.3994
 6712TIP3   OH244330   1.927   1.937  10.255  0.0557  0.3967 -0.7898
 6712TIP3    H144331   1.860   1.888  10.301 -0.3231  2.8879  1.6101
 6712TIP3    H244332   2.008   1.919  10.304  0.2260  0.8538 -0.8928
 6713TIP3   OH244333   1.211   6.464  10.156  0.4336  0.0335 -0.7014
 6713TIP3    H144334   1.122   6.461  10.189  1.3922  0.2782  2.1703
 6713TIP3    H244335   1.216   6.546  10.107 -0.3442  1.1855  1.0598
 6714TIP3   OH244336   6.516   4.477  11.150 -0.0857 -0.0003 -0.3175
 6714TIP3    H144337   6.602   4.476  11.193  0.0279  1.4933 -0.4275
 6714TIP3    H244338   6.498   4.571  11.138 -1.6533 -0.3043 -0.4459
 6715TIP3   OH244339   0.187   4.738  11.100  0.3740  0.3900 -0.3001
 6715TIP3    H144340   0.268   4.738  11.048  1.5930  0.2050  1.5014
 6715TIP3    H244341   0.131   4.802  11.056  1.5832  0.6924 -1.4808
 6716TIP3   OH244342   0.604   3.503   8.788 -0.1819 -0.5926  0.0348
 6716TIP3    H144343   0.674   3.537   8.731 -1.2395 -1.3426 -1.7859
 6716TIP3    H244344   0.649   3.448   8.852  1.2694  1.8729  1.2844
 6717TIP3   OH244345   4.817   1.464  11.403  0.5927 -0.3794  0.3943
 6717TIP3    H144346   4.908   1.484  11.384  1.2477 -0.1831  3.3323
 6717TIP3    H244347   4.788   1.534  11.461 -2.0044  0.4647 -1.7372
 6718TIP3   OH244348   2.945   6.506  10.138  0.1495  0.3255  0.4512
 6718TIP3    H144349   2.969   6.448  10.209  0.8833  1.6139  1.3022
 6718TIP3    H244350   3.014   6.495  10.072 -1.0339 -1.5826 -0.5589
 6719TIP3   OH244351   4.523   6.427  12.767  0.1987 -0.1885 -0.3400
 6719TIP3    H144352   4.609   6.448  12.803  0.2978 -0.0012 -0.6789
 6719TIP3    H244353   4.476   6.384  12.839  0.0233  1.1174  0.3540
 6720TIP3   OH244354   0.336   1.875   9.374  0.3998 -0.5217 -0.3437
 6720TIP3    H144355   0.407   1.829   9.416 -0.6853 -1.4864  0.4905
 6720TIP3    H244356   0.270   1.886   9.442 -1.0714 -1.4241 -1.5650
 6721TIP3   OH244357   1.454   0.426  11.768  0.4637  0.1286  0.3547
 6721TIP3    H144358   1.528   0.407  11.825  0.6228  1.4912  0.6585
 6721TIP3    H244359   1.376   0.405  11.820  0.6203  0.7545  0.8591
 6722TIP3   OH244360   4.660   1.267  10.114 -0.0905 -0.2160  0.1753
 6722TIP3    H144361   4.620   1.344  10.153 -0.7785  0.3110 -1.4601
 6722TIP3    H244362   4.723   1.301  10.051 -0.7247 -0.9303 -0.8975
 6723TIP3   OH244363   5.735   1.444  10.531  0.7087 -0.0070  0.3554
 6723TIP3    H144364   5.676   1.433  10.605  1.7181  0.7560  1.3021
 6723TIP3    H244365   5.809   1.387  10.550  0.2786 -1.0101 -0.8571
 6724TIP3   OH244366   4.318   5.902  10.703 -0.4457  0.0666  0.0134
 6724TIP3    H144367   4.249   5.935  10.760 -0.3005  0.8304 -0.2419
 6724TIP3    H244368   4.319   5.962  10.629  0.1479 -0.2343 -0.2305
 6725TIP3   OH244369   2.057   1.202  10.222  0.4061 -0.5657 -0.1451
 6725TIP3    H144370   1.983   1.165  10.174  0.2259 -0.8623  0.3585
 6725TIP3    H244371   2.092   1.130  10.273  1.1838 -0.4808 -0.5399
 6726TIP3   OH244372   3.706   0.881  11.248  0.9611  0.4567  0.0537
 6726TIP3    H144373   3.651   0.945  11.294 -1.0919 -0.7194 -0.6326
 6726TIP3    H244374   3.743   0.929  11.174  1.3370  1.4173  0.8503
 6727TIP3   OH244375   3.399   0.878  11.049  0.6186 -0.2975  0.0428
 6727TIP3    H144376   3.400   0.901  10.956  1.7772 -1.9800 -0.3968
 6727TIP3    H244377   3.470   0.929  11.087 -0.5316  1.2233  0.2750
 6728TIP3   OH244378   5.073   5.121   9.955 -0.1891  0.4316  0.1711
 6728TIP3    H144379   5.041   5.108  10.045 -2.1143  0.4233 -0.4760
 6728TIP3    H244380   5.051   5.212   9.935  1.8845  1.0082  0.2948
 6729TIP3   OH244381   1.393   6.236  10.460  0.2755  0.0851  0.0732
 6729TIP3    H144382   1.483   6.206  10.444  1.0186  3.1788 -2.4449
 6729TIP3    H244383   1.338   6.177  10.408  1.2734  0.5999 -1.6045
 6730TIP3   OH244384   2.587   3.879   8.989 -0.8694  0.0121 -0.5553
 6730TIP3    H144385   2.516   3.837   9.037  0.2472  0.5228  1.6317
 6730TIP3    H244386   2.563   3.972   8.987 -0.8917  0.0024 -0.9971
 6731TIP3   OH244387   0.332   0.100  12.264  0.2203  0.1533  0.4528
 6731TIP3    H144388   0.261   0.142  12.314  0.7944  1.7497 -0.0173
 6731TIP3    H244389   0.374   0.041  12.327 -1.1554 -0.4041  0.8965
 6732TIP3   OH244390   1.037   4.916  11.093  0.1767  0.3999  0.5130
 6732TIP3    H144391   0.997   4.873  11.169 -0.3491  0.2785  0.1710
 6732TIP3    H244392   1.056   4.845  11.032 -0.0562  0.5738  0.2358
 6733TIP3   OH244393   5.984   6.398  11.878 -0.5133  0.2286 -0.2361
 6733TIP3    H144394   5.964   6.470  11.937 -0.6772  0.3252 -0.4087
 6733TIP3    H244395   5.902   6.381  11.831 -0.8098 -0.8543  0.6340
 6734TIP3   OH244396   2.301   1.739  10.256 -0.0666 -0.0965  0.4917
 6734TIP3    H144397   2.206   1.755  10.259 -0.0336 -0.0058  1.0097
 6734TIP3    H244398   2.337   1.820  10.219 -0.3370 -0.7503 -1.3098
 6735TIP3   OH244399   5.413   4.431  10.281  0.1251 -0.4519  0.4055
 6735TIP3    H144400   5.423   4.434  10.377  1.0717  0.2964  0.3053
 6735TIP3    H244401   5.319   4.427  10.267 -0.1550  1.4638  1.3536
 6736TIP3   OH244402   5.429   6.427   9.407  0.5269 -0.2608 -0.3917
 6736TIP3    H144403   5.394   6.486   9.341 -0.7136 -0.2454  0.2574
 6736TIP3    H244404   5.353   6.386   9.447  1.0526  1.0367  2.2341
 6737TIP3   OH244405   0.950   2.282  10.740  0.3225 -0.3674  0.2056
 6737TIP3    H144406   0.954   2.215  10.809 -0.5486  0.2228  0.8582
 6737TIP3    H244407   1.036   2.323  10.741 -0.0723  0.5673  1.9508
 6738TIP3   OH244408   2.193   1.799  11.092  0.3917 -0.2255  0.0405
 6738TIP3    H144409   2.149   1.847  11.022 -0.1175 -0.1358  0.4092
 6738TIP3    H244410   2.144   1.717  11.099  0.3839 -0.1965  0.3439
 6739TIP3   OH244411   3.489   3.307  10.770 -0.5191  0.4730 -0.8568
 6739TIP3    H144412   3.517   3.387  10.813 -0.6505  0.6522 -1.1061
 6739TIP3    H244413   3.492   3.240  10.839  2.7936 -0.0510 -1.3427
 6740TIP3   OH244414   5.969   4.157  11.216 -0.5700 -0.6495  0.0833
 6740TIP3    H144415   5.947   4.115  11.300 -0.9642  1.5850  1.1694
 6740TIP3    H244416   6.036   4.221  11.238 -0.8644  0.1552 -1.2713
 6741TIP3   OH244417   2.963   3.352  10.302 -0.3061  0.3084 -0.5078
 6741TIP3    H144418   2.977   3.274  10.355 -0.3965 -0.0356 -0.9772
 6741TIP3    H244419   2.899   3.403  10.351 -0.3916 -0.0066 -0.2869
 6742TIP3   OH244420   0.322   2.899  10.255 -0.2167 -0.2692 -0.6539
 6742TIP3    H144421   0.303   2.923  10.164 -0.6009  0.5081 -0.3781
 6742TIP3    H244422   0.405   2.943  10.274  0.6321 -1.6291 -1.0755
 6743TIP3   OH244423   4.739   1.009  10.190 -0.6673 -0.2818 -0.1230
 6743TIP3    H144424   4.674   1.079  10.182  1.0304  1.3430 -0.2528
 6743TIP3    H244425   4.755   0.980  10.100 -0.7734 -0.2951 -0.1383
 6744TIP3   OH244426   4.619   0.981  12.390  0.1600  0.1255  0.1012
 6744TIP3    H144427   4.554   1.010  12.326  0.4484  3.1022  0.9924
 6744TIP3    H244428   4.568   0.964  12.469  0.1832 -0.2394  0.0402
 6745TIP3   OH244429   5.018   3.515  10.777  0.0268 -0.9154  0.0590
 6745TIP3    H144430   5.018   3.438  10.720 -2.3156 -1.7208  1.0124
 6745TIP3    H244431   5.060   3.486  10.858  0.2595 -0.8012 -0.0188
 6746TIP3   OH244432   0.537   5.499  10.674  0.1301  0.3947  0.1615
 6746TIP3    H144433   0.459   5.524  10.624  0.2311  0.7090  0.1616
 6746TIP3    H244434   0.544   5.405  10.661 -0.1977  0.3785  0.0859
 6747TIP3   OH244435   2.209   4.990  11.308  0.1628  0.4787 -0.8690
 6747TIP3    H144436   2.285   4.956  11.354  0.1238 -0.2355 -1.3090
 6747TIP3    H244437   2.191   4.925  11.240 -1.5095  0.0573 -0.0803
 6748TIP3   OH244438   6.689   6.273  10.932  0.4055  0.0707 -0.0712
 6748TIP3    H144439   6.679   6.271  10.837  2.0438 -1.8121 -0.2670
 6748TIP3    H244440   6.618   6.217  10.964  0.5680 -0.2706 -0.2914
 6749TIP3   OH244441   1.725   2.754  10.606  0.2175 -0.2707 -0.6061
 6749TIP3    H144442   1.749   2.789  10.692  0.5792 -0.0981 -0.7743
 6749TIP3    H244443   1.681   2.672  10.626 -0.0221 -0.0569 -0.2390
 6750TIP3   OH244444   1.560   5.883   9.209 -0.6799 -0.0190 -0.1965
 6750TIP3    H144445   1.525   5.824   9.143 -0.6761  0.5726 -0.7316
 6750TIP3    H244446   1.608   5.825   9.270  0.0389 -0.4752 -1.1700
 6751TIP3   OH244447   3.172   6.070  12.141  0.6128 -0.0412 -0.2181
 6751TIP3    H144448   3.185   6.119  12.060  0.7592 -0.5976 -0.5373
 6751TIP3    H244449   3.260   6.066  12.181  1.2761 -2.5960 -1.6844
 6752TIP3   OH244450   1.354   3.729  11.510 -0.1181  0.1564  0.8414
 6752TIP3    H144451   1.294   3.697  11.578  1.6094 -1.9835  1.4880
 6752TIP3    H244452   1.369   3.653  11.454  1.0116  0.9951 -0.0368
 6753TIP3   OH244453   6.435   1.967  11.727 -0.0657  0.3418  0.0049
 6753TIP3    H144454   6.460   1.984  11.818  0.5097 -2.7270  0.5560
 6753TIP3    H244455   6.501   2.013  11.675  0.3996  1.0472  1.1789
 6754TIP3   OH244456   5.146   1.033  11.993 -0.7466  0.7581  0.3191
 6754TIP3    H144457   5.120   0.991  11.912 -0.8914 -0.8571  1.1589
 6754TIP3    H244458   5.095   0.988  12.061  0.3467  1.1463  1.4346
 6755TIP3   OH244459   3.051   4.419  11.371  0.1796  0.2668  0.1140
 6755TIP3    H144460   3.017   4.493  11.419 -1.7641 -0.0970 -0.6208
 6755TIP3    H244461   3.035   4.440  11.279  0.4985 -0.6372 -0.1648
 6756TIP3   OH244462   2.270   1.172  10.416  0.2666 -0.0759 -0.4527
 6756TIP3    H144463   2.254   1.255  10.371  0.9479  0.3608  0.0945
 6756TIP3    H244464   2.364   1.156  10.403  0.1273 -0.7967 -0.6150
 6757TIP3   OH244465   3.434   2.937  11.649 -0.2316  0.0825  0.2896
 6757TIP3    H144466   3.510   2.993  11.666 -0.6943  0.9616 -0.4489
 6757TIP3    H244467   3.455   2.854  11.692  0.2355  0.9793  1.8512
 6758TIP3   OH244468   1.427   4.208   9.379 -0.4244  0.7125 -0.1136
 6758TIP3    H144469   1.366   4.281   9.387  0.6141  1.5743  0.3462
 6758TIP3    H244470   1.436   4.175   9.469  1.4554  2.0503  0.2439
 6759TIP3   OH244471   5.235   0.687  10.244 -0.4428  0.0906 -0.3420
 6759TIP3    H144472   5.316   0.650  10.279  0.5207  0.9157 -1.6350
 6759TIP3    H244473   5.193   0.728  10.320 -0.4833 -1.7168  0.6695
 6760TIP3   OH244474   1.954   0.845   9.612 -0.0881 -0.1240 -0.0032
 6760TIP3    H144475   1.962   0.902   9.535  2.0696  1.4275  1.2641
 6760TIP3    H244476   1.892   0.778   9.585  0.8451  0.1408 -3.2387
 6761TIP3   OH244477   5.036   1.914  10.005  0.0229 -0.2899  0.5243
 6761TIP3    H144478   4.975   1.857  10.051 -1.0528  1.5106  1.4495
 6761TIP3    H244479   5.042   1.992  10.060  0.8324  0.8157 -1.0556
 6762TIP3   OH244480   4.859   0.123  12.145  0.0877  0.3311  1.0895
 6762TIP3    H144481   4.926   0.106  12.211 -0.5008 -0.8238  1.4145
 6762TIP3    H244482   4.787   0.164  12.193  0.5652  1.6303  0.7295
 6763TIP3   OH244483   4.809   1.739  10.666 -0.0848  0.0160  0.6434
 6763TIP3    H144484   4.724   1.722  10.624 -0.1432  0.1096  0.7238
 6763TIP3    H244485   4.855   1.656  10.659  0.0922  0.1638 -0.0272
 6764TIP3   OH244486   0.582   4.458  12.018 -0.0737 -0.4445  0.2835
 6764TIP3    H144487   0.544   4.370  12.025 -0.7157 -0.2081 -0.1557
 6764TIP3    H244488   0.519   4.515  12.063 -0.7607  0.0947 -1.2985
 6765TIP3   OH244489   1.675   5.983   9.495  0.3825 -0.2355  0.1691
 6765TIP3    H144490   1.676   5.888   9.484  0.3034 -0.0253 -2.0949
 6765TIP3    H244491   1.673   6.018   9.406 -1.8396  1.8812  0.9323
 6766TIP3   OH244492   2.984   5.285  12.141  0.2459 -0.1566 -0.3890
 6766TIP3    H144493   3.026   5.312  12.223  0.2550  0.3781 -0.5668
 6766TIP3    H244494   2.892   5.273  12.164  0.3435 -0.5209 -0.1837
 6767TIP3   OH244495   0.162   3.752  10.493  0.2336 -0.1562  0.8478
 6767TIP3    H144496   0.085   3.771  10.440  0.7696 -1.1479 -0.3436
 6767TIP3    H244497   0.163   3.821  10.559 -0.9109  0.6596  0.0622
 6768TIP3   OH244498   5.070   6.510  10.117  0.4102 -0.3657 -0.6100
 6768TIP3    H144499   5.102   6.543  10.201  0.5703  0.2020 -0.8892
 6768TIP3    H244500   5.124   6.433  10.099 -0.0760 -0.8871  0.1301
 6769TIP3   OH244501   0.869   0.983  11.164 -0.0954  0.2215  0.4072
 6769TIP3    H144502   0.924   0.911  11.134  0.0761  0.7617 -0.6353
 6769TIP3    H244503   0.844   1.029  11.083  1.7574  2.7450  1.1437
 6770TIP3   OH244504   3.691   4.010   9.717  0.2901 -0.0968  0.0865
 6770TIP3    H144505   3.722   3.921   9.703  0.3213 -0.4063  1.8583
 6770TIP3    H244506   3.615   4.019   9.660  1.6000 -0.4623 -1.8025
 6771TIP3   OH244507   3.532   3.707   9.987 -0.9816 -0.0385  0.4193
 6771TIP3    H144508   3.596   3.690   9.918 -1.1706  3.3944 -0.8302
 6771TIP3    H244509   3.582   3.699  10.069  0.4554  0.2490 -0.3909
 6772TIP3   OH244510   0.718   4.662   9.584 -0.1738  0.5372  0.2725
 6772TIP3    H144511   0.744   4.736   9.529 -0.9662  1.1406  0.6986
 6772TIP3    H244512   0.791   4.651   9.645  0.6813 -0.0878 -0.8258
 6773TIP3   OH244513   4.099   5.044   9.832  0.0484 -0.0889  0.2859
 6773TIP3    H144514   4.114   5.124   9.882 -1.0084 -0.0051  0.4859
 6773TIP3    H244515   4.107   4.974   9.896  3.5829 -0.4216 -0.3389
 6774TIP3   OH244516   4.917   5.268  11.165  0.2656 -0.2745 -0.2765
 6774TIP3    H144517   4.950   5.231  11.083  0.3383 -0.1912 -0.2843
 6774TIP3    H244518   4.827   5.236  11.171  0.6495 -1.2870  0.2254
 6775TIP3   OH244519   4.203   2.488  10.319 -0.1337  0.2089  0.3131
 6775TIP3    H144520   4.241   2.402  10.335  0.5038  0.2428 -0.9037
 6775TIP3    H244521   4.117   2.470  10.283 -0.1139  0.0825  0.3291
 6776TIP3   OH244522   2.579   3.302  10.365 -0.2050 -0.4748 -0.2909
 6776TIP3    H144523   2.651   3.364  10.373  2.6869 -3.2056 -2.3594
 6776TIP3    H244524   2.535   3.304  10.450  0.0032  3.7885 -0.0724
 6777TIP3   OH244525   6.603   3.451  10.701  0.5503  0.1183 -0.5820
 6777TIP3    H144526   6.594   3.378  10.763  1.5401  0.5147  0.0604
 6777TIP3    H244527   6.661   3.513  10.746  0.8242  0.6795 -1.6834
 6778TIP3   OH244528   5.841   3.300  11.784  0.0184  0.0043  0.4129
 6778TIP3    H144529   5.937   3.298  11.787  0.0006 -0.5417  0.7781
 6778TIP3    H244530   5.815   3.213  11.813 -0.5902  0.1356  0.2661
 6779TIP3   OH244531   5.055   4.713  10.979 -0.0152 -0.6525  0.2688
 6779TIP3    H144532   5.008   4.630  10.964 -0.3245 -0.3566 -0.4947
 6779TIP3    H244533   5.056   4.724  11.074 -2.2015 -0.3012  0.3055
 6780TIP3   OH244534   6.546   6.305  12.484 -0.1514  0.2729  0.1034
 6780TIP3    H144535   6.535   6.394  12.519  0.2284 -0.6687  2.8801
 6780TIP3    H244536   6.464   6.261  12.505  0.3833 -0.5511  0.5265
 6781TIP3   OH244537   2.963   5.664   9.491  0.2789 -0.3941  0.0369
 6781TIP3    H144538   3.029   5.700   9.432  0.5438  1.1635  1.2257
 6781TIP3    H244539   2.931   5.739   9.541 -0.0227 -1.6080  1.7761
 6782TIP3   OH244540   0.436   4.363  11.372 -0.2379  0.2844  0.1115
 6782TIP3    H144541   0.386   4.441  11.394  0.1872  0.5492  0.1482
 6782TIP3    H244542   0.527   4.388  11.384 -0.0741 -0.0816 -0.3091
 6783TIP3   OH244543   5.710   5.106  11.018 -0.5648 -0.1776  0.0769
 6783TIP3    H144544   5.640   5.122  10.954 -2.8273 -2.2765  1.8120
 6783TIP3    H244545   5.699   5.175  11.084 -0.9370 -0.4138  0.2681
 6784TIP3   OH244546   6.723   5.648  11.030 -0.0153 -0.0720  0.6173
 6784TIP3    H144547   6.660   5.579  11.011 -0.0134 -0.1014  0.7190
 6784TIP3    H244548   6.710   5.713  10.961  0.2232 -0.3406  0.3186
 6785TIP3   OH244549   2.313   2.879   9.421  0.3474  0.4393 -0.6703
 6785TIP3    H144550   2.254   2.928   9.478  1.8964  0.2374  1.2414
 6785TIP3    H244551   2.370   2.946   9.383  1.5749  0.3447  0.8665
 6786TIP3   OH244552   3.077   2.606  11.213  0.3874  0.4295 -0.0701
 6786TIP3    H144553   3.103   2.570  11.128  0.6582  2.2833 -0.8342
 6786TIP3    H244554   3.070   2.700  11.197 -2.2086  0.5504  1.2793
 6787TIP3   OH244555   6.046   3.102  11.833 -0.3689  0.0445  0.0109
 6787TIP3    H144556   6.077   3.024  11.787 -0.9937 -0.6157  0.6962
 6787TIP3    H244557   6.123   3.160  11.835  0.3231 -0.8556  0.1644
 6788TIP3   OH244558   1.054   0.717  11.106  0.3417  0.1082  0.0318
 6788TIP3    H144559   1.132   0.663  11.094  1.3156  1.3745  0.5076
 6788TIP3    H244560   0.982   0.654  11.110  0.9232 -0.9693 -3.3252
 6789TIP3   OH244561   3.885   0.526   9.519 -0.6554  0.0439 -0.0984
 6789TIP3    H144562   3.861   0.449   9.468 -1.4364  0.7898 -0.8963
 6789TIP3    H244563   3.801   0.565   9.545 -0.2865 -0.3239  1.7920
 6790TIP3   OH244564   4.626   5.435  10.213 -0.0531 -0.0233  0.1789
 6790TIP3    H144565   4.546   5.472  10.251 -0.3614 -0.1960 -0.2900
 6790TIP3    H244566   4.596   5.357  10.166  0.0881  0.9590 -1.6367
 6791TIP3   OH244567   4.956   5.428  11.983 -0.3738 -0.0742 -0.1089
 6791TIP3    H144568   5.000   5.451  12.065  1.2999 -2.2320 -0.2827
 6791TIP3    H244569   4.973   5.334  11.973 -2.8499 -0.4537 -1.5919
 6792TIP3   OH244570   6.016   1.993  11.745 -0.0407 -0.0534  0.1200
 6792TIP3    H144571   6.097   2.037  11.771  0.3416 -0.3548 -0.5489
 6792TIP3    H244572   5.951   2.064  11.741  0.2024  0.1982  0.5857
 6793TIP3   OH244573   2.903   4.154  12.573 -0.1991 -0.1840  0.6425
 6793TIP3    H144574   2.886   4.241  12.537 -0.9446  0.1812  1.8030
 6793TIP3    H244575   2.989   4.130  12.538 -0.2101  0.7926 -0.1084
 6794TIP3   OH244576   0.422   0.913  11.989 -0.3940  0.0485 -0.1206
 6794TIP3    H144577   0.434   0.834  11.937  0.5106 -0.9492  1.5159
 6794TIP3    H244578   0.337   0.902  12.030 -0.8742  0.5921 -0.9354
 6795TIP3   OH244579   0.539   1.618   9.091  0.2871  0.0927 -0.2185
 6795TIP3    H144580   0.601   1.588   9.157 -0.5991 -0.2967  0.4632
 6795TIP3    H244581   0.574   1.701   9.060  0.7292  0.2624  0.7301
 6796TIP3   OH244582   0.687   2.231  10.420 -0.4805 -0.1636  0.1140
 6796TIP3    H144583   0.750   2.284  10.468  0.2845 -0.9674  0.0443
 6796TIP3    H244584   0.742   2.171  10.368 -1.3018 -0.6123 -0.2581
 6797TIP3   OH244585   6.637   2.154  10.491  0.2081 -0.4030  0.0050
 6797TIP3    H144586   6.568   2.221  10.498  0.3063 -0.0661 -1.8523
 6797TIP3    H244587   6.593   2.072  10.512 -1.2633 -0.4367 -2.7945
 6798TIP3   OH244588   6.659   3.157   9.780  0.3290 -0.4244  0.2441
 6798TIP3    H144589   6.685   3.071   9.746  1.0127  0.7328 -2.4260
 6798TIP3    H244590   6.741   3.197   9.809  0.1585 -0.2808  0.5298
 6799TIP3   OH244591   2.137   3.041  12.859 -0.0470  0.1619  0.2130
 6799TIP3    H144592   2.087   3.090  12.793 -1.1137 -0.6971  0.3373
 6799TIP3    H244593   2.082   3.044  12.937  0.9511  0.7029  0.9154
 6800TIP3   OH244594   2.918   4.380  10.961  0.0507  0.8830  0.2162
 6800TIP3    H144595   2.937   4.334  10.879 -2.0050  0.2144  0.0541
 6800TIP3    H244596   2.977   4.340  11.025  0.1560 -0.1294 -0.4919
 6801TIP3   OH244597   1.726   6.524  11.048  0.3811 -0.1181  0.4169
 6801TIP3    H144598   1.724   6.609  11.092 -1.8392 -0.0282  0.2651
 6801TIP3    H244599   1.750   6.545  10.958 -1.6192  0.6327 -0.0118
 6802TIP3   OH244600   2.043   5.314  12.178 -0.0511 -1.0983 -0.3983
 6802TIP3    H144601   1.994   5.384  12.222  1.0318 -0.4795 -0.1307
 6802TIP3    H244602   2.034   5.238  12.236 -1.1979 -1.1853 -0.6650
 6803TIP3   OH244603   1.273   4.024  10.339 -0.0326  0.8499 -0.0116
 6803TIP3    H144604   1.207   4.068  10.393 -0.7185  1.1309 -1.0643
 6803TIP3    H244605   1.339   4.091  10.322  0.9763  0.3732  1.6764
 6804TIP3   OH244606   6.364   4.189   9.558 -0.5353 -0.7363  0.1272
 6804TIP3    H144607   6.301   4.247   9.600  0.1356 -0.5030  0.8504
 6804TIP3    H244608   6.438   4.187   9.619  0.1385 -1.0255 -0.6832
 6805TIP3   OH244609   0.395   5.027  10.190  0.7073  0.0048  0.4537
 6805TIP3    H144610   0.404   5.050  10.282  0.3769  1.2116  0.1998
 6805TIP3    H244611   0.446   5.093  10.143  2.2571 -1.5476 -0.1639
 6806TIP3   OH244612   3.533   0.294  10.438  0.4325 -0.4967 -0.1314
 6806TIP3    H144613   3.627   0.273  10.435  0.5571 -0.1439  1.0204
 6806TIP3    H244614   3.492   0.213  10.467  0.7057  0.1457  2.2574
 6807TIP3   OH244615   1.722   3.459  11.256  0.3372 -0.4724 -0.1987
 6807TIP3    H144616   1.741   3.386  11.316  0.1742 -1.4830 -1.3336
 6807TIP3    H244617   1.655   3.425  11.198  0.6224  0.4209 -1.0762
 6808TIP3   OH244618   2.428   0.098   9.773  0.4796  0.1743  0.1147
 6808TIP3    H144619   2.386   0.037   9.834  0.9174  0.1073  0.3526
 6808TIP3    H244620   2.392   0.184   9.796 -2.5071 -0.3004 -2.2110
 6809TIP3   OH244621   2.852   5.341  11.761  0.2608  0.3645 -0.4592
 6809TIP3    H144622   2.933   5.339  11.812 -0.4449 -0.8477  0.6638
 6809TIP3    H244623   2.868   5.281  11.689 -0.0038 -0.7440  0.3804
 6810TIP3   OH244624   6.243   2.852  12.827 -0.0383 -0.1152  0.3345
 6810TIP3    H144625   6.184   2.899  12.886  0.4787  0.1805  0.6158
 6810TIP3    H244626   6.227   2.759  12.846 -0.2404 -0.0306  0.5754
 6811TIP3   OH244627   2.853   2.022  12.131  0.4278  0.1498 -0.0750
 6811TIP3    H144628   2.893   1.997  12.048  0.7535  0.0694  0.1040
 6811TIP3    H244629   2.763   2.047  12.108  0.7520  0.9004 -0.5625
 6812TIP3   OH244630   0.004   3.993  10.623 -0.1273 -0.7044 -0.2257
 6812TIP3    H144631   0.013   4.040  10.705  0.3713 -0.1891 -0.5652
 6812TIP3    H244632  -0.061   3.925  10.641 -0.6812 -0.0446  0.3452
 6813TIP3   OH244633   3.838   5.044  11.533 -0.2931  0.1648  0.4909
 6813TIP3    H144634   3.838   4.998  11.449  0.3626  0.1764  0.4838
 6813TIP3    H244635   3.920   5.094  11.534 -1.2062  1.7543  0.2788
 6814TIP3   OH244636   3.918   6.706  10.583  0.0171  0.5002  0.5986
 6814TIP3    H144637   3.945   6.719  10.674 -0.2262 -1.3153  0.9835
 6814TIP3    H244638   3.838   6.654  10.590  1.0477 -1.3994 -0.6349
 6815TIP3   OH244639   2.817   1.206  11.182  0.7158  0.3635 -0.0382
 6815TIP3    H144640   2.901   1.166  11.205  0.1992  0.2195  1.7134
 6815TIP3    H244641   2.827   1.230  11.089  2.0305 -1.3049 -0.3872
 6816TIP3   OH244642   1.047   1.942   9.594 -0.0927 -0.4563  0.5344
 6816TIP3    H144643   1.009   1.869   9.644  0.3307 -0.2875  1.1101
 6816TIP3    H244644   1.140   1.922   9.590  0.1123  0.3096  1.1536
 6817TIP3   OH244645   4.972   6.088   9.633  0.4993  0.9404  0.1718
 6817TIP3    H144646   4.881   6.110   9.655  0.3302 -0.5637  1.1697
 6817TIP3    H244647   4.969   6.067   9.540  0.2192  2.6811 -0.2432
 6818TIP3   OH244648   1.113   3.137   9.863 -0.2097  0.0001 -0.5540
 6818TIP3    H144649   1.078   3.084   9.934 -0.2963  0.2737 -0.3892
 6818TIP3    H244650   1.205   3.150   9.887  0.8335 -3.0579 -2.3694
 6819TIP3   OH244651   0.268   5.293   9.842 -0.2650 -0.6170 -0.2691
 6819TIP3    H144652   0.260   5.299   9.747  0.0397 -0.8294 -0.3079
 6819TIP3    H244653   0.218   5.215   9.865  0.0153 -0.8071 -0.3011
 6820TIP3   OH244654   0.132   2.595  10.004  0.0463  0.3978  0.0423
 6820TIP3    H144655   0.038   2.607   9.991 -0.3139 -0.4583  1.5803
 6820TIP3    H244656   0.173   2.667   9.956 -1.4569  1.4127  0.2249
 6821TIP3   OH244657   2.511   3.936   9.659  0.0408 -0.1321  0.0914
 6821TIP3    H144658   2.479   3.923   9.570  0.4874  1.1852 -0.2865
 6821TIP3    H244659   2.602   3.906   9.656  0.5222  1.2434 -0.3243
 6822TIP3   OH244660   3.932   6.611  10.049  0.2234 -0.4811  0.1372
 6822TIP3    H144661   3.838   6.625  10.055  0.3814  0.1318  1.5616
 6822TIP3    H244662   3.968   6.657  10.125  1.7619  0.1084 -0.9064
 6823TIP3   OH244663   4.823   2.337  10.951 -0.8820  0.1557 -0.0541
 6823TIP3    H144664   4.775   2.418  10.962 -0.2193  0.3940  1.1985
 6823TIP3    H244665   4.911   2.356  10.983 -1.2813 -1.6289  2.3779
 6824TIP3   OH244666   2.690   1.655  18.077 -0.2775 -0.5926 -0.3536
 6824TIP3    H144667   2.719   1.697  17.996 -0.1100  0.5380  0.2737
 6824TIP3    H244668   2.717   1.715  18.147  0.3211 -1.9469  0.6175
 6825TIP3   OH244669   3.713   4.253  10.771  0.1335  0.3407  0.6586
 6825TIP3    H144670   3.636   4.304  10.795  1.2379  2.3116  0.1848
 6825TIP3    H244671   3.785   4.315  10.772  1.8046 -1.4940  1.3202
 6826TIP3   OH244672   5.046   1.816  10.400 -0.7547  0.1646 -0.2031
 6826TIP3    H144673   5.017   1.807  10.491 -0.6766  0.7083 -0.1215
 6826TIP3    H244674   5.141   1.832  10.407 -1.3125  4.7095 -0.0651
 6827TIP3   OH244675   0.696   6.453  11.010 -0.6410 -0.3508 -0.0152
 6827TIP3    H144676   0.645   6.413  11.081 -0.8975 -2.4470 -1.3133
 6827TIP3    H244677   0.740   6.380  10.968  1.0131  1.0718 -0.8767
 6828TIP3   OH244678   1.776   2.139   9.132 -0.4353 -0.2129 -0.1505
 6828TIP3    H144679   1.714   2.210   9.117  0.7829  0.9434  0.1561
 6828TIP3    H244680   1.738   2.090   9.205 -0.4830  1.1032  0.7354
 6829TIP3   OH244681   1.422   1.510  12.019 -0.1617  0.1327  0.0349
 6829TIP3    H144682   1.328   1.499  12.035 -0.2213  2.2910  1.6320
 6829TIP3    H244683   1.460   1.425  12.041 -1.6460 -0.4624  0.4037
 6830TIP3   OH244684   2.584   3.779  12.401 -0.3233  0.4799 -0.2490
 6830TIP3    H144685   2.623   3.692  12.398 -1.5509 -0.1231  0.5002
 6830TIP3    H244686   2.614   3.816  12.483 -0.9533  0.1754  0.1305
 6831TIP3   OH244687   1.752   3.203  10.419 -0.2039 -0.4785  0.4419
 6831TIP3    H144688   1.730   3.296  10.427  1.8645  0.1617 -0.5454
 6831TIP3    H244689   1.673   3.162  10.384 -0.3712  1.3757 -1.5426
 6832TIP3   OH244690   1.935   6.182   9.819 -0.2651  0.4533 -0.2902
 6832TIP3    H144691   2.000   6.113   9.834  0.8469  1.2070 -1.4561
 6832TIP3    H244692   1.962   6.254   9.875 -1.0270  0.2292  0.3965
 6833TIP3   OH244693   3.379   5.212   9.202  0.0923  0.4890 -0.3717
 6833TIP3    H144694   3.348   5.261   9.125  0.3373  0.2850 -0.6019
 6833TIP3    H244695   3.343   5.260   9.277  1.3813  1.7999 -0.5426
 6834TIP3   OH244696   1.170   1.678  10.949 -0.4388 -0.5571 -0.1167
 6834TIP3    H144697   1.262   1.668  10.972 -0.0233 -0.0754 -1.4464
 6834TIP3    H244698   1.123   1.632  11.018  0.7116  0.4263  1.3720
 6835TIP3   OH244699   2.494   4.045  10.641 -0.4680 -0.1944  1.0470
 6835TIP3    H144700   2.436   4.098  10.695  0.7228  1.4424  0.7845
 6835TIP3    H244701   2.437   4.011  10.571 -1.3405  0.3517  1.4779
 6836TIP3   OH244702   5.043   5.929  11.233  0.0951 -0.6411 -0.4582
 6836TIP3    H144703   5.055   5.887  11.318  2.4402 -0.3640 -0.5886
 6836TIP3    H244704   4.948   5.933  11.221 -0.3863  0.4285  2.7077
 6837TIP3   OH244705   1.436   1.732  11.821 -0.4141 -0.4027  0.3092
 6837TIP3    H144706   1.446   1.820  11.857  0.2712 -0.4175  0.1501
 6837TIP3    H244707   1.443   1.674  11.898 -0.1240 -0.3665  0.3072
 6838TIP3   OH244708   5.446   4.895  10.483  0.5013  0.1204 -0.0983
 6838TIP3    H144709   5.378   4.850  10.432 -0.7051 -0.1897  1.7099
 6838TIP3    H244710   5.510   4.922  10.417 -1.1941  0.1532 -1.8357
 6839TIP3   OH244711   0.075   2.442   9.140  0.2273  0.5468 -0.4568
 6839TIP3    H144712   0.103   2.516   9.086 -1.2641  0.6550 -1.1409
 6839TIP3    H244713  -0.018   2.459   9.156  0.1634 -0.5661  0.3984
 6840TIP3   OH244714   3.638   2.452  10.358  0.1842  0.4471  0.2112
 6840TIP3    H144715   3.612   2.461  10.449  1.7277 -0.2726  0.7602
 6840TIP3    H244716   3.642   2.357  10.343  1.9440  0.5193  0.0329
 6841TIP3   OH244717   2.908   5.734  10.146 -0.0561 -0.5331  0.7476
 6841TIP3    H144718   2.915   5.828  10.163  0.8691 -0.4285 -0.1571
 6841TIP3    H244719   2.910   5.726  10.051  0.0227 -1.4845  0.8197
 6842TIP3   OH244720   6.609   6.542  10.919  0.4869 -0.5712 -0.4934
 6842TIP3    H144721   6.519   6.571  10.906  1.1930  1.4325 -1.3429
 6842TIP3    H244722   6.601   6.450  10.946 -1.7936 -0.3667 -0.2639
 6843TIP3   OH244723   0.853   0.500  12.048 -0.2642  0.1179 -0.6252
 6843TIP3    H144724   0.825   0.511  11.957  0.1885 -0.9571 -0.9052
 6843TIP3    H244725   0.947   0.517  12.047 -0.6266  2.5267  0.1039
 6844TIP3   OH244726   2.964   0.533  11.429 -0.6405 -0.2746 -0.3157
 6844TIP3    H144727   2.969   0.463  11.494 -3.2539  0.3572  0.6849
 6844TIP3    H244728   2.924   0.491  11.352 -0.8102 -0.2239 -0.2551
 6845TIP3   OH244729   4.589   3.545  11.902 -0.2730  0.0556 -0.3194
 6845TIP3    H144730   4.544   3.552  11.818 -3.3705 -0.0167  1.1857
 6845TIP3    H244731   4.527   3.498  11.958  1.4890  0.4924  2.1460
 6846TIP3   OH244732   2.401   2.802  12.524 -0.1258 -0.3198 -0.6196
 6846TIP3    H144733   2.494   2.822  12.519  0.1464 -1.4104 -0.1832
 6846TIP3    H244734   2.396   2.725  12.581 -1.4926  1.2192  1.5341
 6847TIP3   OH244735   6.354   1.681  10.344  0.0565  0.0499  0.5347
 6847TIP3    H144736   6.312   1.597  10.361 -1.4478  0.5587 -0.4458
 6847TIP3    H244737   6.448   1.664  10.353 -0.2246 -1.7311  0.3289
 6848TIP3   OH244738   2.982   0.751  11.611  0.5826  0.6280  0.0424
 6848TIP3    H144739   2.999   0.685  11.545 -0.8009 -0.9716  1.1881
 6848TIP3    H244740   3.068   0.781  11.638  1.3083 -1.2615 -0.0127
 6849TIP3   OH244741   2.376   3.385  11.066 -0.8807  0.1792  0.6939
 6849TIP3    H144742   2.301   3.400  11.123 -2.4701 -1.2132 -0.9087
 6849TIP3    H244743   2.421   3.469  11.062 -2.2796  1.0204  1.8197
 6850TIP3   OH244744   5.914   0.852  11.959 -0.2982  0.0039 -0.3885
 6850TIP3    H144745   5.968   0.874  12.035 -0.0382  1.3480 -0.9234
 6850TIP3    H244746   5.940   0.917  11.893 -1.3315 -0.4278 -1.2349
 6851TIP3   OH244747   2.257   0.819  10.745  0.5746  0.6910 -0.1664
 6851TIP3    H144748   2.269   0.844  10.837  0.8797  1.6599 -0.4562
 6851TIP3    H244749   2.221   0.897  10.704 -2.6703 -0.7159 -0.2689
 6852TIP3   OH244750   1.197   1.376   9.335  0.1237 -0.4654  0.0855
 6852TIP3    H144751   1.154   1.462   9.335  0.5829 -0.2231 -0.4628
 6852TIP3    H244752   1.280   1.391   9.288 -0.4769 -1.5344 -1.3989
 6853TIP3   OH244753   0.616   2.854  10.312 -0.0992 -0.0228 -0.0226
 6853TIP3    H144754   0.657   2.940  10.303  1.9782 -0.9369  0.0820
 6853TIP3    H244755   0.624   2.834  10.406  1.5532 -1.2438 -0.3681
 6854TIP3   OH244756   2.233   4.218  11.808  0.6176  0.2320  0.1145
 6854TIP3    H144757   2.225   4.176  11.894 -0.6823  3.7376  1.9253
 6854TIP3    H244758   2.200   4.153  11.746 -0.3273 -1.7192  2.5126
 6855TIP3   OH244759   3.065   2.881  11.189 -0.0144  0.1760 -0.5261
 6855TIP3    H144760   3.132   2.937  11.147 -0.0352  0.2889 -0.4092
 6855TIP3    H244761   3.012   2.942  11.241  0.2471 -0.0170 -0.0291
 6856TIP3   OH244762   0.676   2.595  10.763 -0.4046  0.1599  0.1917
 6856TIP3    H144763   0.660   2.682  10.800  0.1103  0.5438 -0.4724
 6856TIP3    H244764   0.770   2.593  10.745 -0.7260  0.2333 -1.6821
 6857TIP3   OH244765   6.404   2.742  10.350 -0.7647  0.2679 -0.1069
 6857TIP3    H144766   6.488   2.764  10.308  0.0879 -0.2311  1.2729
 6857TIP3    H244767   6.380   2.658  10.313  2.2394 -2.4557  3.3683
 6858TIP3   OH244768   3.762   4.267   9.087  0.0221  0.2532 -0.3313
 6858TIP3    H144769   3.700   4.226   9.148  1.4037  0.5715  1.3534
 6858TIP3    H244770   3.804   4.193   9.044  0.4406 -0.0595  0.5788
 6859TIP3   OH244771   5.750   4.574  11.179 -0.2294  0.4487 -0.5124
 6859TIP3    H144772   5.795   4.545  11.100 -1.1517  0.1050 -0.9181
 6859TIP3    H244773   5.736   4.494  11.229 -0.1061  0.6008 -0.2273
 6860TIP3   OH244774   4.807   1.832  12.729 -0.2240 -0.6168  0.0730
 6860TIP3    H144775   4.882   1.821  12.671  0.5379 -1.1126  1.1102
 6860TIP3    H244776   4.791   1.745  12.765 -1.3339 -0.5251 -0.1553
 6861TIP3   OH244777   4.299   3.776   9.851  0.2851  0.3365 -0.2063
 6861TIP3    H144778   4.358   3.754   9.778 -1.0493 -1.9060 -0.7002
 6861TIP3    H244779   4.213   3.783   9.810 -0.2463  0.7248  0.9446
 6862TIP3   OH244780   5.208   0.245   9.958  0.2183 -0.2655 -0.0633
 6862TIP3    H144781   5.261   0.173   9.992  0.4402 -0.0654  0.0149
 6862TIP3    H244782   5.270   0.317   9.944 -0.1042  0.1279  0.4926
 6863TIP3   OH244783   0.675   4.071   9.937  0.2017  0.2362  0.1535
 6863TIP3    H144784   0.720   4.107  10.013  0.1708 -2.4132  1.5802
 6863TIP3    H244785   0.724   4.103   9.862  1.5401  1.2574  1.4119
 6864TIP3   OH244786   2.085   5.416  11.587  0.3412 -0.2164  0.1143
 6864TIP3    H144787   2.024   5.376  11.524  0.7079 -2.1046  0.8759
 6864TIP3    H244788   2.150   5.460  11.532 -0.6890  0.2783 -0.7528
 6865TIP3   OH244789   4.390   1.967  11.447 -0.0149 -0.2743 -0.9219
 6865TIP3    H144790   4.358   1.896  11.504  0.0787  1.5180  1.5005
 6865TIP3    H244791   4.477   1.939  11.421  1.0259 -0.0946  1.9815
 6866TIP3   OH244792   1.356   3.840  10.914 -0.7902  0.0211 -0.3093
 6866TIP3    H144793   1.297   3.781  10.962  0.0984 -2.5362 -2.1872
 6866TIP3    H244794   1.322   3.840  10.825  0.4323  0.7198 -0.7944
 6867TIP3   OH244795   1.399   0.388  11.303 -0.2713  0.2643 -0.2912
 6867TIP3    H144796   1.359   0.475  11.298  0.2324  0.6497  1.7023
 6867TIP3    H244797   1.441   0.386  11.389 -1.7407 -2.5684  0.4587
 6868TIP3   OH244798   6.359   5.988   9.881  0.1045  0.0736  0.1276
 6868TIP3    H144799   6.305   5.942   9.945  0.6163 -0.5302  0.1367
 6868TIP3    H244800   6.410   6.050   9.934 -0.4363  0.5116  0.1404
 6869TIP3   OH244801   0.474   4.672  12.132 -0.0903 -0.6640  0.3078
 6869TIP3    H144802   0.522   4.753  12.116  1.2263 -1.7057 -1.4284
 6869TIP3    H244803   0.397   4.679  12.077  1.1789 -1.4917 -1.6858
 6870TIP3   OH244804   0.857   0.549   9.503 -0.2779 -0.1215  0.3789
 6870TIP3    H144805   0.878   0.641   9.489 -1.6957  0.1275 -0.2899
 6870TIP3    H244806   0.932   0.501   9.467  0.2811  0.7657  0.3546
 6871TIP3   OH244807   6.400   4.599  10.608  0.1564 -0.1858 -0.3381
 6871TIP3    H144808   6.420   4.589  10.701  2.3351 -0.0788 -0.7412
 6871TIP3    H244809   6.361   4.686  10.600  0.2347 -0.0809  0.4360
 6872TIP3   OH244810   6.518   4.756  12.576 -0.1000  0.3324  0.1017
 6872TIP3    H144811   6.554   4.798  12.654  1.6850 -1.5319  0.3700
 6872TIP3    H244812   6.471   4.680  12.609  1.5170 -1.0461 -0.6122
 6873TIP3   OH244813   4.861   4.751  10.154  0.4189 -0.6050  0.0118
 6873TIP3    H144814   4.847   4.843  10.129 -1.1368 -1.1437 -1.2721
 6873TIP3    H244815   4.919   4.717  10.086  1.0905 -0.5645  0.5543
 6874TIP3   OH244816   2.135   4.337  11.422 -0.5207 -0.1413 -0.6673
 6874TIP3    H144817   2.147   4.375  11.335  2.3681 -0.8044 -0.6611
 6874TIP3    H244818   2.040   4.329  11.432 -0.9782  1.0998 -3.2306
 6875TIP3   OH244819   5.149   0.368  10.257  0.1929 -0.1602  0.2922
 6875TIP3    H144820   5.228   0.422  10.264 -0.4020  0.6821  0.8385
 6875TIP3    H244821   5.100   0.406  10.184 -0.8002  0.8681  1.4357
 6876TIP3   OH244822   5.748   5.234  10.677  0.0302  0.2062  0.0758
 6876TIP3    H144823   5.813   5.165  10.691  2.1228  2.1090  0.3273
 6876TIP3    H244824   5.725   5.228  10.585  1.8352  0.4762 -0.4287
 6877TIP3   OH244825   3.395   5.646  10.436  0.6273  0.1759  0.0521
 6877TIP3    H144826   3.364   5.558  10.416 -0.0581 -0.0276  1.8265
 6877TIP3    H244827   3.490   5.640  10.430  0.5430 -0.4406 -0.7601
 6878TIP3   OH244828   3.151   0.827   9.809  0.0030  0.1121 -0.5873
 6878TIP3    H144829   3.118   0.827   9.898 -0.1683 -0.3443 -0.6486
 6878TIP3    H244830   3.212   0.753   9.806 -0.5275 -0.3182 -1.0387
 6879TIP3   OH244831   2.872   5.028   9.360  0.1821 -0.0003  0.2778
 6879TIP3    H144832   2.955   5.037   9.313  1.4948 -1.5525  2.1511
 6879TIP3    H244833   2.868   5.106   9.415 -0.0801  0.5347 -0.4835
 6880TIP3   OH244834   2.377   0.614  11.189  1.0737  0.1610 -0.0425
 6880TIP3    H144835   2.356   0.702  11.158  0.8399 -0.1751 -0.8489
 6880TIP3    H244836   2.319   0.601  11.264  2.0976  1.2217  0.9764
 6881TIP3   OH244837   0.202   3.772  12.926 -0.1949 -0.5033 -0.2539
 6881TIP3    H144838   0.258   3.792  12.851  1.4990 -0.1667  1.0447
 6881TIP3    H244839   0.152   3.694  12.899 -0.8918  0.5921 -2.3200
 6882TIP3   OH244840   1.546   5.160  11.363 -0.4236 -0.3203 -0.1614
 6882TIP3    H144841   1.577   5.248  11.382 -0.0485 -0.2849 -0.8942
 6882TIP3    H244842   1.504   5.167  11.278 -0.2454 -0.8796 -0.2989
 6883TIP3   OH244843   5.001   6.170  10.620 -0.0265 -0.6123 -0.0222
 6883TIP3    H144844   5.011   6.122  10.702  0.1102 -0.5873 -0.0244
 6883TIP3    H244845   5.021   6.260  10.642  1.5273 -0.8450 -0.4086
 6884TIP3   OH244846   1.798   3.976  11.110  0.5865  0.5398  0.6286
 6884TIP3    H144847   1.796   3.963  11.015  1.3786 -0.2849  0.7107
 6884TIP3    H244848   1.717   3.937  11.141  0.0972  1.2301  0.2544
 6885TIP3   OH244849   2.005   3.231   9.713  0.0133  0.3333  0.2318
 6885TIP3    H144850   1.962   3.316   9.710  3.2291  2.0894 -0.7883
 6885TIP3    H244851   2.060   3.235   9.791  3.2722  1.0280 -1.8744
 6886TIP3   OH244852   6.194   5.001  10.905 -0.2970  1.0088 -0.1060
 6886TIP3    H144853   6.185   4.967  10.994  1.8931  2.3291  0.6994
 6886TIP3    H244854   6.138   5.078  10.903  0.3624  1.5196  0.4716
 6887TIP3   OH244855   4.274   2.641  10.546  0.5978 -0.8853  0.1726
 6887TIP3    H144856   4.349   2.622  10.490  0.5559  0.1957 -0.2772
 6887TIP3    H244857   4.200   2.599  10.503  0.1879  1.5861 -1.7536
 6888TIP3   OH244858   1.180   2.455  10.461 -0.0382 -0.3110 -0.3538
 6888TIP3    H144859   1.239   2.482  10.530 -2.0799 -1.4895  2.0288
 6888TIP3    H244860   1.150   2.536  10.420 -0.4124  0.5962  1.6398
 6889TIP3   OH244861   1.574   1.950  12.156 -0.1658  0.1356 -0.3762
 6889TIP3    H144862   1.509   1.978  12.220  0.6390  2.7025 -0.5956
 6889TIP3    H244863   1.526   1.943  12.073 -0.6382 -0.4979 -0.0599
 6890TIP3   OH244864   5.011   4.355   9.982  0.2867 -0.4901  0.2158
 6890TIP3    H144865   5.029   4.383  10.072 -1.1845 -1.9291  1.0158
 6890TIP3    H244866   4.917   4.367   9.972  0.1648 -1.9071 -0.5399
 6891TIP3   OH244867   6.723   4.239  11.526 -0.1529 -0.0621 -0.4394
 6891TIP3    H144868   6.689   4.329  11.518  0.2732  0.0295 -1.3478
 6891TIP3    H244869   6.749   4.232  11.618 -0.0775  0.7892 -0.3822
 6892TIP3   OH244870   5.458   2.786   9.681  0.0297 -0.5614 -0.2019
 6892TIP3    H144871   5.464   2.715   9.618  0.5038  0.0978 -0.9263
 6892TIP3    H244872   5.364   2.799   9.694 -0.1292 -3.0490  2.0098
 6893TIP3   OH244873   6.276   2.341  10.755  0.3409 -0.3278 -0.4404
 6893TIP3    H144874   6.183   2.320  10.751  0.1419  0.3979  0.2533
 6893TIP3    H244875   6.280   2.436  10.756  1.0769 -0.3541 -0.1330
 6894TIP3   OH244876   3.736   6.261  11.237  0.9552  0.4160  0.6495
 6894TIP3    H144877   3.653   6.262  11.188  1.1895  0.8413  0.2449
 6894TIP3    H244878   3.748   6.170  11.261 -1.3299  0.7643  3.6719
 6895TIP3   OH244879   3.742   2.787   9.859  0.3556 -0.2384  0.7818
 6895TIP3    H144880   3.756   2.760   9.768  1.0154  0.5252  0.6401
 6895TIP3    H244881   3.652   2.764   9.878 -0.4177  1.3471 -0.7071
 6896TIP3   OH244882   5.943   4.992  10.688  0.3084 -0.6356 -0.0994
 6896TIP3    H144883   5.934   4.956  10.776  0.5252 -0.0756  0.1564
 6896TIP3    H244884   5.919   4.920  10.630  1.8238 -1.5693  0.3586
 6897TIP3   OH244885   5.110   3.187   9.294 -0.1112  0.1198 -0.1152
 6897TIP3    H144886   5.144   3.136   9.368 -1.6571 -1.6950 -0.5725
 6897TIP3    H244887   5.188   3.217   9.247  0.8725 -1.0419  0.7067
 6898TIP3   OH244888   5.527   0.448  10.932  0.0410  0.5584 -0.5909
 6898TIP3    H144889   5.456   0.513  10.932  0.5374  1.1020 -0.0988
 6898TIP3    H244890   5.607   0.498  10.945  0.3896 -0.1968  0.3071
 6899TIP3   OH244891   3.023   5.635  10.368 -0.7824 -0.1242 -0.4165
 6899TIP3    H144892   3.067   5.557  10.335 -2.2628 -1.4654  0.6693
 6899TIP3    H244893   2.997   5.683  10.289  0.8471 -0.2731 -1.0918
 6900TIP3   OH244894   1.751   3.417  11.627  0.3490  0.4017  0.1598
 6900TIP3    H144895   1.674   3.367  11.602  0.5204  0.5135 -0.6154
 6900TIP3    H244896   1.775   3.466  11.549  1.8940 -0.5212  0.0093
 6901TIP3   OH244897   2.428   4.491   9.863 -0.9166  0.1704 -0.0516
 6901TIP3    H144898   2.417   4.564   9.803 -1.4617  0.3086  0.2044
 6901TIP3    H244899   2.345   4.487   9.911 -1.1547 -1.0133 -0.5040
 6902TIP3   OH244900   3.358   4.589  10.668 -0.4454 -0.4324  0.0425
 6902TIP3    H144901   3.413   4.569  10.592  1.4723 -0.6764  1.4070
 6902TIP3    H244902   3.406   4.658  10.714 -0.3529 -1.8345  2.1809
 6903TIP3   OH244903   3.784   3.261  12.095  0.3165 -0.4488 -0.2871
 6903TIP3    H144904   3.756   3.272  12.186 -2.3282 -3.9901 -0.4102
 6903TIP3    H244905   3.878   3.276  12.096  0.0511  1.8024  2.5169
 6904TIP3   OH244906   0.825   5.364  12.066  1.1354 -0.1673  0.0530
 6904TIP3    H144907   0.845   5.405  11.982 -0.6164  1.3246  0.3166
 6904TIP3    H244908   0.875   5.415  12.130 -0.4120  1.1072  0.2903
 6905TIP3   OH244909   0.609   6.333  11.701 -0.4977  0.0438 -0.6745
 6905TIP3    H144910   0.617   6.406  11.640 -0.5380  0.1272 -0.5801
 6905TIP3    H244911   0.588   6.257  11.646  0.4950 -0.0882 -0.8823
 6906TIP3   OH244912   3.356   1.776  10.898  0.5321  0.4959  0.3002
 6906TIP3    H144913   3.280   1.807  10.946  0.0706  1.9486 -1.3030
 6906TIP3    H244914   3.322   1.747  10.813  1.7515  1.3127 -0.5070
 6907TIP3   OH244915   4.820   3.095   9.662 -0.1181  0.3665  0.4571
 6907TIP3    H144916   4.884   3.114   9.593 -0.2151  0.9171  0.5157
 6907TIP3    H244917   4.742   3.145   9.637 -0.3918  0.0103  0.5963
 6908TIP3   OH244918   1.340   6.550  10.904  0.2600  0.2349 -0.3266
 6908TIP3    H144919   1.295   6.528  10.985  0.5399  0.1115 -0.2022
 6908TIP3    H244920   1.402   6.478  10.890 -0.0968  0.0283 -0.8872
 6909TIP3   OH244921   2.311   1.725   9.471  0.4575 -0.5385 -0.1301
 6909TIP3    H144922   2.370   1.660   9.510 -0.8096 -1.8090 -0.2991
 6909TIP3    H244923   2.331   1.806   9.519  1.2037 -1.3240  0.9302
 6910TIP3   OH244924   4.009   3.410  12.205 -0.1349 -0.3078  0.5786
 6910TIP3    H144925   3.966   3.482  12.160 -0.4418 -1.5814 -1.2553
 6910TIP3    H244926   3.996   3.429  12.298 -2.5680  0.5907  0.1238
 6911TIP3   OH244927   1.455   0.168  10.499 -0.4207  0.3340 -0.3045
 6911TIP3    H144928   1.475   0.237  10.562 -2.4056  1.5014 -0.8729
 6911TIP3    H244929   1.362   0.147  10.514 -0.7371  0.0905 -2.2761
 6912TIP3   OH244930   2.754   4.554  11.639 -0.1374 -0.2214 -0.0221
 6912TIP3    H144931   2.844   4.569  11.613  0.6280  0.3512  2.6615
 6912TIP3    H244932   2.714   4.641  11.641 -0.0100 -0.1781  1.1719
 6913TIP3   OH244933   1.911   2.786  11.882 -0.1509 -0.7967  0.3647
 6913TIP3    H144934   1.961   2.758  11.805 -1.3708 -1.1336 -0.3342
 6913TIP3    H244935   1.852   2.853  11.849  0.6550  0.4829  1.4338
 6914TIP3   OH244936   5.970   0.057  12.283 -0.5124 -0.1599 -0.4971
 6914TIP3    H144937   5.899   0.110  12.319  0.3609  1.1043 -0.5739
 6914TIP3    H244938   5.979  -0.015  12.345 -1.1642  0.2363  0.0728
 6915TIP3   OH244939   5.191   3.281  10.237 -0.3205 -0.2995  0.6100
 6915TIP3    H144940   5.223   3.212  10.180  1.4981  0.2153  0.9564
 6915TIP3    H244941   5.264   3.301  10.296 -1.3319  0.8251  1.5588
 6916TIP3   OH244942   6.407   5.685   9.947  0.0769  0.5480  0.5312
 6916TIP3    H144943   6.376   5.644  10.028  0.3724 -1.8309 -0.4652
 6916TIP3    H244944   6.493   5.719   9.968  0.7559 -1.3000  0.9083
 6917TIP3   OH244945   2.964   4.449  10.015  0.0012  0.4709  0.4496
 6917TIP3    H144946   3.043   4.453  10.069 -0.6080 -1.4991  1.5562
 6917TIP3    H244947   2.893   4.475  10.074 -0.5049 -0.3426  0.2032
 6918TIP3   OH244948   0.736   3.723  10.180  0.3517  0.1816  0.4312
 6918TIP3    H144949   0.654   3.771  10.194  0.8598  1.3890 -0.5065
 6918TIP3    H244950   0.728   3.687  10.092  1.9784  2.8732 -0.9450
 6919TIP3   OH244951   4.110   4.726  11.197 -0.0822  0.1640 -0.2094
 6919TIP3    H144952   4.017   4.719  11.175 -0.2999  1.1374  0.3557
 6919TIP3    H244953   4.153   4.669  11.133 -0.9402  0.7634 -1.3701
 6920TIP3   OH244954   1.688   0.222   9.245 -0.2277  0.0572 -0.1513
 6920TIP3    H144955   1.728   0.165   9.311 -1.5298  0.1619  0.7528
 6920TIP3    H244956   1.663   0.162   9.174  1.5771  0.0024 -0.7879
 6921TIP3   OH244957   0.086   1.301   9.622  1.0501  0.2024 -0.1537
 6921TIP3    H144958   0.166   1.272   9.578 -0.0658 -1.4278 -1.2263
 6921TIP3    H244959   0.041   1.356   9.557 -0.8736 -2.6582 -1.4743
 6922TIP3   OH244960   5.234   0.388  11.818  0.3473 -0.5016 -0.1594
 6922TIP3    H144961   5.196   0.355  11.900  1.6630 -0.5229  0.4709
 6922TIP3    H244962   5.162   0.383  11.755 -0.5371 -1.0334  0.8460
 6923TIP3   OH244963   2.068   1.556   9.514 -0.8396  0.2032 -0.1311
 6923TIP3    H144964   2.143   1.614   9.515  0.3263 -1.2409 -0.2408
 6923TIP3    H244965   1.994   1.612   9.492 -0.2119  2.1192  2.1987
 6924TIP3   OH244966   1.729   0.701  11.268  0.1417 -0.4150  0.0100
 6924TIP3    H144967   1.821   0.677  11.281 -0.2609 -1.1289  1.8196
 6924TIP3    H244968   1.688   0.684  11.353 -1.3719  1.2869 -0.3443
 6925TIP3   OH244969   6.183   3.024  11.545  0.0394 -0.7700  0.3796
 6925TIP3    H144970   6.207   2.933  11.564 -0.1206 -0.8412  0.2405
 6925TIP3    H244971   6.248   3.053  11.480  2.1585  0.2601  2.7793
 6926TIP3   OH244972   3.242   0.779  12.007 -0.6084  0.1096 -0.3676
 6926TIP3    H144973   3.306   0.715  11.975 -1.6220 -0.0797 -2.1311
 6926TIP3    H244974   3.267   0.861  11.965 -0.6671  0.3611  0.0877
 6927TIP3   OH244975   2.929   5.694  10.870  0.5431  0.4111 -0.0564
 6927TIP3    H144976   3.000   5.750  10.837  0.1750  0.1838 -1.2934
 6927TIP3    H244977   2.849   5.736  10.840  0.2402 -0.4662 -0.5322
 6928TIP3   OH244978   2.891   0.803  11.095 -0.1638 -1.0702 -0.7366
 6928TIP3    H144979   2.819   0.818  11.155  0.5632 -0.8639  0.1087
 6928TIP3    H244980   2.875   0.716  11.059 -0.2613 -1.4745  0.2604
 6929TIP3   OH244981   0.684   0.349  11.281  0.6458  0.0469 -0.1452
 6929TIP3    H144982   0.676   0.312  11.194  0.7018 -0.8521  0.2278
 6929TIP3    H244983   0.654   0.280  11.340  0.9688  0.5062  0.5748
 6930TIP3   OH244984   5.260   4.515  11.625  0.5631  0.7639 -0.3256
 6930TIP3    H144985   5.286   4.604  11.651 -0.6067  0.2248  3.4224
 6930TIP3    H244986   5.330   4.459  11.660  0.1262  0.0799 -0.5386
 6931TIP3   OH244987   5.867   4.301  12.550  0.4194 -0.6492 -0.0616
 6931TIP3    H144988   5.792   4.246  12.571 -0.8550  0.1288 -2.2117
 6931TIP3    H244989   5.919   4.248  12.490  0.4716 -0.4192 -0.2214
 6932TIP3   OH244990   6.707   0.566   9.737 -0.2374 -0.1646 -0.0558
 6932TIP3    H144991   6.774   0.498   9.730  1.5455  1.5130 -0.1558
 6932TIP3    H244992   6.724   0.624   9.662  0.2438  1.9973  1.6351
 6933TIP3   OH244993   1.651   2.817  11.522 -0.0464  0.0626 -0.4405
 6933TIP3    H144994   1.646   2.912  11.535  2.0256  0.0987  0.5395
 6933TIP3    H244995   1.649   2.781  11.611  2.5135 -0.5332 -0.5486
 6934TIP3   OH244996   6.017   3.855  11.865  0.7773  0.0502 -0.5220
 6934TIP3    H144997   6.099   3.885  11.825  1.7681 -1.8171  0.0305
 6934TIP3    H244998   6.044   3.801  11.939 -0.9802 -0.0090  0.1243
 6935TIP3   OH244999   0.766   2.146  12.175 -0.2691 -0.6751 -0.0444
 6935TIP3    H145000   0.832   2.199  12.219 -0.2545 -0.6755 -0.0655
 6935TIP3    H245001   0.798   2.137  12.085 -0.0512 -1.0872  0.0694
 6936TIP3   OH245002   1.641   3.472   9.099  0.2635 -0.0532 -0.5261
 6936TIP3    H145003   1.672   3.535   9.163 -1.8458  0.3584  0.1835
 6936TIP3    H245004   1.577   3.520   9.047 -1.6155 -1.5996  0.2046
 6937TIP3   OH245005   5.223   4.275  10.737  0.0175  0.1566 -0.2999
 6937TIP3    H145006   5.252   4.302  10.824  0.7590  1.9055 -1.0457
 6937TIP3    H245007   5.274   4.196  10.718 -1.6801 -1.5287  1.6536
 6938TIP3   OH245008   2.778   1.439  12.232  0.0296 -0.4949 -0.2417
 6938TIP3    H145009   2.805   1.386  12.307 -1.7338  1.8453  2.2342
 6938TIP3    H245010   2.855   1.493  12.212 -0.3136  0.8765  1.8518
 6939TIP3   OH245011   0.860   6.246  10.909 -0.0529 -0.3705 -0.2667
 6939TIP3    H145012   0.887   6.224  10.998  1.4070  1.2973 -0.2289
 6939TIP3    H245013   0.808   6.171  10.880  1.9742 -2.3469  0.8741
 6940TIP3   OH245014   1.680   6.267  12.847  0.7069 -0.2247 -0.1840
 6940TIP3    H145015   1.680   6.173  12.864  1.5364 -0.4002 -1.1129
 6940TIP3    H245016   1.659   6.306  12.932  0.3149 -1.2380  0.2065
 6941TIP3   OH245017   0.040   4.903  10.686 -0.3842 -0.2178 -0.0702
 6941TIP3    H145018   0.084   4.825  10.652  1.8503  1.7602 -2.1370
 6941TIP3    H245019   0.080   4.975  10.638 -0.6042  2.4673  3.3783
 6942TIP3   OH245020   0.410   2.335  10.339  0.1664 -0.1341  0.2476
 6942TIP3    H145021   0.499   2.335  10.373 -0.6248  0.7168  2.4652
 6942TIP3    H245022   0.369   2.412  10.378 -0.9258  0.8764 -2.5607
 6943TIP3   OH245023   0.391   4.632  11.303  0.3546  0.7300  0.2715
 6943TIP3    H145024   0.324   4.673  11.249  1.2521  1.4266 -0.3342
 6943TIP3    H245025   0.446   4.585  11.242  0.1145 -0.2962  0.8259
 6944TIP3   OH245026   6.285   5.104  10.389 -0.2925  0.5739 -0.0515
 6944TIP3    H145027   6.295   5.197  10.408 -0.4238  0.4399  0.7224
 6944TIP3    H245028   6.191   5.091  10.376 -0.3657  0.4202  0.5973
 6945TIP3   OH245029   1.884   4.525  11.638 -0.7192 -0.1180 -0.3543
 6945TIP3    H145030   1.826   4.525  11.562  1.1662  2.1749 -1.9759
 6945TIP3    H245031   1.935   4.444  11.628 -1.2098 -0.3659 -0.9511
 6946TIP3   OH245032   3.697   2.902   9.349 -0.1041  0.3011  0.0090
 6946TIP3    H145033   3.619   2.859   9.384 -1.2134  0.9466 -1.5676
 6946TIP3    H245034   3.716   2.856   9.268  1.0442  0.2926  0.2683
 6947TIP3   OH245035   3.570   2.436  10.620 -0.1083  0.1298  0.0698
 6947TIP3    H145036   3.656   2.410  10.652 -0.0821  0.1575  0.0219
 6947TIP3    H245037   3.517   2.447  10.699  0.6886  2.8477  0.3157
 6948TIP3   OH245038   2.815   1.047  10.121 -0.2521  0.2867  0.4521
 6948TIP3    H145039   2.854   1.115  10.066  1.7830 -0.7435  0.5421
 6948TIP3    H245040   2.734   1.023  10.076 -0.3739  1.8548 -0.2337
 6949TIP3   OH245041   2.164   6.665   9.688 -0.4312 -0.1016 -0.0308
 6949TIP3    H145042   2.235   6.684   9.750 -0.6596 -0.4421  0.3348
 6949TIP3    H245043   2.131   6.752   9.663 -0.5613  0.0305  0.5823
 6950TIP3   OH245044   2.792   1.222  10.661 -0.1566  0.0612  0.1776
 6950TIP3    H145045   2.741   1.141  10.667 -0.6657  0.3646 -0.0920
 6950TIP3    H245046   2.729   1.290  10.640  0.3647  0.4288 -0.2414
 6951TIP3   OH245047   2.215   3.253   9.924  0.1854  0.1639  0.1681
 6951TIP3    H145048   2.283   3.261   9.858 -0.1542  2.0164 -0.0274
 6951TIP3    H245049   2.259   3.219  10.001  0.5214 -2.3580 -1.0666
 6952TIP3   OH245050   0.255   2.376  10.927 -0.1786 -0.5436  0.3534
 6952TIP3    H145051   0.303   2.457  10.912 -0.4206 -0.4663 -0.0193
 6952TIP3    H245052   0.192   2.398  10.995  1.0327 -0.9401  1.6449
 6953TIP3   OH245053   2.358   0.556  10.081 -0.0942  0.0849  0.3494
 6953TIP3    H145054   2.339   0.647  10.057 -1.5472 -0.6793 -1.5777
 6953TIP3    H245055   2.448   0.559  10.114 -0.0524  2.1837  0.2019
 6954TIP3   OH245056   2.232   0.545  11.445  0.7411  0.1618  0.3263
 6954TIP3    H145057   2.287   0.482  11.492 -0.7543  0.0582  2.0301
 6954TIP3    H245058   2.243   0.627  11.493  1.7773  0.9761 -1.1952
 6955TIP3   OH245059   1.286   5.004  12.052 -0.1651  0.2297 -0.1576
 6955TIP3    H145060   1.268   5.005  12.146  0.1635 -0.2865 -0.0860
 6955TIP3    H245061   1.369   5.050  12.042 -0.6011  1.0141 -0.2935
 6956TIP3   OH245062   6.592   4.307   9.989  0.0073 -0.2341 -0.0089
 6956TIP3    H145063   6.510   4.343  10.023 -0.6029  0.8356 -2.3553
 6956TIP3    H245064   6.571   4.284   9.898  1.7590 -1.9650 -0.0294
 6957TIP3   OH245065   4.346   1.204  10.229 -0.1160  0.5996  0.6160
 6957TIP3    H145066   4.439   1.216  10.212 -0.2126  1.4011  0.6276
 6957TIP3    H245067   4.329   1.256  10.307 -0.9885  2.1726 -0.5633
 6958TIP3   OH245068   0.657   3.000  12.257 -0.6677 -0.4416 -0.2816
 6958TIP3    H145069   0.628   3.048  12.334 -2.3173 -3.1347  0.8719
 6958TIP3    H245070   0.583   3.003  12.197  0.7251  1.9556 -2.0772
 6959TIP3   OH245071   3.986   4.936  10.298  0.0377  0.2505  0.1333
 6959TIP3    H145072   4.029   4.876  10.359  0.6249  0.1451 -0.3730
 6959TIP3    H245073   3.896   4.905  10.294  0.5079 -1.1078 -0.7026
 6960TIP3   OH245074   0.524   2.447  10.089 -0.1311 -0.0374  0.3303
 6960TIP3    H145075   0.477   2.384  10.146  0.1174  0.4287  1.0670
 6960TIP3    H245076   0.585   2.393  10.040 -0.6069 -0.5029  0.2289
 6961TIP3   OH245077   2.343   3.274  10.519 -0.1202  0.5004 -0.6359
 6961TIP3    H145078   2.359   3.309  10.607  0.4059  1.1544 -0.9863
 6961TIP3    H245079   2.339   3.179  10.532 -1.2535  0.6398  0.2813
 6962TIP3   OH245080   3.140   1.313  11.447  0.1090 -0.1881 -0.3220
 6962TIP3    H145081   3.101   1.244  11.393  0.0010 -0.6277  0.3088
 6962TIP3    H245082   3.069   1.376  11.460 -0.1744 -0.6066  0.1826
 6963TIP3   OH245083   6.219   3.065  10.619 -0.0356  0.0486 -0.7183
 6963TIP3    H145084   6.282   2.998  10.644  1.3035  2.0098  1.5110
 6963TIP3    H245085   6.137   3.036  10.659  0.1548 -0.9732 -1.0351
 6964TIP3   OH245086   2.314   4.634  10.467 -0.1383 -0.1585 -0.5590
 6964TIP3    H145087   2.337   4.727  10.473  2.0654 -0.5857 -1.4016
 6964TIP3    H245088   2.284   4.622  10.377  0.0669 -0.3671 -0.5998
 6965TIP3   OH245089   0.383   3.594  11.490  0.3202  0.0779 -0.2560
 6965TIP3    H145090   0.310   3.620  11.547 -0.3639  1.0126 -1.5222
 6965TIP3    H245091   0.456   3.649  11.518 -0.1024  0.7628 -0.4744
 6966TIP3   OH245092   0.278   6.051  10.569 -0.1659 -0.1986  0.0866
 6966TIP3    H145093   0.187   6.066  10.545 -0.5141  0.2763  1.5426
 6966TIP3    H245094   0.273   6.004  10.652  0.9449 -2.1198 -0.8818
 6967TIP3   OH245095   1.819   3.073  10.081  0.2616 -0.1563  0.0617
 6967TIP3    H145096   1.829   2.995  10.026  1.3327  0.0319 -0.0429
 6967TIP3    H245097   1.908   3.107  10.089  0.1725 -0.3282  2.1449
 6968TIP3   OH245098   4.271   3.162   9.830  0.0629  0.6720  0.1636
 6968TIP3    H145099   4.302   3.157   9.921 -0.6191 -2.9059  0.3541
 6968TIP3    H245100   4.351   3.175   9.779  0.5277  2.1199  1.1913
 6969TIP3   OH245101   5.592   2.751  10.953  0.4678  0.2613  0.2840
 6969TIP3    H145102   5.672   2.801  10.935  0.9184 -0.2681  0.7949
 6969TIP3    H245103   5.621   2.661  10.966 -0.4397 -0.3315 -1.5187
 6970TIP3   OH245104   4.105   4.917  11.670 -0.1788  0.4915  0.1072
 6970TIP3    H145105   4.025   4.903  11.720  0.4455 -0.2157  0.9386
 6970TIP3    H245106   4.076   4.921  11.579 -1.1413  0.1633  0.3864
 6971TIP3   OH245107   3.302   0.207  10.883 -0.0856 -0.0179 -0.2111
 6971TIP3    H145108   3.293   0.262  10.960 -0.3831 -2.7120  1.8018
 6971TIP3    H245109   3.390   0.227  10.850  0.7860 -0.1080  1.9083
 6972TIP3   OH245110   1.824   4.394   9.567 -0.5852  0.3219 -0.0724
 6972TIP3    H145111   1.855   4.422   9.481 -0.4109 -1.5139 -0.6337
 6972TIP3    H245112   1.819   4.299   9.561 -2.7674  0.2955  1.1958
 6973TIP3   OH245113   4.844   6.017  12.033 -0.2087 -0.0301  0.3536
 6973TIP3    H145114   4.775   5.955  12.007 -0.3712  0.0323  0.6296
 6973TIP3    H245115   4.839   6.018  12.128  1.1272 -1.1197  0.4690
 6974TIP3   OH245116   5.814   2.984   9.593  0.1202  0.4906 -0.0838
 6974TIP3    H145117   5.879   2.987   9.523  1.3987  0.5239  1.0667
 6974TIP3    H245118   5.819   2.895   9.628 -0.1064  0.6302  0.3169
 6975TIP3   OH245119   5.983   5.221  11.258 -0.4664 -0.2785  0.1310
 6975TIP3    H145120   5.904   5.254  11.214 -0.4391 -1.4860 -0.8976
 6975TIP3    H245121   6.054   5.273  11.221 -0.6355 -0.1103  0.0393
 6976TIP3   OH245122   1.663   2.320  12.272  0.2092  0.1444  0.4544
 6976TIP3    H145123   1.681   2.302  12.364  1.7225  2.1081  0.6045
 6976TIP3    H245124   1.670   2.415  12.264 -0.6996  0.0979 -1.5437
 6977TIP3   OH245125   3.253   4.842  10.492 -0.1444  0.0431  1.0122
 6977TIP3    H145126   3.209   4.766  10.530 -0.4443  0.3689  1.3212
 6977TIP3    H245127   3.302   4.807  10.417  0.5941 -0.6370  1.7898
 6978TIP3   OH245128   3.685   5.727  11.975 -0.0535  0.2954  0.2043
 6978TIP3    H145129   3.677   5.796  11.909  0.4142  0.5232  0.3807
 6978TIP3    H245130   3.632   5.655  11.941  1.1833 -0.0680 -1.0327
 6979TIP3   OH245131   5.922   2.358  12.334  0.6235 -0.2443  0.3019
 6979TIP3    H145132   5.994   2.384  12.277 -0.1647  0.1936 -0.5287
 6979TIP3    H245133   5.954   2.373  12.423  1.9402 -1.0996 -0.0093
 6980TIP3   OH245134   5.081   2.947  11.214 -0.2993  0.2910  0.7334
 6980TIP3    H145135   5.142   2.915  11.148 -2.3872  0.3005 -1.3501
 6980TIP3    H245136   5.051   3.031  11.179  0.1300  1.3834  2.8266
 6981TIP3   OH245137   6.631   1.040  11.271  0.0645  0.6599  0.0700
 6981TIP3    H145138   6.626   1.068  11.363 -0.5532  0.9175 -0.0330
 6981TIP3    H245139   6.725   1.036  11.252  0.1980  0.6110  0.7111
 6982TIP3   OH245140   0.775   4.167   9.695  0.2188 -0.2854  0.2426
 6982TIP3    H145141   0.742   4.253   9.669 -2.5114 -0.7193  1.9056
 6982TIP3    H245142   0.868   4.170   9.675 -0.5040  1.3738 -4.1055
 6983TIP3   OH245143   6.170   3.846  10.477  0.0714 -0.0844 -0.1520
 6983TIP3    H145144   6.191   3.844  10.571 -1.5580 -0.5746  0.2463
 6983TIP3    H245145   6.132   3.759  10.459 -2.1786  0.9123 -0.5796
 6984TIP3   OH245146   0.147   4.791  10.064  0.2922  0.2822  0.2774
 6984TIP3    H145147   0.122   4.705  10.099  1.6357  0.4543  1.7608
 6984TIP3    H245148   0.233   4.776  10.023 -0.2557  0.5761 -1.0386
 6985TIP3   OH245149   0.097   4.003  12.097 -0.3053  0.3289 -0.0058
 6985TIP3    H145150   0.070   3.919  12.059 -0.7394  0.2542  0.4619
 6985TIP3    H245151   0.181   3.984  12.139 -0.9151 -0.1512  1.0448
 6986TIP3   OH245152   1.724   0.354  10.470  0.5773  0.2414  0.1667
 6986TIP3    H145153   1.714   0.274  10.419 -0.4942  1.4738 -1.7112
 6986TIP3    H245154   1.818   0.368  10.476  0.7377 -0.2321 -1.0644
 6987TIP3   OH245155   4.734   0.289  10.754  0.5842 -0.1693  0.0959
 6987TIP3    H145156   4.819   0.334  10.746  0.9976 -0.9732 -0.1606
 6987TIP3    H245157   4.670   0.356  10.730  1.0162  0.8900  1.7406
 6988TIP3   OH245158   0.955   5.096  10.189  0.1509  0.2027 -0.3679
 6988TIP3    H145159   0.859   5.091  10.183  0.0434  1.7424 -0.2504
 6988TIP3    H245160   0.971   5.167  10.250  1.3927 -0.2485 -0.1455
 6989TIP3   OH245161   4.780   2.903   9.267 -0.0966 -0.1997 -0.6489
 6989TIP3    H145162   4.808   2.813   9.256  0.9175  0.1754 -1.3164
 6989TIP3    H245163   4.787   2.941   9.179  0.2818  0.7450 -0.2229
 6990TIP3   OH245164   3.904   2.012  10.105 -0.1248 -0.6723 -0.3649
 6990TIP3    H145165   3.956   1.950  10.054 -1.1502 -0.5286 -1.6229
 6990TIP3    H245166   3.898   1.973  10.192  0.6523 -1.5056 -0.6757
 6991TIP3   OH245167   1.916   4.679  10.942 -0.2652 -0.7203  0.1720
 6991TIP3    H145168   1.833   4.675  10.893 -0.1818 -4.6191  0.0802
 6991TIP3    H245169   1.890   4.672  11.034 -0.0841  0.3623  0.3261
 6992TIP3   OH245170   4.035   6.240  12.533 -0.0243  0.6877 -0.1543
 6992TIP3    H145171   3.963   6.274  12.587  0.7558 -0.1496  1.5088
 6992TIP3    H245172   4.032   6.293  12.453 -0.6438  2.6792  1.1002
 6993TIP3   OH245173   4.977   2.787  10.670  0.0610 -0.5002 -0.5404
 6993TIP3    H145174   4.982   2.850  10.598 -1.7147 -1.2813 -1.4060
 6993TIP3    H245175   5.036   2.716  10.644 -0.3997 -0.6736 -1.1304
 6994TIP3   OH245176   0.675   2.417  12.213  0.6585  0.1909 -0.5800
 6994TIP3    H145177   0.690   2.324  12.229 -1.1248 -0.3012 -1.4615
 6994TIP3    H245178   0.715   2.433  12.127 -0.5147 -0.2156 -1.2274
 6995TIP3   OH245179   4.496   4.786  10.774  0.1314  0.3894  0.2550
 6995TIP3    H145180   4.492   4.720  10.843  0.3454 -1.2154 -1.1921
 6995TIP3    H245181   4.411   4.829  10.778  0.8119  1.7036  2.7277
 6996TIP3   OH245182   0.456   5.386  10.910  0.0070  0.5978  0.1752
 6996TIP3    H145183   0.519   5.423  10.849 -0.4529  2.3172  0.6767
 6996TIP3    H245184   0.497   5.395  10.996 -0.2466  0.2232  0.3380
 6997TIP3   OH245185   3.857   0.066  11.125  0.3146 -0.1822  0.1897
 6997TIP3    H145186   3.777   0.115  11.144  0.2279  0.3178 -1.2971
 6997TIP3    H245187   3.842  -0.020  11.164 -0.3625  0.3354  1.1178
 6998TIP3   OH245188   6.023   1.881  11.225 -0.0725 -1.0206  0.5358
 6998TIP3    H145189   5.930   1.866  11.208  0.1020 -1.5916  0.0402
 6998TIP3    H245190   6.062   1.887  11.138  0.3290 -0.5985  0.7420
 6999TIP3   OH245191   1.952   4.131   9.260 -0.1104  0.4538  0.6680
 6999TIP3    H145192   1.921   4.075   9.188 -2.3364 -0.7099  2.3977
 6999TIP3    H245193   2.036   4.092   9.285  0.3712  0.4632 -0.8247
 7000TIP3   OH245194   5.789   3.032  11.545  0.0272 -0.6817  0.2330
 7000TIP3    H145195   5.719   3.094  11.524  0.6460  0.1345  0.5497
 7000TIP3    H245196   5.866   3.087  11.557  0.2828 -1.3752  1.9808
 7001TIP3   OH245197   1.474   2.435  10.164  0.0000 -0.5751 -0.0586
 7001TIP3    H145198   1.563   2.460  10.141 -0.2075  0.8350  0.5250
 7001TIP3    H245199   1.480   2.407  10.256 -0.1046 -0.8349 -0.1293
 7002TIP3   OH245200   5.817   3.434   9.546  0.0331  0.2857 -0.1504
 7002TIP3    H145201   5.842   3.524   9.564  2.7434 -0.2003 -1.0579
 7002TIP3    H245202   5.761   3.440   9.468 -0.0763  1.2081 -0.0071
 7003TIP3   OH245203   2.377   6.527  10.488  0.4485 -0.7508 -0.7371
 7003TIP3    H145204   2.308   6.535  10.422  1.6080 -0.6977 -1.9996
 7003TIP3    H245205   2.459   6.527  10.437  1.3428 -1.9402  0.6185
 7004TIP3   OH245206   0.596   4.648   9.962 -0.2325 -0.0790 -0.1894
 7004TIP3    H145207   0.686   4.668   9.989 -0.2594  1.1828 -0.9879
 7004TIP3    H245208   0.591   4.552   9.969  1.0874 -0.1541  0.1256
 7005TIP3   OH245209   5.598   5.194  11.412 -0.7673  0.1946  0.1715
 7005TIP3    H145210   5.562   5.110  11.383 -0.7716  0.0685  0.5392
 7005TIP3    H245211   5.611   5.184  11.506 -0.2029  0.3990  0.1215
 7006TIP3   OH245212   4.119   5.393   9.756 -0.0437 -1.0863 -0.6251
 7006TIP3    H145213   4.070   5.372   9.835 -0.2541 -3.2359 -1.2746
 7006TIP3    H245214   4.054   5.388   9.685 -0.4194  3.0773 -0.8358
 7007TIP3   OH245215   0.949   4.301  11.994 -0.1493  0.5727  0.0145
 7007TIP3    H145216   0.915   4.364  12.058 -0.0754  0.5764  0.0502
 7007TIP3    H245217   0.939   4.216  12.036 -1.2819  0.4487 -0.4724
 7008TIP3   OH245218   2.046   0.829   9.890 -0.2849 -0.0798  0.4679
 7008TIP3    H145219   2.000   0.821   9.807  1.5782  0.5291 -0.6884
 7008TIP3    H245220   2.067   0.739   9.914  1.2717 -0.1587 -1.0159
 7009TIP3   OH245221   3.023   2.931  10.772 -0.3138  0.0344  0.3525
 7009TIP3    H145222   3.111   2.966  10.786 -0.5725  0.7845  0.0984
 7009TIP3    H245223   3.034   2.866  10.702 -0.1641  0.9554 -0.4940
 7010TIP3   OH245224   1.777   5.952  10.258 -0.5007 -0.0245 -0.3489
 7010TIP3    H145225   1.779   6.036  10.212  4.0226  0.1334 -0.3270
 7010TIP3    H245226   1.788   5.886  10.189  1.7447 -0.0953  0.0103
 7011TIP3   OH245227   0.929   2.236  11.275  0.2694 -0.2547  0.3619
 7011TIP3    H145228   0.877   2.190  11.209 -0.7230  2.0473 -0.5637
 7011TIP3    H245229   1.019   2.232  11.242  0.1896 -1.3821  0.2439
 7012TIP3   OH245230   0.618   3.299  11.871 -0.5816 -0.8571  0.3843
 7012TIP3    H145231   0.571   3.322  11.951  1.4686  0.8175  1.2103
 7012TIP3    H245232   0.551   3.263  11.813 -2.0732 -2.5355  2.9620
 7013TIP3   OH245233   1.981   4.665   9.743  0.0166  0.0863  0.3622
 7013TIP3    H145234   2.036   4.668   9.664 -0.0544  2.7563  0.3081
 7013TIP3    H245235   1.967   4.572   9.759  1.4010 -0.5823 -1.8193
 7014TIP3   OH245236   6.549   4.939  11.366  0.2105 -0.2662 -0.3130
 7014TIP3    H145237   6.499   4.937  11.284 -0.5118  0.1743  0.1068
 7014TIP3    H245238   6.639   4.960  11.339 -0.4045  1.9511 -0.8321
 7015TIP3   OH245239   4.040   3.286  10.979 -0.1194  0.5590 -0.4460
 7015TIP3    H145240   3.982   3.223  10.935 -0.4634 -0.5562  1.4644
 7015TIP3    H245241   3.988   3.317  11.054  0.2037  2.8700 -1.1207
 7016TIP3   OH245242   3.167   2.210  11.173 -0.1966  0.5784  0.1186
 7016TIP3    H145243   3.220   2.177  11.245 -0.1496  1.0999  0.3249
 7016TIP3    H245244   3.221   2.277  11.131 -0.1771  0.2042 -0.4787
 7017TIP3   OH245245   2.042   5.767  10.130  0.5079  0.6396  0.0313
 7017TIP3    H145246   1.965   5.751  10.075 -0.7202 -0.6173  2.0185
 7017TIP3    H245247   2.098   5.691  10.116  1.1140  1.2345 -0.8960
 7018TIP3   OH245248   1.650   4.369  11.503 -0.1467 -0.1997 -0.1419
 7018TIP3    H145249   1.645   4.441  11.440  0.9870 -0.3583 -0.4255
 7018TIP3    H245250   1.567   4.323  11.492 -0.0861 -0.0694 -1.3459
 7019TIP3   OH245251   1.461   2.473  11.863 -0.9347  0.3937 -0.5130
 7019TIP3    H145252   1.513   2.545  11.831 -1.5421 -0.0858 -2.7318
 7019TIP3    H245253   1.370   2.502  11.853 -1.1633  0.1999  0.7835
 7020TIP3   OH245254   6.640   2.927  11.423  0.5762 -0.1875 -0.4974
 7020TIP3    H145255   6.683   2.906  11.340  1.9513 -0.9264  0.3569
 7020TIP3    H245256   6.615   2.842  11.459  2.4143 -0.1396  1.0516
 7021TIP3   OH245257   2.203   3.807  12.067 -0.2332 -0.3505 -0.2381
 7021TIP3    H145258   2.191   3.721  12.026 -0.3584 -0.9756  1.0840
 7021TIP3    H245259   2.260   3.790  12.142  0.0875  0.7998 -0.2066
 7022TIP3   OH245260   3.263   2.745  10.627 -0.4200 -0.0233  0.0876
 7022TIP3    H145261   3.174   2.760  10.597 -1.4128 -2.0615  1.7281
 7022TIP3    H245262   3.318   2.791  10.564 -2.5543  0.2655 -1.6898
 7023TIP3   OH245263   0.859   1.897   9.241 -0.1744 -0.8258  0.4683
 7023TIP3    H145264   0.915   1.821   9.233  0.2583 -0.3963 -1.0261
 7023TIP3    H245265   0.860   1.919   9.334  1.6282 -1.1990  0.5671
 7024TIP3   OH245266   1.154   5.718  12.029  0.0936  0.3936  0.1293
 7024TIP3    H145267   1.183   5.665  12.102 -1.6148  1.7810  1.9160
 7024TIP3    H245268   1.059   5.714  12.033 -0.0790 -0.1588 -2.5846
 7025TIP3   OH245269   0.161   5.175  10.491  0.6736  0.2185  0.3033
 7025TIP3    H145270   0.191   5.094  10.451 -2.7686 -1.5331  0.9515
 7025TIP3    H245271   0.151   5.236  10.418 -3.6484 -2.3206 -1.5894
 7026TIP3   OH245272   5.477   2.563   9.528  0.2979  0.1234  0.1932
 7026TIP3    H145273   5.521   2.486   9.491 -0.6202 -0.4987  0.3350
 7026TIP3    H245274   5.420   2.594   9.458 -0.6624 -0.4255  0.7013
 7027TIP3   OH245275   3.234   1.388  11.177 -0.0967 -0.4115  0.1468
 7027TIP3    H145276   3.225   1.312  11.119 -2.8244 -0.4851  0.5178
 7027TIP3    H245277   3.198   1.359  11.260  1.7794  0.3648  1.2839
 7028TIP3   OH245278   4.979   6.329  11.560  0.2253  0.2485 -0.1420
 7028TIP3    H145279   5.039   6.359  11.629  0.8352  0.4063 -0.7355
 7028TIP3    H245280   4.957   6.408  11.511 -0.2817  0.1509 -0.0774
 7029TIP3   OH245281   0.712   4.944  10.199 -0.4555 -0.4300 -0.3781
 7029TIP3    H145282   0.639   5.006  10.209 -0.0072  0.2553 -1.2613
 7029TIP3    H245283   0.731   4.915  10.289 -2.1714 -1.0614 -0.1743
 7030TIP3   OH245284   5.960   0.569  12.004  0.2558 -0.6572  0.2345
 7030TIP3    H145285   6.040   0.577  12.056 -0.5982 -0.6767  1.5881
 7030TIP3    H245286   5.938   0.658  11.979  0.5063 -0.6167  0.1577
 7031TIP3   OH245287   1.990   5.632  10.610 -0.0373  0.1332  0.4095
 7031TIP3    H145288   1.994   5.662  10.519  0.9358  0.2765  0.4898
 7031TIP3    H245289   1.983   5.537  10.603  0.3233  0.1214  0.1845
 7032TIP3   OH245290   4.134   0.299  12.173  0.2760  0.2456  0.2631
 7032TIP3    H145291   4.156   0.378  12.222 -0.4009  0.5016  0.1658
 7032TIP3    H245292   4.179   0.228  12.220  0.5880  0.6393  0.5627
 7033TIP3   OH245293   4.331   1.970  10.191  0.2476 -0.1001  0.3464
 7033TIP3    H145294   4.409   1.916  10.189  1.1412  1.0987  1.2669
 7033TIP3    H245295   4.324   2.006  10.102 -0.0335 -1.2447 -0.1049
 7034TIP3   OH245296   1.960   5.427   9.198  0.1434 -0.6464 -0.3245
 7034TIP3    H145297   1.932   5.350   9.148  1.5443 -1.5534  0.2283
 7034TIP3    H245298   2.043   5.453   9.158 -0.2972  0.5782 -0.4773
 7035TIP3   OH245299   6.186   5.333  11.114 -0.1654 -0.1562 -0.2426
 7035TIP3    H145300   6.265   5.317  11.165 -0.1554  0.0876 -0.1826
 7035TIP3    H245301   6.217   5.333  11.023 -0.6151 -3.6298 -0.5520
 7036TIP3   OH245302   1.905   3.963  11.598 -0.5820  0.2366  0.0914
 7036TIP3    H145303   1.844   3.940  11.529  1.1864  0.2727 -1.5573
 7036TIP3    H245304   1.927   3.880  11.640 -2.4306  0.3284  1.3599
 7037TIP3   OH245305   4.344   1.843  11.088 -0.2537  0.5102  0.0993
 7037TIP3    H145306   4.366   1.932  11.061  0.5266  0.7676  1.5035
 7037TIP3    H245307   4.250   1.835  11.068 -0.3700  1.6806  0.0718
 7038TIP3   OH245308   1.928   6.629  20.482 -0.0490 -0.0467 -0.1621
 7038TIP3    H145309   1.943   6.571  20.557 -0.3600 -0.4759 -0.4337
 7038TIP3    H245310   1.944   6.575  20.405 -1.2788 -0.0436 -0.4351
 7039TIP3   OH245311   5.563   4.353   9.998  0.2276  0.6658  0.1233
 7039TIP3    H145312   5.547   4.375  10.090 -0.5668 -1.0237  0.4406
 7039TIP3    H245313   5.652   4.319   9.997  0.0357  0.1439  0.3882
 7040TIP3   OH245314   1.916   2.167  11.836 -0.5264 -0.8040 -0.4147
 7040TIP3    H145315   1.865   2.168  11.917 -1.0065 -0.4952 -0.7163
 7040TIP3    H245316   2.006   2.150  11.865 -0.6820 -0.6464  0.1856
 7041TIP3   OH245317   5.449   5.404  11.032 -0.1960  0.7672  0.2609
 7041TIP3    H145318   5.372   5.441  10.989  1.2248  0.7695 -2.5295
 7041TIP3    H245319   5.415   5.329  11.082 -2.0973  1.2997 -0.1593
 7042TIP3   OH245320   0.368   0.924  11.440  0.0598  0.1422 -0.9215
 7042TIP3    H145321   0.442   0.898  11.384 -0.5660  0.8031 -2.1132
 7042TIP3    H245322   0.377   1.019  11.448  1.0548 -0.0802  1.5124
 7043TIP3   OH245323   4.702   4.455  10.520  0.5666 -0.2677  0.2725
 7043TIP3    H145324   4.757   4.527  10.489  1.0937 -0.7202  0.1273
 7043TIP3    H245325   4.616   4.494  10.533  0.6927  0.2537 -0.3988
 7044TIP3   OH245326   4.735   3.050   9.916  0.3996 -0.1007  0.2735
 7044TIP3    H145327   4.769   3.059   9.827  1.2658 -2.0022  0.3726
 7044TIP3    H245328   4.762   3.130   9.960 -0.2981  1.0215 -1.2229
 7045TIP3   OH245329   2.780   6.643  11.570 -0.3268 -0.5309 -0.2881
 7045TIP3    H145330   2.722   6.672  11.500 -1.2081 -0.2685  0.5217
 7045TIP3    H245331   2.740   6.677  11.650  0.5627 -0.9609  0.3592
 7046TIP3   OH245332   1.785   1.052  11.746 -0.6452 -0.1442 -0.1139
 7046TIP3    H145333   1.820   1.074  11.660 -1.0274  1.2954  0.0701
 7046TIP3    H245334   1.825   1.115  11.805  1.0955 -2.2766  1.1490
 7047TIP3   OH245335   4.487   4.737  11.233  0.4664  0.6948  0.3769
 7047TIP3    H145336   4.507   4.644  11.223 -1.7874  0.3503 -2.2446
 7047TIP3    H245337   4.546   4.781  11.172  0.1592  0.7491  0.1148
 7048TIP3   OH245338   4.089   2.170  11.097  0.0770  0.1265 -0.2760
 7048TIP3    H145339   4.095   2.137  11.008 -1.5086  1.6396 -1.0146
 7048TIP3    H245340   4.141   2.109  11.150  2.0589 -0.1401 -2.3846
 7049TIP3   OH245341   5.641   3.430  10.529 -0.1657 -0.6367 -0.3482
 7049TIP3    H145342   5.700   3.409  10.458 -1.1212  3.3569 -2.6427
 7049TIP3    H245343   5.554   3.431  10.489 -0.7846  1.3164  0.8886
 7050TIP3   OH245344   5.627   3.512  11.301 -0.5631  0.0335  0.1979
 7050TIP3    H145345   5.710   3.488  11.259 -0.7166 -0.1955  0.0209
 7050TIP3    H245346   5.626   3.607  11.298  0.6816  0.1612  2.1231
 7051TIP3   OH245347   0.983   3.765  10.510 -0.1746 -0.2002  0.1969
 7051TIP3    H145348   0.969   3.680  10.466  0.6422 -0.1243 -0.2265
 7051TIP3    H245349   0.894   3.799  10.524 -0.6894 -2.2068  2.5971
 7052TIP3   OH245350   4.154   2.262  10.068  0.1361  0.9423 -0.2598
 7052TIP3    H145351   4.195   2.208  10.000  0.7071  0.9066  0.1067
 7052TIP3    H245352   4.168   2.352  10.038  0.9092  0.9455  0.1008
 7053TIP3   OH245353   0.382   3.618  13.115  0.4637  0.1750  0.8249
 7053TIP3    H145354   0.333   3.538  13.096  0.6964  0.2484 -0.1001
 7053TIP3    H245355   0.318   3.678  13.152 -0.6429  1.0073 -2.2242
 7054TIP3   OH245356   3.993   5.612  11.267 -0.0931  0.6243 -0.6143
 7054TIP3    H145357   4.042   5.571  11.195 -1.1287  0.0596 -1.0087
 7054TIP3    H245358   3.930   5.545  11.294  1.1688  0.2768  1.7673
 7055TIP3   OH245359   1.145   3.476   9.146  0.4628  0.1319 -0.3495
 7055TIP3    H145360   1.072   3.414   9.155 -0.2481  0.7504 -1.6696
 7055TIP3    H245361   1.135   3.536   9.220 -0.2148  0.0567 -0.3778
 7056TIP3   OH245362   3.157   0.053  10.313  0.0670 -0.7628 -0.4543
 7056TIP3    H145363   3.070   0.035  10.275  0.4906 -1.0879 -1.3075
 7056TIP3    H245364   3.188  -0.033  10.341 -1.0445 -0.3041  2.5177
 7057TIP3   OH245365   1.008   5.440   9.239 -0.0215  0.0607 -0.4380
 7057TIP3    H145366   1.018   5.532   9.214  1.0028  0.5884  1.7008
 7057TIP3    H245367   0.938   5.439   9.304 -0.1139 -0.6978 -0.5321
 7058TIP3   OH245368   3.028   2.831  10.506  0.1446  0.0239  0.4591
 7058TIP3    H145369   2.999   2.923  10.502  2.3681  1.0238  3.4577
 7058TIP3    H245370   2.972   2.786  10.444 -1.6503  3.2559 -0.5274
 7059TIP3   OH245371   6.196   1.507   9.634 -0.1109 -0.2186 -0.5101
 7059TIP3    H145372   6.125   1.490   9.572 -0.9692 -2.4702  0.9440
 7059TIP3    H245373   6.265   1.446   9.608 -0.7701 -1.7508  1.0510
 7060TIP3   OH245374   3.590   1.166   9.997  0.1488  0.1171 -0.3981
 7060TIP3    H145375   3.612   1.108   9.924  1.2313 -1.6948  1.2930
 7060TIP3    H245376   3.655   1.236   9.992  2.0728 -1.5136  0.4317
 7061TIP3   OH245377   3.932   2.395  10.972 -0.0038 -0.1425  0.0732
 7061TIP3    H145378   3.854   2.399  11.027  0.8391  0.2296  1.2818
 7061TIP3    H245379   3.994   2.343  11.023  1.1093  0.9487 -0.1266
 7062TIP3   OH245380   2.589   0.483  10.497  0.0219 -0.4614  0.0099
 7062TIP3    H145381   2.506   0.511  10.534  0.0937 -1.2155  0.7578
 7062TIP3    H245382   2.654   0.543  10.534 -0.1030 -0.2509 -0.1076
 7063TIP3   OH245383   0.837   5.812  12.836 -0.4692 -0.1957  0.5308
 7063TIP3    H145384   0.924   5.777  12.857 -1.0116 -1.3704  0.9397
 7063TIP3    H245385   0.854   5.900  12.804  0.9267 -0.6227 -0.0021
 7064TIP3   OH245386   4.112   0.536  12.680  0.2437 -0.1676  0.4696
 7064TIP3    H145387   4.167   0.607  12.714  1.1083 -1.3327  1.6051
 7064TIP3    H245388   4.171   0.483  12.626 -0.7956  0.8620 -1.8204
 7065TIP3   OH245389   0.912   2.258  10.116  0.1871  0.0459  0.6195
 7065TIP3    H145390   0.906   2.332  10.176 -0.4795  1.8343 -1.5114
 7065TIP3    H245391   0.998   2.267  10.075 -1.2008  1.9055 -2.2251
 7066TIP3   OH245392   2.312   4.254  10.725  0.4506 -0.3157 -0.0511
 7066TIP3    H145393   2.363   4.318  10.675 -2.2032 -0.5270 -3.3882
 7066TIP3    H245394   2.269   4.306  10.793  0.3237  1.0560 -1.1154
 7067TIP3   OH245395   2.484   1.995   9.376  0.1694 -0.6417  0.0467
 7067TIP3    H145396   2.443   1.985   9.290 -0.3624  3.7059 -0.4668
 7067TIP3    H245397   2.411   2.013   9.435  0.7222 -1.4457  1.0066
 7068TIP3   OH245398   6.437   4.259  10.992  0.1088 -0.1574  0.2332
 7068TIP3    H145399   6.466   4.294  11.076 -0.6214  0.8836  0.0691
 7068TIP3    H245400   6.496   4.297  10.928 -0.5765  0.6699  0.0735
 7069TIP3   OH245401   4.608   3.852  10.920  0.8712  0.0131  0.3183
 7069TIP3    H145402   4.559   3.773  10.941 -0.0708  0.2276 -0.9455
 7069TIP3    H245403   4.624   3.846  10.826  0.9386  1.2376  0.2272
 7070TIP3   OH245404   3.084   1.663  10.351 -0.0092 -0.3622  0.3401
 7070TIP3    H145405   3.136   1.596  10.306 -0.3883 -0.6860  0.3748
 7070TIP3    H245406   3.104   1.744  10.304  2.0067 -0.0962  1.5347
 7071TIP3   OH245407   4.247   2.215  10.305  0.6068 -0.2092  0.2292
 7071TIP3    H145408   4.286   2.128  10.295 -1.2745 -1.1382  0.4121
 7071TIP3    H245409   4.195   2.228  10.226 -0.2168  0.1279  0.8052
 7072TIP3   OH245410   0.111   2.849  10.473  0.0462  0.0564 -0.1646
 7072TIP3    H145411   0.187   2.867  10.417 -0.4388  0.5654 -0.6752
 7072TIP3    H245412   0.125   2.760  10.505  0.3868 -0.2129 -1.0259
 7073TIP3   OH245413   0.381   0.604  11.064 -0.2083  0.3393  0.3378
 7073TIP3    H145414   0.392   0.524  11.013 -1.2475 -0.3950  1.2112
 7073TIP3    H245415   0.300   0.642  11.030 -0.2698  0.4684  0.6310
 7074TIP3   OH245416   0.429   2.094   9.227 -0.0052 -0.1703 -0.2344
 7074TIP3    H145417   0.391   2.022   9.277  1.5785 -0.3594  0.7562
 7074TIP3    H245418   0.356   2.155   9.214 -0.8246 -0.8558  0.9432
 7075TIP3   OH245419   0.968   1.352  12.630  0.4692  0.7392 -0.4182
 7075TIP3    H145420   1.059   1.380  12.629  0.5102  0.6153  0.0353
 7075TIP3    H245421   0.922   1.422  12.676  0.5613  0.0976  0.6567
 7076TIP3   OH245422   4.338   1.179  11.461 -0.2301  0.0447 -0.5966
 7076TIP3    H145423   4.262   1.227  11.493 -0.0900 -0.6668  0.9045
 7076TIP3    H245424   4.303   1.097  11.427 -0.1959 -0.0260 -0.4630
 7077TIP3   OH245425   0.614   3.979  10.421 -0.0417 -0.6189  0.3830
 7077TIP3    H145426   0.676   4.028  10.475  0.9714 -2.2611  0.7798
 7077TIP3    H245427   0.633   4.006  10.332  1.1733 -0.9592  0.5113
 7078TIP3   OH245428   5.364   3.157  10.835  0.3497  0.3489 -0.0450
 7078TIP3    H145429   5.445   3.174  10.884 -0.4682  1.9511  0.8324
 7078TIP3    H245430   5.294   3.181  10.896 -0.9006 -2.5465 -0.1761
 7079TIP3   OH245431   4.780   3.551  11.330 -0.0281 -0.2961  0.2177
 7079TIP3    H145432   4.685   3.539  11.327 -0.0329 -0.4347  0.8851
 7079TIP3    H245433   4.815   3.468  11.297 -0.1351 -0.2280 -0.0727
 7080TIP3   OH245434   5.551   4.833  10.940 -0.0862  0.4842  0.6195
 7080TIP3    H145435   5.538   4.848  10.846  1.4429  0.9446  0.4460
 7080TIP3    H245436   5.535   4.919  10.980 -0.6122  0.3192  0.7593
 7081TIP3   OH245437   4.566   3.065  10.553  0.5365  0.6214  0.4602
 7081TIP3    H145438   4.474   3.090  10.556 -0.0019 -0.5342 -2.6661
 7081TIP3    H245439   4.611   3.144  10.524  0.0183  0.3898 -1.0968
 7082TIP3   OH245440   0.027   0.855  12.255 -0.4929  0.3443  0.3280
 7082TIP3    H145441  -0.010   0.859  12.343 -0.8279 -0.8483  0.2521
 7082TIP3    H245442  -0.016   0.781  12.213 -0.1294  0.7149 -0.7519
 7083TIP3   OH245443   2.616   3.007  11.775  0.1943 -0.4613 -0.7474
 7083TIP3    H145444   2.697   2.958  11.762  1.5543  0.7913  2.0662
 7083TIP3    H245445   2.645   3.097  11.787 -1.6449  0.0577  0.0579
 7084TIP3   OH245446   6.665   2.171  11.826 -0.0945  0.2293 -0.7849
 7084TIP3    H145447   6.752   2.199  11.856 -0.0112 -0.2596 -0.5577
 7084TIP3    H245448   6.682   2.099  11.766 -0.4104 -1.2203  0.7996
 7085TIP3   OH245449   4.044   1.600  10.801  0.0707  1.0634 -0.1921
 7085TIP3    H145450   4.038   1.656  10.879 -0.5388  0.8596 -0.0883
 7085TIP3    H245451   3.969   1.626  10.747  0.9782  1.8300 -1.1403
 7086TIP3   OH245452   5.591   3.808  11.292  0.2610 -0.3092 -0.5477
 7086TIP3    H145453   5.612   3.815  11.385 -0.2702  0.1661 -0.4634
 7086TIP3    H245454   5.631   3.886  11.253  0.1682 -0.3179 -0.6597
 7087TIP3   OH245455   3.457   1.212   9.663  0.6024 -0.2741  0.1048
 7087TIP3    H145456   3.374   1.168   9.645 -0.7617  2.5921 -1.1360
 7087TIP3    H245457   3.519   1.140   9.675 -2.1347 -2.5761  1.9493
 7088TIP3   OH245458   0.116   4.175  10.421 -0.3433 -0.1226  0.2152
 7088TIP3    H145459   0.068   4.126  10.488 -0.2897  1.5352  1.5310
 7088TIP3    H245460   0.049   4.196  10.355 -0.9627  0.3197  0.9644
 7089TIP3   OH245461   6.470   4.118  10.246 -0.0276 -0.6022  0.7369
 7089TIP3    H145462   6.450   4.148  10.334  0.2001  0.0017  0.5927
 7089TIP3    H245463   6.566   4.116  10.243  0.1567  2.9979 -0.6086
 7090TIP3   OH245464   6.564   0.319  10.197 -0.4553 -0.8857  0.0635
 7090TIP3    H145465   6.569   0.359  10.284  0.1931 -2.2424  0.6778
 7090TIP3    H245466   6.588   0.389  10.137  0.7128 -0.3561  1.1057
 7091TIP3   OH245467   0.757   6.624  11.225 -0.3173  0.5277 -0.1997
 7091TIP3    H145468   0.738   6.590  11.138 -0.3568  0.8079 -0.2992
 7091TIP3    H245469   0.852   6.630  11.228 -0.2923  0.1178 -0.0718
 7092TIP3   OH245470   0.929   5.609  11.132 -0.5468  0.6173  0.1131
 7092TIP3    H145471   0.890   5.689  11.096  1.9503  1.3567 -1.2060
 7092TIP3    H245472   0.937   5.626  11.226 -0.1434  1.9190 -0.1346
 7093TIP3   OH245473   0.373   4.815   9.886  0.3583 -0.0303 -0.1332
 7093TIP3    H145474   0.466   4.791   9.884  0.2442 -0.4558 -0.9896
 7093TIP3    H245475   0.372   4.909   9.868  0.5969 -0.1332 -0.7026
 7094TIP3   OH245476   4.750   0.374  11.599 -0.0733  0.0669  0.0073
 7094TIP3    H145477   4.682   0.419  11.549 -0.2073 -0.1741 -0.0244
 7094TIP3    H245478   4.713   0.364  11.687  0.3083  0.8338  0.2689
 7095TIP3   OH245479   5.391   4.183  11.426 -0.0094 -0.0892 -0.0911
 7095TIP3    H145480   5.329   4.114  11.450 -0.5039  0.8153  1.3092
 7095TIP3    H245481   5.338   4.248  11.381  0.4257 -0.5049 -1.2400
 7096TIP3   OH245482   4.387   0.576  11.788 -0.2662 -0.4744  0.1718
 7096TIP3    H145483   4.309   0.529  11.757 -1.1262 -0.0372  1.5937
 7096TIP3    H245484   4.368   0.596  11.880  1.8863 -1.0927  0.8047
 7097TIP3   OH245485   6.059   4.568  10.514 -0.2479 -0.0031 -0.2564
 7097TIP3    H145486   6.099   4.483  10.532  0.5955  0.2765 -0.7590
 7097TIP3    H245487   5.975   4.546  10.473 -0.8275 -0.5926  1.1699
 7098TIP3   OH245488   2.118   0.408  10.161 -0.1449 -0.0329 -0.0362
 7098TIP3    H145489   2.103   0.453  10.077 -1.2056  0.2207  0.2710
 7098TIP3    H245490   2.206   0.435  10.187 -0.0386  0.3703 -0.7775
 7099TIP3   OH245491   6.063   6.340   9.880  0.4429  0.0598 -0.3635
 7099TIP3    H145492   6.100   6.312   9.797  0.0410  0.0267 -0.5315
 7099TIP3    H245493   5.990   6.398   9.857 -0.1449 -0.5468 -0.0500
 7100TIP3   OH245494   2.759   3.577  11.658 -0.1958 -0.3481 -0.4125
 7100TIP3    H145495   2.705   3.525  11.599 -0.6266  0.9323 -1.2002
 7100TIP3    H245496   2.803   3.640  11.601 -1.9754  2.0936  0.7535
 7101TIP3   OH245497   1.333   4.518   9.936 -0.1392  0.7491 -0.3773
 7101TIP3    H145498   1.289   4.586   9.986  0.0389  0.3538  0.3405
 7101TIP3    H245499   1.425   4.524   9.962 -0.2230 -0.1715  0.1994
 7102TIP3   OH245500   5.117   4.453  11.883  0.2165 -0.1282 -0.3030
 7102TIP3    H145501   5.124   4.499  11.800  1.7901  0.2664  0.0074
 7102TIP3    H245502   5.171   4.375  11.872 -0.0803 -0.4037  0.1430
 7103TIP3   OH245503   3.847   3.056  11.464  0.5501  0.0720  0.2711
 7103TIP3    H145504   3.858   3.005  11.384  0.9044  0.9599 -0.2630
 7103TIP3    H245505   3.819   2.992  11.529 -1.3157 -0.4069 -0.9303
 7104TIP3   OH245506   2.045   0.685  12.002  0.0730 -0.0301 -0.1245
 7104TIP3    H145507   2.051   0.660  12.095  1.0863  0.1089 -0.1385
 7104TIP3    H245508   2.109   0.755  11.992  0.0508 -0.1217 -0.9615
 7105TIP3   OH245509   2.005   2.413  11.692  0.2504 -0.0692  0.0427
 7105TIP3    H145510   1.961   2.362  11.761  0.5714 -0.8682 -0.3319
 7105TIP3    H245511   2.076   2.357  11.662  0.5524  0.5646 -0.4584
 7106TIP3   OH245512   1.685   1.489  11.785 -0.2568 -0.1952 -0.3716
 7106TIP3    H145513   1.726   1.510  11.869 -0.5001  0.7657 -0.4756
 7106TIP3    H245514   1.700   1.567  11.732 -0.3955 -0.6641 -1.1115
 7107TIP3   OH245515   1.063   4.766  11.363 -0.8022 -0.2016  0.2196
 7107TIP3    H145516   1.051   4.858  11.387 -0.6532 -0.0176 -0.3937
 7107TIP3    H245517   1.157   4.750  11.375 -0.3868  0.3677 -1.7735
 7108TIP3   OH245518   3.496   3.892   9.218  0.0064 -0.5384 -0.1479
 7108TIP3    H145519   3.490   3.848   9.134  1.3925  0.2181 -0.6778
 7108TIP3    H245520   3.412   3.938   9.227 -0.2001 -0.7180 -1.0549
 7109TIP3   OH245521   4.341   5.282  11.048  0.4470  0.0888 -0.3967
 7109TIP3    H145522   4.296   5.203  11.077 -0.8962  0.3748 -1.6093
 7109TIP3    H245523   4.379   5.259  10.963 -0.5679  0.9227 -1.1028
 7110TIP3   OH245524   0.064   6.330  10.399 -1.0754  0.0497  0.1291
 7110TIP3    H145525   0.039   6.249  10.443  0.1318  0.0204  0.8201
 7110TIP3    H245526   0.053   6.398  10.466  0.0612  0.1162  0.2672
 7111TIP3   OH245527   2.684   0.173  11.156  0.5453 -0.2886  0.6120
 7111TIP3    H145528   2.686   0.087  11.116  0.2731 -0.4827  1.0098
 7111TIP3    H245529   2.621   0.223  11.104 -0.2649 -0.7234  1.1571
 7112TIP3   OH245530   3.059   2.910   9.666  0.6096  0.3313  0.4207
 7112TIP3    H145531   3.128   2.925   9.602 -0.7404  0.1795 -1.1367
 7112TIP3    H245532   3.087   2.833   9.715  1.2052 -0.1403 -0.6410
 7113TIP3   OH245533   0.696   2.731   8.999 -0.1846 -0.0947 -0.1209
 7113TIP3    H145534   0.702   2.732   8.903  0.5531  1.1992 -0.0777
 7113TIP3    H245535   0.778   2.692   9.028 -1.0776 -2.0477 -0.0094
 7114TIP3   OH245536   1.953   2.078  11.176  0.1017  0.4768  0.3265
 7114TIP3    H145537   1.967   2.056  11.084  0.7246  0.4685  0.4176
 7114TIP3    H245538   1.876   2.028  11.201 -1.9066  2.6842 -0.9783
 7115TIP3   OH245539   3.923   0.691  12.549 -0.0207 -0.3241  0.7661
 7115TIP3    H145540   3.893   0.739  12.626  0.7832  0.7245  0.4491
 7115TIP3    H245541   3.969   0.615  12.585  0.1484  0.0335  1.3218
 7116TIP3   OH245542   3.288   2.115  10.271  0.4692  0.2649 -0.2881
 7116TIP3    H145543   3.325   2.141  10.187 -1.8085  0.1095 -1.4291
 7116TIP3    H245544   3.245   2.194  10.304  2.0960  0.5639  1.2032
 7117TIP3   OH245545   5.046   0.401  11.644  0.0812  0.3622 -0.2127
 7117TIP3    H145546   5.028   0.492  11.667 -1.4795  0.0996 -0.2797
 7117TIP3    H245547   4.959   0.362  11.631  0.5974 -1.7417  2.0583
 7118TIP3   OH245548   2.881   3.863  10.094  0.0584  0.3813  0.3791
 7118TIP3    H145549   2.909   3.931  10.033 -2.9612  3.1241  1.7527
 7118TIP3    H245550   2.822   3.807  10.043 -0.5479  1.2072  0.1516
 7119TIP3   OH245551   0.759   6.597  10.644 -0.7559 -0.1244  0.6944
 7119TIP3    H145552   0.680   6.648  10.626 -1.0069 -0.4086  0.9916
 7119TIP3    H245553   0.825   6.633  10.584 -1.1992 -0.1142  0.2038
 7120TIP3   OH245554   2.697   4.368  10.515 -0.0493  0.1444 -0.5041
 7120TIP3    H145555   2.713   4.279  10.485  1.0855 -0.2522  1.0836
 7120TIP3    H245556   2.602   4.376  10.519 -0.1654 -0.9782 -0.7334
 7121TIP3   OH245557   5.554   2.467  10.727  0.1497  0.5225 -0.3763
 7121TIP3    H145558   5.493   2.540  10.739 -0.8275 -0.2295 -0.5638
 7121TIP3    H245559   5.629   2.488  10.783 -1.7304 -0.1138  2.6579
 7122TIP3   OH245560   5.728   0.359  10.557 -0.3377 -0.1697 -0.1204
 7122TIP3    H145561   5.757   0.419  10.488  1.0717 -0.3750  0.2543
 7122TIP3    H245562   5.792   0.371  10.627 -1.7312  0.0104  1.1606
 7123TIP3   OH245563   3.319   4.799  11.059 -0.2704 -0.6367 -0.2095
 7123TIP3    H145564   3.395   4.781  11.115 -1.1864 -0.3967  1.1336
 7123TIP3    H245565   3.279   4.713  11.045 -0.5988 -0.5739  0.3270
 7124TIP3   OH245566   0.563   1.937  10.231  0.1214  0.6730  0.1177
 7124TIP3    H145567   0.565   1.870  10.299 -1.0454  0.3026 -0.2000
 7124TIP3    H245568   0.646   1.984  10.242  0.2016  0.2659  1.4230
 7125TIP3   OH245569   2.827   0.379  11.258 -0.0575 -0.8562  0.3103
 7125TIP3    H145570   2.917   0.375  11.225 -0.1328  0.0698 -0.0359
 7125TIP3    H245571   2.782   0.307  11.215  0.6533 -1.6924  0.9292
 7126TIP3   OH245572   2.339   4.783   9.372 -0.0123  0.1935  0.0524
 7126TIP3    H145573   2.413   4.725   9.394 -0.4366  0.0402  1.1886
 7126TIP3    H245574   2.376   4.871   9.373  0.0525  0.1756  1.2589
 7127TIP3   OH245575   2.938   5.201  10.872 -0.3613 -0.6336 -0.2893
 7127TIP3    H145576   2.967   5.130  10.929 -2.1072 -0.6432  0.6589
 7127TIP3    H245577   3.011   5.215  10.811  1.4307 -0.8759  1.7006
 7128TIP3   OH245578   6.712   5.061  11.126 -0.0462 -0.7544 -0.8647
 7128TIP3    H145579   6.697   4.967  11.112  0.2400 -0.8633 -0.4449
 7128TIP3    H245580   6.779   5.085  11.062  3.9117 -2.0093  2.4413
 7129TIP3   OH245581   4.742   5.362  10.462  0.0349  0.4054 -0.4388
 7129TIP3    H145582   4.748   5.267  10.476 -0.9573  0.4001  0.0868
 7129TIP3    H245583   4.680   5.370  10.389  0.9541  0.6186 -1.2014
 7130TIP3   OH245584   2.521   4.422  11.253 -0.3389 -0.4437  0.4661
 7130TIP3    H145585   2.479   4.498  11.212 -2.1717 -1.1475  0.9446
 7130TIP3    H245586   2.573   4.383  11.183 -2.6102 -1.0553 -0.9795
 7131TIP3   OH245587   4.181   0.955   9.694 -0.8077  0.7408  0.2576
 7131TIP3    H145588   4.258   0.942   9.638 -0.7907 -0.7885  0.5976
 7131TIP3    H245589   4.175   0.874   9.745 -2.0114  1.2898  1.0133
 7132TIP3   OH245590   3.532   6.253  11.036 -0.0581 -0.0775 -0.0547
 7132TIP3    H145591   3.477   6.203  11.096  1.1035 -0.1417  0.9830
 7132TIP3    H245592   3.494   6.340  11.035  0.4245  0.1701  1.4896
 7133TIP3   OH245593   6.518   3.188  10.925  0.0847  0.3389  0.3708
 7133TIP3    H145594   6.567   3.113  10.892  1.1769  1.4998 -0.7977
 7133TIP3    H245595   6.514   3.175  11.020  1.4050 -0.5408  0.3302
 7134TIP3   OH245596   5.650   1.317  10.792  0.0568 -0.1698  0.3612
 7134TIP3    H145597   5.568   1.284  10.828 -1.6796  3.9313  0.8007
 7134TIP3    H245598   5.713   1.310  10.864 -0.5672 -1.1823  0.8203
 7135TIP3   OH245599   0.424   1.573  11.906 -0.2268 -0.3124 -0.0325
 7135TIP3    H145600   0.477   1.542  11.833 -0.1839  0.7744 -0.4766
 7135TIP3    H245601   0.482   1.630  11.955 -0.6391 -0.0425  0.1436
 7136TIP3   OH245602   6.511   1.016   9.634 -0.1140  0.0657 -0.4689
 7136TIP3    H145603   6.472   1.089   9.682 -1.1757 -0.6706 -0.1779
 7136TIP3    H245604   6.562   1.058   9.565 -1.5359  1.0807 -0.9506
 7137TIP3   OH245605   0.164   5.551  11.804 -0.8068 -0.3053  0.2572
 7137TIP3    H145606   0.245   5.512  11.834 -0.6231 -0.0511  0.0994
 7137TIP3    H245607   0.135   5.495  11.732  1.5639  2.0022 -2.7531
 7138TIP3   OH245608   4.341   0.129  10.494 -0.6135  0.6251 -0.4667
 7138TIP3    H145609   4.345   0.185  10.572  0.0329  0.2968 -0.2584
 7138TIP3    H245610   4.285   0.178  10.433 -4.0797 -0.6577  1.4100
 7139TIP3   OH245611   0.160   6.223  12.080  0.6282 -0.3924  0.5417
 7139TIP3    H145612   0.086   6.244  12.138 -0.7388 -4.1890  0.4456
 7139TIP3    H245613   0.123   6.223  11.992  0.4006 -2.9735  0.5442
 7140TIP3   OH245614   2.773   5.747  11.674 -0.0977 -0.1662  0.0930
 7140TIP3    H145615   2.780   5.825  11.619  1.0171  0.2132  0.7316
 7140TIP3    H245616   2.682   5.746  11.702 -0.9733 -0.8751 -2.4433
 7141TIP3   OH245617   0.326   0.163  11.360 -0.1149  0.0351 -0.5403
 7141TIP3    H145618   0.409   0.118  11.344 -0.0243  0.5158 -1.4891
 7141TIP3    H245619   0.289   0.178  11.273 -1.2363 -0.2247 -0.1254
 7142TIP3   OH245620   1.148   5.985  12.087 -0.2461 -0.3767 -0.0747
 7142TIP3    H145621   1.125   5.892  12.077 -0.5973 -0.1803 -1.1573
 7142TIP3    H245622   1.064   6.028  12.104 -0.2793 -0.0657 -1.0119
 7143TIP3   OH245623   0.995   5.408  12.285 -0.0445  0.0175  0.0992
 7143TIP3    H145624   1.043   5.353  12.223  3.0491 -0.3429  2.5929
 7143TIP3    H245625   0.954   5.346  12.345  0.2073  0.3906  0.6597
 7144TIP3   OH245626   1.151   6.354   9.265 -0.6619  0.3188  0.1797
 7144TIP3    H145627   1.151   6.286   9.332 -2.5837  1.0305  0.9667
 7144TIP3    H245628   1.120   6.432   9.310  1.2173  1.6879 -0.7745
 7145TIP3   OH245629   4.278   5.550  10.036 -0.0400  0.0016  0.1359
 7145TIP3    H145630   4.297   5.609   9.964 -1.2504  1.7721  1.2028
 7145TIP3    H245631   4.334   5.580  10.108 -1.4316  0.6237  1.0227
 7146TIP3   OH245632   6.340   3.737  12.989  0.5672 -0.7053  0.2944
 7146TIP3    H145633   6.380   3.806  13.042  0.8982 -0.9832  0.4138
 7146TIP3    H245634   6.255   3.721  13.030  0.3386 -0.1248  0.0543
 7147TIP3   OH245635   3.217   2.048  10.763 -0.0405 -0.0725  0.1216
 7147TIP3    H145636   3.309   2.024  10.754  0.0247  0.1709  0.1554
 7147TIP3    H245637   3.173   2.000  10.693  0.0910 -0.3006  0.1924
 7148TIP3   OH245638   5.488   1.098  11.877  0.3351 -0.5422  0.0870
 7148TIP3    H145639   5.405   1.108  11.831  0.4114  0.2785  0.1140
 7148TIP3    H245640   5.467   1.115  11.969  0.5868 -0.0376  0.0522
 7149TIP3   OH245641   1.935   3.329   9.367  0.0916 -0.0684 -0.5025
 7149TIP3    H145642   1.847   3.353   9.396 -0.4395 -2.3103 -0.0545
 7149TIP3    H245643   1.987   3.408   9.379 -1.5139  0.8585  0.7150
 7150TIP3   OH245644   5.380   2.723  11.512  0.0086 -0.2426 -0.4003
 7150TIP3    H145645   5.311   2.787  11.495  0.1805  0.6494  1.9707
 7150TIP3    H245646   5.445   2.741  11.443 -0.5693  1.2257 -0.6162
 7151TIP3   OH245647   5.610   3.116   9.953  0.3349  0.1903  0.1691
 7151TIP3    H145648   5.702   3.091   9.942  0.5772  1.8969 -2.8077
 7151TIP3    H245649   5.586   3.157   9.870 -3.5725 -1.4050  0.2823
 7152TIP3   OH245650   0.668   5.756   9.254  0.0020 -0.5820 -0.2480
 7152TIP3    H145651   0.581   5.746   9.292  0.5831  1.5239  1.8877
 7152TIP3    H245652   0.674   5.849   9.230  1.4948 -0.7708 -0.7360
 7153TIP3   OH245653   5.128   0.447  11.351 -1.1547  0.4806  0.6063
 7153TIP3    H145654   5.053   0.445  11.410 -1.3720 -0.4721  0.3212
 7153TIP3    H245655   5.186   0.378  11.383 -2.2697 -1.6041 -1.4892
 7154TIP3   OH245656   4.256   3.718  11.484  0.3459  0.1757 -0.2510
 7154TIP3    H145657   4.216   3.687  11.403  1.7676  1.4310 -1.4933
 7154TIP3    H245658   4.199   3.684  11.553 -2.4219  1.2256 -1.8472
 7155TIP3   OH245659   4.120   6.564  11.654  0.3423  0.3096  0.2239
 7155TIP3    H145660   4.176   6.499  11.696 -2.5879 -3.0915 -0.6676
 7155TIP3    H245661   4.075   6.516  11.585 -3.1999  2.8865  0.4830
 7156TIP3   OH245662   2.968   6.368  11.895  0.4500 -0.3010  0.3960
 7156TIP3    H145663   2.963   6.457  11.930  1.0333 -0.9128  2.1447
 7156TIP3    H245664   2.941   6.376  11.804  0.8326  1.7201  0.4282
 7157TIP3   OH245665   3.411   5.866  11.429  0.1219 -0.3194  0.0814
 7157TIP3    H145666   3.471   5.846  11.357  0.9308 -1.4915  1.0388
 7157TIP3    H245667   3.324   5.868  11.387  0.6621 -0.0772 -1.0706
 7158TIP3   OH245668   2.015   2.678  11.636 -0.0182 -0.2103 -0.4411
 7158TIP3    H145669   2.013   2.583  11.652  2.2315 -0.5574 -1.7802
 7158TIP3    H245670   2.005   2.685  11.541  0.3761  0.8580 -0.4116
 7159TIP3   OH245671   2.629   0.519  11.369 -0.0026  0.2493 -0.0877
 7159TIP3    H145672   2.577   0.539  11.292  0.9857  0.0713 -0.8192
 7159TIP3    H245673   2.700   0.463  11.337 -0.5445 -1.2954  1.2404
 7160TIP3   OH245674   1.604   5.562  10.564  0.3388 -0.0786 -0.3505
 7160TIP3    H145675   1.546   5.630  10.531  1.3724  1.1960  0.3491
 7160TIP3    H245676   1.675   5.558  10.499  0.1862 -0.6372 -0.4875
 7161TIP3   OH245677   5.997   4.191  11.754 -0.5156 -0.4626  0.1105
 7161TIP3    H145678   5.972   4.283  11.757 -0.7120 -0.4706 -1.0899
 7161TIP3    H245679   6.075   4.186  11.809 -1.5658  0.0552  1.7121
 7162TIP3   OH245680   0.502   3.200   9.568 -0.2970  0.3299 -0.3220
 7162TIP3    H145681   0.444   3.136   9.609 -0.9756  0.6580 -0.7562
 7162TIP3    H245682   0.590   3.167   9.586 -0.6279 -0.6178 -0.3700
 7163TIP3   OH245683   0.573   0.046  11.375 -0.2202 -0.2711  0.6015
 7163TIP3    H145684   0.637  -0.012  11.333 -0.5796  0.7180 -1.4350
 7163TIP3    H245685   0.589   0.036  11.469  0.1262 -3.1895  0.3209
 7164TIP3   OH245686   3.252   6.606   9.397 -0.1206  0.2365 -0.0413
 7164TIP3    H145687   3.192   6.662   9.444 -0.4358  1.8495 -2.1986
 7164TIP3    H245688   3.204   6.523   9.386 -1.1508  0.8110  0.0187
 7165TIP3   OH245689   2.484   3.598   9.765  0.0455  0.3036 -0.4642
 7165TIP3    H145690   2.557   3.561   9.716 -0.8605 -2.2987 -0.0482
 7165TIP3    H245691   2.478   3.544   9.844 -0.1424  2.7384  1.3238
 7166TIP3   OH245692   5.755   2.095   9.494  0.0949 -0.2328 -0.1240
 7166TIP3    H145693   5.812   2.125   9.565 -1.5392 -0.9685  1.6213
 7166TIP3    H245694   5.731   2.006   9.519 -1.5335 -0.0656 -0.9196
 7167TIP3   OH245695   1.958   0.762  12.850  0.4186 -0.2867  0.1145
 7167TIP3    H145696   2.031   0.823  12.860  0.1869  0.0661 -0.3216
 7167TIP3    H245697   1.880   0.815  12.869  0.2387 -0.5289  0.0505
 7168TIP3   OH245698   3.125   3.325  11.237  0.4147  0.5171  0.1227
 7168TIP3    H145699   3.058   3.384  11.272  0.1953 -0.4576  1.4415
 7168TIP3    H245700   3.170   3.291  11.315  1.6503  0.2306 -0.6833
 7169TIP3   OH245701   0.144   2.052  10.396  0.1087  0.2911 -0.6163
 7169TIP3    H145702   0.144   2.066  10.301  0.6430  1.2103 -0.5047
 7169TIP3    H245703   0.078   2.113  10.429  1.3062  1.4593 -0.2497
 7170TIP3   OH245704   1.328   0.684  11.310  0.0452  0.1184 -0.4214
 7170TIP3    H145705   1.392   0.722  11.370  0.5486 -0.8057 -0.3609
 7170TIP3    H245706   1.257   0.749  11.307 -0.5731 -0.3286  2.1140
 7171TIP3   OH245707   2.868   5.679   9.862 -0.3851  0.5760  0.0808
 7171TIP3    H145708   2.774   5.669   9.844 -0.2342 -0.4461 -0.1807
 7171TIP3    H245709   2.898   5.743   9.798 -0.6863  0.0652 -0.5834
 7172TIP3   OH245710   0.576   6.732  10.917  1.0685 -0.4501  0.4098
 7172TIP3    H145711   0.505   6.725  10.853 -0.4936  1.3752  1.8333
 7172TIP3    H245712   0.620   6.647  10.912  1.5340 -0.1772 -3.5419
 7173TIP3   OH245713   2.817   6.534  10.847 -0.0169  0.1069  0.0188
 7173TIP3    H145714   2.790   6.463  10.905 -0.2823  1.4132  1.5437
 7173TIP3    H245715   2.739   6.588  10.837 -0.0849 -0.2651 -1.8834
 7174TIP3   OH245716   1.316   1.142  10.414  0.4290  0.0770  0.4124
 7174TIP3    H145717   1.234   1.186  10.391  0.2871 -0.2343  0.3179
 7174TIP3    H245718   1.384   1.207  10.396  0.2115  0.2971  0.3846
 7175TIP3   OH245719   0.442   3.155   9.216 -0.1572 -0.8141 -0.7752
 7175TIP3    H145720   0.417   3.113   9.299  1.6133 -2.1571 -0.8675
 7175TIP3    H245721   0.458   3.082   9.157  3.8971 -0.1851 -0.7008
 7176TIP3   OH245722   1.486   3.300  10.835 -0.3353 -0.4008 -0.1496
 7176TIP3    H145723   1.449   3.217  10.805 -0.5380 -1.3939  2.5596
 7176TIP3    H245724   1.454   3.364  10.772 -0.0329 -2.3441 -2.4433
 7177TIP3   OH245725   2.612   4.666   9.568 -0.2380  0.2213  0.0474
 7177TIP3    H145726   2.668   4.603   9.524 -0.8073 -2.3631  2.6733
 7177TIP3    H245727   2.663   4.747   9.570  1.2140 -0.5716 -2.0605
 7178TIP3   OH245728   0.688   1.813  11.081 -0.6988  0.3807  0.0438
 7178TIP3    H145729   0.643   1.772  11.007  1.2155 -0.3039 -0.8192
 7178TIP3    H245730   0.717   1.740  11.135 -1.3708  0.8427  1.0533
 7179TIP3   OH245731   2.920   3.170  11.044  0.0297 -0.4821  0.1444
 7179TIP3    H145732   2.912   3.166  11.139 -0.2388 -1.6575  0.0779
 7179TIP3    H245733   2.894   3.083  11.013 -1.6235  0.3990 -1.1262
 7180TIP3   OH245734   5.258   0.691  11.288 -0.6595  0.3657  0.2343
 7180TIP3    H145735   5.349   0.679  11.313 -0.6451  2.2908  1.3525
 7180TIP3    H245736   5.218   0.605  11.297  1.0033 -0.4760 -0.1729
 7181TIP3   OH245737   3.685   3.525   9.290  0.3695  0.6752 -0.2540
 7181TIP3    H145738   3.616   3.565   9.342  0.4270 -1.7204  1.8882
 7181TIP3    H245739   3.647   3.443   9.258  1.9637 -0.4356  0.5112
 7182TIP3   OH245740   1.906   6.303  12.699 -0.2732  0.0714 -0.2808
 7182TIP3    H145741   1.897   6.356  12.620  0.6886 -0.2298 -0.6073
 7182TIP3    H245742   1.819   6.304  12.739 -0.6654  0.5573 -1.1265
 7183TIP3   OH245743   4.194   1.589  11.375 -0.1769  0.1441 -0.1680
 7183TIP3    H145744   4.221   1.629  11.458  0.0818  1.7396 -0.9818
 7183TIP3    H245745   4.274   1.551  11.339  0.3733  2.0535 -1.0574
 7184TIP3   OH245746   3.262   6.273  10.480 -0.5276 -0.3655  0.4661
 7184TIP3    H145747   3.353   6.258  10.454  0.3001  0.8343  2.4787
 7184TIP3    H245748   3.222   6.186  10.478  0.6503 -0.9165 -0.4130
 7185TIP3   OH245749   6.577   0.019   9.862 -0.2574  0.5429 -0.2025
 7185TIP3    H145750   6.606   0.052   9.776  1.3186  0.4321  0.2532
 7185TIP3    H245751   6.567  -0.075   9.850 -3.2084  0.8700 -1.0802
 7186TIP3   OH245752   5.226   2.929  11.423 -0.4041  0.0682 -0.2694
 7186TIP3    H145753   5.284   2.998  11.391  1.1176 -2.0211 -2.2747
 7186TIP3    H245754   5.184   2.894  11.345 -0.8352 -1.5470  0.6379
 7187TIP3   OH245755   3.374   0.623  11.148  0.0275  0.0916  0.0812
 7187TIP3    H145756   3.403   0.630  11.239  0.3673 -1.6455  0.1482
 7187TIP3    H245757   3.378   0.712  11.114  1.0480  0.5864  1.4233
 7188TIP3   OH245758   2.890   0.046  10.201  0.4485 -0.1837  0.2003
 7188TIP3    H145759   2.887  -0.050  10.195 -2.1611 -0.3479  2.2717
 7188TIP3    H245760   2.839   0.076  10.125  1.0942 -0.4385 -0.3377
 7189TIP3   OH245761   3.513   0.250   9.934 -0.2850 -0.6271  0.1710
 7189TIP3    H145762   3.600   0.270   9.969 -0.0082 -0.8486 -0.3826
 7189TIP3    H245763   3.456   0.253  10.011 -0.1777  1.7202  0.2460
 7190TIP3   OH245764   5.150   5.505   9.668  0.6649  0.3126  0.2554
 7190TIP3    H145765   5.082   5.473   9.728  1.0123  0.5289  0.7733
 7190TIP3    H245766   5.107   5.507   9.583 -0.5519  2.1688  0.8466
 7191TIP3   OH245767   3.629   0.505  11.799 -0.0052 -0.0781 -0.1831
 7191TIP3    H145768   3.670   0.589  11.820  0.3151 -0.3486  0.2797
 7191TIP3    H245769   3.702   0.444  11.792 -0.3888 -0.8353  1.8786
 7192TIP3   OH245770   4.912   0.650  11.616  0.5363 -0.2927 -0.0115
 7192TIP3    H145771   4.877   0.582  11.558 -0.8284  0.5893 -0.2574
 7192TIP3    H245772   4.835   0.682  11.664  1.5351 -0.5822  1.8696
 7193TIP3   OH245773   1.860   1.051  12.525  0.0383 -0.0403 -0.4424
 7193TIP3    H145774   1.831   0.963  12.501  0.8030 -0.3889 -0.1339
 7193TIP3    H245775   1.923   1.037  12.597 -0.8446  0.8501  0.5439
 7194TIP3   OH245776   2.724   3.082  10.262  0.0346  0.3839  0.1732
 7194TIP3    H145777   2.690   3.037  10.184  1.3005 -2.9855  1.3804
 7194TIP3    H245778   2.649   3.131  10.296 -1.9324 -1.9198 -0.5799
 7195TIP3   OH245779   5.940   0.382  10.714 -0.1094 -0.0167 -1.1162
 7195TIP3    H145780   5.986   0.319  10.659  0.0759  0.0212 -1.0025
 7195TIP3    H245781   5.976   0.369  10.802  0.8392  1.1275 -1.3277
 7196TIP3   OH245782   3.897   0.352  12.711  0.3164  0.2653 -0.3712
 7196TIP3    H145783   3.964   0.296  12.673  0.4475  1.2323 -1.6477
 7196TIP3    H245784   3.944   0.432  12.736  0.0353  0.0476  0.8767
 7197TIP3   OH245785   0.266   3.580   8.932 -0.1533  0.2586 -0.1148
 7197TIP3    H145786   0.315   3.498   8.934  0.4540  0.6236  0.2766
 7197TIP3    H245787   0.281   3.616   8.844 -1.5704 -0.7168 -0.7973
 7198TIP3   OH245788   3.855   6.277   9.342 -0.5399 -0.2325 -0.1445
 7198TIP3    H145789   3.929   6.217   9.354 -0.7390 -0.3640  0.4639
 7198TIP3    H245790   3.892   6.363   9.357 -0.0501 -0.0973 -1.8926
 7199TIP3   OH245791   1.025   1.310  11.297 -0.3389 -0.2447 -0.4343
 7199TIP3    H145792   0.997   1.397  11.327 -0.8641  0.0422 -1.6868
 7199TIP3    H245793   1.055   1.266  11.376  0.5252  1.3024  0.1507
 7200TIP3   OH245794   2.539   0.898   9.765 -0.8619 -0.3865  0.2555
 7200TIP3    H145795   2.607   0.872   9.704 -1.9692 -0.0421 -1.1757
 7200TIP3    H245796   2.467   0.928   9.710 -3.0286 -2.7242  1.6032
 7201TIP3   OH245797   1.688   4.957  11.496 -0.2023 -0.4100 -0.2675
 7201TIP3    H145798   1.615   5.014  11.472  0.0962  0.5362  0.9736
 7201TIP3    H245799   1.763   4.992  11.449 -0.2089 -0.3618 -0.2421
 7202TIP3   OH245800   2.180   5.257  10.057 -0.3364  0.5024  0.1845
 7202TIP3    H145801   2.252   5.209  10.015  0.5849  2.7989 -1.0599
 7202TIP3    H245802   2.101   5.210  10.030  0.5746 -1.2509  0.3939
 7203TIP3   OH245803   3.220   2.367   9.574 -0.6643 -0.1537  0.6651
 7203TIP3    H145804   3.271   2.291   9.546 -0.5584  0.5533 -1.2137
 7203TIP3    H245805   3.132   2.332   9.590 -0.6326 -0.6780 -0.2306
 7204TIP3   OH245806   0.300   5.921  12.505  0.0921  0.1997 -0.0914
 7204TIP3    H145807   0.283   5.827  12.512  0.6139  0.1537  0.7006
 7204TIP3    H245808   0.237   5.952  12.440  0.9246 -0.9689 -1.5319
 7205TIP3   OH245809   6.367   3.904  11.961 -0.2637 -0.1401 -0.7470
 7205TIP3    H145810   6.293   3.866  12.008  0.3065 -0.4929 -0.1046
 7205TIP3    H245811   6.380   3.847  11.886  0.3554 -1.0367  0.0149
 7206TIP3   OH245812   1.065   6.235  12.319 -0.3101 -0.2992 -0.2091
 7206TIP3    H145813   1.040   6.212  12.408 -0.0682  0.1055 -0.0346
 7206TIP3    H245814   0.987   6.277  12.282 -0.5855 -0.9353 -0.3656
 7207TIP3   OH245815   2.825   2.002  11.262  0.1339 -0.3544  0.2951
 7207TIP3    H145816   2.882   1.979  11.336 -0.2571 -0.6334  0.5112
 7207TIP3    H245817   2.779   1.921  11.241 -1.6058  0.2979  1.3542
 7208TIP3   OH245818   1.815   1.223  10.956  0.3168  0.4321 -0.0247
 7208TIP3    H145819   1.872   1.182  10.891  0.3444 -0.0844  0.3226
 7208TIP3    H245820   1.740   1.165  10.963  0.0410  0.7858 -0.0167
 7209TIP3   OH245821   1.679   0.932  10.372  0.1348 -0.0680  0.0780
 7209TIP3    H145822   1.684   0.932  10.468  2.5451  0.2940  0.0116
 7209TIP3    H245823   1.708   1.019  10.346  3.1404 -1.2451 -1.0018
 7210TIP3   OH245824   6.343   5.458  11.599  0.1932  0.4519  0.1019
 7210TIP3    H145825   6.350   5.374  11.552 -0.1851  0.4294  0.0849
 7210TIP3    H245826   6.254   5.458  11.634  0.7298  0.0935  1.5370
 7211TIP3   OH245827   1.914   0.608  10.583 -0.1606  0.1342 -0.0228
 7211TIP3    H145828   1.972   0.567  10.519  0.2113  1.3985 -0.5225
 7211TIP3    H245829   1.905   0.543  10.653 -0.0656 -1.0155 -1.0479
 7212TIP3   OH245830   0.444   4.690  10.936 -0.2475 -0.2122  0.0429
 7212TIP3    H145831   0.438   4.682  10.840 -0.3692  0.2379  0.0106
 7212TIP3    H245832   0.479   4.606  10.965  1.7090  0.3325 -0.5638
 7213TIP3   OH245833   4.971   4.243  11.985 -0.4019  0.1936  0.4025
 7213TIP3    H145834   5.041   4.303  11.958 -0.0472  0.0738  1.0209
 7213TIP3    H245835   4.912   4.297  12.038  1.0207 -0.3869  2.7669
 7214TIP3   OH245836   5.579   5.537  12.220  0.0417  0.6214  0.3756
 7214TIP3    H145837   5.550   5.624  12.246 -2.6729 -0.1589  0.2321
 7214TIP3    H245838   5.583   5.487  12.301 -0.5709  0.3188  0.2278
 7215TIP3   OH245839   1.350   1.550  10.464 -0.1063 -0.9043  0.5191
 7215TIP3    H145840   1.295   1.491  10.413  0.4130 -0.0370 -1.0911
 7215TIP3    H245841   1.288   1.608  10.509 -0.5491 -0.3677 -0.7489
 7216TIP3   OH245842   6.592   2.258  10.224 -0.4440  0.1420 -0.9425
 7216TIP3    H145843   6.678   2.272  10.264 -0.6886  2.7664 -1.2194
 7216TIP3    H245844   6.563   2.173  10.260  1.2845  0.2616  0.9063
 7217TIP3   OH245845   4.800   3.880  12.659 -0.2490  1.4918  0.1548
 7217TIP3    H145846   4.892   3.853  12.656 -0.1384  1.8132  0.5102
 7217TIP3    H245847   4.789   3.916  12.747 -1.4335 -0.9766  1.1038
 7218TIP3   OH245848   2.604   5.871  12.101 -0.0337 -0.1656 -0.0398
 7218TIP3    H145849   2.696   5.883  12.125 -0.2023 -2.0637  1.9898
 7218TIP3    H245850   2.605   5.800  12.037 -0.0764 -0.1316 -0.0785
 7219TIP3   OH245851   4.230   4.326   9.487 -0.6756 -0.5857  0.2927
 7219TIP3    H145852   4.178   4.398   9.522 -0.4095 -0.4010  0.3073
 7219TIP3    H245853   4.312   4.366   9.457  1.1977 -1.3288  3.8413
 7220TIP3   OH245854   3.571   1.569   9.328 -0.0293  0.0557  0.3008
 7220TIP3    H145855   3.591   1.568   9.421  0.6770  1.4507  0.1877
 7220TIP3    H245856   3.599   1.483   9.296 -0.2882 -0.4371  1.3618
 7221TIP3   OH245857   5.971   2.269  11.936  0.4763  0.3837  0.2382
 7221TIP3    H145858   5.894   2.226  11.900  1.3896 -2.0401  0.9242
 7221TIP3    H245859   5.938   2.348  11.977 -1.6205 -0.4696  0.3324
 7222TIP3   OH245860   1.230   6.548  11.165  0.0154 -0.0033  0.5202
 7222TIP3    H145861   1.294   6.528  11.233  2.6149  3.0568 -0.7956
 7222TIP3    H245862   1.173   6.614  11.205  0.1520  0.1668  0.4333
 7223TIP3   OH245863   0.380   3.594   9.190  0.1427 -0.3337  0.2478
 7223TIP3    H145864   0.394   3.688   9.180  2.0541 -0.7624 -1.9984
 7223TIP3    H245865   0.326   3.569   9.114  2.5362 -1.4957 -1.1955
 7224TIP3   OH245866   0.752   3.535  10.431  0.0214  0.1803 -0.0041
 7224TIP3    H145867   0.735   3.592  10.505 -0.4250 -0.7369  0.6154
 7224TIP3    H245868   0.720   3.583  10.355 -1.4916  0.2466  0.6510
 7225TIP3   OH245869   4.188   2.393  12.013 -0.2943 -0.6836  0.4392
 7225TIP3    H145870   4.236   2.431  11.940 -0.1128  2.5933  2.0918
 7225TIP3    H245871   4.255   2.355  12.069 -0.2037 -1.0361  0.0967
 7226TIP3   OH245872   2.423   2.945  10.359 -0.3431  0.1732 -0.0570
 7226TIP3    H145873   2.349   2.991  10.398  0.3451 -0.5483  2.3080
 7226TIP3    H245874   2.420   2.857  10.398  0.2334 -0.7339 -1.9536
 7227TIP3   OH245875   0.288   3.544  11.239  0.3508 -0.1433  0.0646
 7227TIP3    H145876   0.285   3.541  11.335 -1.3208 -0.0177  0.0392
 7227TIP3    H245877   0.343   3.620  11.220 -1.5864  1.6038  0.9959
 7228TIP3   OH245878   4.605   4.570   9.502 -0.2619  0.8543  0.4811
 7228TIP3    H145879   4.616   4.627   9.426 -2.4927  1.0298  0.2245
 7228TIP3    H245880   4.583   4.629   9.574  0.3516  0.5552  0.9240
 7229TIP3   OH245881   5.862   4.946  12.832  0.2485  0.2666 -0.0856
 7229TIP3    H145882   5.924   4.877  12.811  1.9137  1.3026  1.1080
 7229TIP3    H245883   5.872   5.010  12.762 -0.1553  0.0269 -0.3681
 7230TIP3   OH245884   3.426   0.467  10.261 -0.6622  0.3061 -0.1603
 7230TIP3    H145885   3.339   0.438  10.232 -0.5209 -0.4940  0.1880
 7230TIP3    H245886   3.459   0.395  10.314  0.5361  0.2814 -0.8980
 7231TIP3   OH245887   4.577   4.833  11.713 -0.0027  0.1503  0.1864
 7231TIP3    H145888   4.662   4.839  11.757  0.3231  2.1440 -0.5866
 7231TIP3    H245889   4.591   4.876  11.629 -1.1609 -1.6724 -0.9987
 7232TIP3   OH245890   3.083   3.813  11.558  0.0442 -0.8040  0.3978
 7232TIP3    H145891   3.044   3.799  11.644 -0.3415 -1.0065  0.1936
 7232TIP3    H245892   3.167   3.855  11.576 -0.2943 -0.3068  0.8363
 7233TIP3   OH245893   5.196   4.879  11.447 -0.3782 -0.7360  0.0807
 7233TIP3    H145894   5.237   4.877  11.534 -1.2131  1.1827  0.5710
 7233TIP3    H245895   5.105   4.903  11.464 -0.5228 -0.1800 -1.3435
 7234TIP3   OH245896   6.276   1.572   9.889 -0.0961 -0.1342 -0.2913
 7234TIP3    H145897   6.239   1.547   9.804  0.2312 -0.3485 -0.3702
 7234TIP3    H245898   6.218   1.531   9.953  0.5771 -1.3276 -0.4157
 7235TIP3   OH245899   4.281   0.685  10.640  0.9425 -0.4635  0.2893
 7235TIP3    H145900   4.188   0.689  10.665  0.9915  0.4654  0.3619
 7235TIP3    H245901   4.284   0.622  10.568  0.5779 -2.0927  1.6263
 7236TIP3   OH245902   3.379   5.691   9.569 -0.0674  0.5252  0.1883
 7236TIP3    H145903   3.292   5.655   9.590 -0.3108  0.0884 -1.4756
 7236TIP3    H245904   3.431   5.615   9.546 -0.2788  1.0639 -2.3091
 7237TIP3   OH245905   0.851   1.103  10.878 -0.4824  0.0017  0.1394
 7237TIP3    H145906   0.786   1.104  10.808 -1.2080 -0.3836  0.7805
 7237TIP3    H245907   0.922   1.048  10.845 -0.4874  0.4125 -0.5672
 7238TIP3   OH245908   4.761   2.338  11.650 -0.2976  0.3237  0.8509
 7238TIP3    H145909   4.803   2.312  11.568 -0.2369  3.2617 -0.1799
 7238TIP3    H245910   4.833   2.359  11.709 -0.3093  0.4312  0.8288
 7239TIP3   OH245911   5.216   1.227  10.663  0.0012 -0.0607  0.6464
 7239TIP3    H145912   5.139   1.281  10.646 -0.6809 -1.4073 -0.7268
 7239TIP3    H245913   5.208   1.204  10.756 -1.2670 -0.1961  0.5226
 7240TIP3   OH245914   6.624   2.855  10.195  0.2293  0.4885 -0.6021
 7240TIP3    H145915   6.674   2.814  10.124  0.2098  0.5054 -0.6254
 7240TIP3    H245916   6.675   2.932  10.218  1.0960 -0.3777  0.5041
 7241TIP3   OH245917   3.155   6.176  11.396  0.0229  0.0236 -1.1406
 7241TIP3    H145918   3.133   6.220  11.314 -1.6962 -2.1681 -1.9392
 7241TIP3    H245919   3.157   6.083  11.375  1.3446 -0.5026  0.9464
 7242TIP3   OH245920   1.254   6.120  11.006  0.2550 -0.3225 -0.1592
 7242TIP3    H145921   1.328   6.085  11.054 -0.2449  0.1095  0.9650
 7242TIP3    H245922   1.289   6.140  10.919  2.2610  2.5464  1.1311
 7243TIP3   OH245923   5.748   0.652   9.774 -0.0500  0.4872 -0.3532
 7243TIP3    H145924   5.802   0.716   9.820  1.7556 -0.8367 -0.5329
 7243TIP3    H245925   5.740   0.579   9.835 -1.1467  0.4016 -0.5809
 7244TIP3   OH245926   1.741   2.748  13.145  0.5048 -0.1624 -0.3458
 7244TIP3    H145927   1.728   2.708  13.059  1.8539 -1.6397  0.0855
 7244TIP3    H245928   1.751   2.674  13.204  1.3520  0.8181  0.7938
 7245TIP3   OH245929   4.970   0.033  10.045  0.2854 -0.6633  0.5467
 7245TIP3    H145930   4.994  -0.058  10.058 -0.3915 -0.6864  1.7694
 7245TIP3    H245931   5.032   0.083  10.098 -0.6085 -0.5662  1.5500
 7246TIP3   OH245932   4.128   5.466  11.070  0.1983  0.3362  0.5727
 7246TIP3    H145933   4.184   5.391  11.053 -0.9907 -1.3152  3.2492
 7246TIP3    H245934   4.155   5.531  11.006  2.4342 -1.7529 -0.7831
 7247TIP3   OH245935   3.058   2.013  10.997 -0.0938 -0.5556  0.6908
 7247TIP3    H145936   3.106   2.045  10.921 -2.7129  0.7006 -0.5673
 7247TIP3    H245937   3.055   2.088  11.056 -2.2470  0.1393 -0.2063
 7248TIP3   OH245938   4.771   3.364  11.715  0.0850  0.4920  0.4019
 7248TIP3    H145939   4.810   3.277  11.718  0.4947  0.6858  0.8397
 7248TIP3    H245940   4.704   3.362  11.784 -1.4667 -0.1971 -1.0661
 7249TIP3   OH245941   0.439   2.613  10.620 -0.2065  0.2185  0.1661
 7249TIP3    H145942   0.411   2.527  10.651 -0.6398  1.3390  3.2797
 7249TIP3    H245943   0.517   2.633  10.671  1.7627  0.5013 -2.7053
 7250TIP3   OH245944   6.557   4.917  10.538  0.1644  0.0733 -0.1250
 7250TIP3    H145945   6.565   5.012  10.532  0.9378 -0.0235 -0.8712
 7250TIP3    H245946   6.626   4.890  10.598  0.3885 -0.0713 -0.4416
 7251TIP3   OH245947   1.576   2.981   9.335 -0.0494 -0.3013 -0.1609
 7251TIP3    H145948   1.527   2.905   9.368 -0.7506 -0.5653 -1.7097
 7251TIP3    H245949   1.543   3.055   9.387  0.3838 -0.9750  1.1229
 7252TIP3   OH245950   5.618   1.907  10.236 -0.2859 -0.2459 -0.5900
 7252TIP3    H145951   5.529   1.931  10.208 -0.3455 -2.3832 -2.5401
 7252TIP3    H245952   5.674   1.976  10.200 -1.0861  1.0224  0.4929
 7253TIP3   OH245953   4.449   2.505   8.801 -0.5438  0.0139  0.2211
 7253TIP3    H145954   4.433   2.418   8.764  0.8659  0.1365 -0.7682
 7253TIP3    H245955   4.542   2.505   8.823 -0.1341  1.7598 -1.2217
 7254TIP3   OH245956   0.676   1.356  11.976 -0.6954  0.3832  0.7112
 7254TIP3    H145957   0.666   1.272  12.020  1.9761  0.3192  1.4070
 7254TIP3    H245958   0.671   1.421  12.046 -0.0608  0.5597  0.6069
 7255TIP3   OH245959   6.625   4.083  11.264  0.5358  0.7218  0.0587
 7255TIP3    H145960   6.664   4.137  11.196  0.1112 -0.7514 -1.4311
 7255TIP3    H245961   6.691   4.080  11.333  2.6536 -0.7507 -1.8693
 7256TIP3   OH245962   4.495   3.824   9.499  0.0217 -0.5168 -0.2924
 7256TIP3    H145963   4.466   3.915   9.499  1.2416 -0.0919  0.6018
 7256TIP3    H245964   4.586   3.828   9.529  0.5131 -1.9214 -1.4742
 7257TIP3   OH245965   0.198   5.840  11.414 -0.0207 -0.6005 -0.1073
 7257TIP3    H145966   0.188   5.915  11.472  2.7548 -0.9194  0.9553
 7257TIP3    H245967   0.207   5.878  11.326 -0.5935  0.1519  0.1570
 7258TIP3   OH245968   0.365   2.466  11.230 -0.0914  0.7839 -0.5172
 7258TIP3    H145969   0.363   2.544  11.286 -0.3206  1.0122 -0.8377
 7258TIP3    H245970   0.377   2.501  11.141 -0.3249  0.4622 -0.6776
 7259TIP3   OH245971   3.395   2.732   9.707  0.3064  0.4553 -0.4811
 7259TIP3    H145972   3.311   2.686   9.709  0.3198  0.1899 -2.9593
 7259TIP3    H245973   3.397   2.782   9.788 -2.3502  0.6206 -0.4270
 7260TIP3   OH245974   2.227   4.691  11.863  0.0929 -0.1893  0.0419
 7260TIP3    H145975   2.177   4.773  11.865  0.9364  0.3170  1.9141
 7260TIP3    H245976   2.185   4.640  11.793 -2.1921  0.7500  0.6203
 7261TIP3   OH245977   6.276   2.413   9.911 -0.3594 -0.0769  0.0495
 7261TIP3    H145978   6.187   2.430   9.881  0.0460 -0.8304 -1.6893
 7261TIP3    H245979   6.296   2.325   9.878  1.6400  0.7624 -1.1771
 7262TIP3   OH245980   3.563   4.495   8.999 -0.3285  0.2116 -0.1906
 7262TIP3    H145981   3.585   4.483   8.907  1.6874  0.0339  0.2645
 7262TIP3    H245982   3.621   4.435   9.046 -0.7271  0.8930  1.2370
 7263TIP3   OH245983   2.221   2.377  11.297  0.3624  0.2732 -0.2549
 7263TIP3    H145984   2.272   2.455  11.320  0.3963  0.4258 -0.8349
 7263TIP3    H245985   2.277   2.329  11.237  0.1581  0.0215 -0.2456
 7264TIP3   OH245986   6.424   3.126  11.419 -0.5541  0.0147  0.1076
 7264TIP3    H145987   6.496   3.063  11.428  0.2162  1.0178  1.1697
 7264TIP3    H245988   6.467   3.211  11.420 -1.6919  0.6097 -0.2032
 7265TIP3   OH245989   0.054   0.180  20.139 -0.3014  0.4752 -0.4153
 7265TIP3    H145990  -0.013   0.188  20.207 -0.7098  0.7930 -0.8453
 7265TIP3    H245991   0.006   0.154  20.060  0.3206 -1.0894 -0.3169
 7266TIP3   OH245992   4.746   3.991   9.316  0.2386 -0.2289 -0.2986
 7266TIP3    H145993   4.655   4.008   9.340  0.5153 -0.0612  0.6806
 7266TIP3    H245994   4.744   3.906   9.273 -0.9257  1.3227 -3.7128
 7267TIP3   OH245995   0.310   4.382   9.880 -0.5390  0.0048 -0.0617
 7267TIP3    H145996   0.369   4.325   9.929 -0.5854  0.2429  0.2786
 7267TIP3    H245997   0.357   4.401   9.798 -1.4289 -2.2679 -1.1654
 7268TIP3   OH245998   2.590   0.036  11.370 -0.2725  0.0903 -0.0090
 7268TIP3    H145999   2.662   0.049  11.309 -2.4435  1.4211 -2.4660
 7268TIP3    H246000   2.571  -0.058  11.365  1.1685 -0.2687  0.6270
 7269TIP3   OH246001   6.290   4.773  12.833  0.4049  0.2650 -0.2060
 7269TIP3    H146002   6.232   4.846  12.852  0.0062  0.3397 -1.6137
 7269TIP3    H246003   6.377   4.803  12.859 -0.0014  0.5854  0.8180
 7270TIP3   OH246004   6.331   1.979   9.429 -0.2968 -0.3716  0.0874
 7270TIP3    H146005   6.257   1.958   9.486 -0.1646  0.9129  0.7837
 7270TIP3    H246006   6.367   1.894   9.404 -1.9289 -1.0213 -0.1877
 7271TIP3   OH246007   5.640   1.106  10.142 -0.2671  0.3259  0.1847
 7271TIP3    H146008   5.652   1.187  10.093 -1.9264  0.9871  0.7922
 7271TIP3    H246009   5.634   1.135  10.234  0.2481 -0.6170  0.5254
 7272TIP3   OH246010   2.078   0.549   9.652  0.9317  0.4776 -0.1207
 7272TIP3    H146011   1.991   0.584   9.630  1.5535  2.6664  0.6175
 7272TIP3    H246012   2.122   0.539   9.568  0.1162 -0.2390 -0.4708
 7273TIP3   OH246013   1.379   3.344  13.047  0.2414 -0.3005 -0.0293
 7273TIP3    H146014   1.440   3.270  13.043 -1.7213 -1.9720 -3.1120
 7273TIP3    H246015   1.426   3.416  13.003  0.1233 -1.5353 -2.3097
 7274TIP3   OH246016   5.809   0.739  11.217 -0.1769  0.5387 -0.2755
 7274TIP3    H146017   5.830   0.825  11.253 -0.3333 -0.4895  2.5050
 7274TIP3    H246018   5.875   0.681  11.255 -0.5803 -0.7138 -1.4275
 7275TIP3   OH246019   3.033   1.863   9.415 -0.0225 -0.2696 -0.8621
 7275TIP3    H146020   3.101   1.873   9.349  0.2194  1.0878 -0.4379
 7275TIP3    H246021   2.966   1.928   9.391  0.4333  0.8226  0.6273
 7276TIP3   OH246022   6.159   6.695   9.898  0.4058 -0.2082  0.1985
 7276TIP3    H146023   6.247   6.713   9.932  0.1025  1.4967  0.1816
 7276TIP3    H246024   6.160   6.731   9.809 -0.4222  0.2003  0.3442
 7277TIP3   OH246025   5.591   5.379  10.284  0.1119 -0.2802 -0.3689
 7277TIP3    H146026   5.530   5.450  10.305  1.2024  0.3633  0.7349
 7277TIP3    H246027   5.676   5.422  10.273  0.8320 -1.4255  0.5115
 7278TIP3   OH246028   0.525   2.789   9.919  0.2332  0.0175  0.1007
 7278TIP3    H146029   0.465   2.714   9.918  1.4189 -0.9619 -0.9845
 7278TIP3    H246030   0.580   2.774   9.996 -0.9901  1.0346  1.2276
 7279TIP3   OH246031   0.949   3.947  11.264  0.2735  0.0927 -0.0047
 7279TIP3    H146032   0.977   4.006  11.333  1.0693 -1.4690  1.0809
 7279TIP3    H246033   0.993   3.864  11.284 -1.3786 -1.0976 -0.9959
 7280TIP3   OH246034   5.962   6.605  11.475  0.5965  0.0083  0.0246
 7280TIP3    H146035   5.930   6.618  11.564 -0.7295 -1.0935 -0.2602
 7280TIP3    H246036   5.889   6.564  11.429  1.9418 -1.2804 -1.0539
 7281TIP3   OH246037   2.552   3.429  10.002  0.1924  0.3741  0.3845
 7281TIP3    H146038   2.635   3.451  10.044  0.6564 -0.8745  0.1537
 7281TIP3    H246039   2.515   3.359  10.056  0.0116 -0.1180 -0.3594
 7282TIP3   OH246040   5.722   5.306  11.212  0.3165  0.1076 -0.4390
 7282TIP3    H146041   5.711   5.399  11.232 -1.7044  0.0911 -1.2086
 7282TIP3    H246042   5.677   5.261  11.283  0.3602 -0.2436 -0.6327
 7283TIP3   OH246043   3.802   1.998  10.390 -0.2913  0.0091 -0.4253
 7283TIP3    H146044   3.857   2.064  10.432  1.8315 -0.8129 -1.7703
 7283TIP3    H246045   3.816   1.918  10.441 -0.5749 -0.1271 -0.5550
 7284TIP3   OH246046   2.170   3.574  11.972  0.4281 -0.1141  0.8803
 7284TIP3    H146047   2.253   3.559  11.927  0.8818 -0.6446  1.8521
 7284TIP3    H246048   2.174   3.517  12.049  0.2825  1.7472  2.3363
 7285TIP3   OH246049   3.408   2.081  12.134  0.5252 -0.6762  0.2940
 7285TIP3    H146050   3.342   2.012  12.131 -0.3524  0.1558 -1.8374
 7285TIP3    H246051   3.361   2.157  12.169  0.7187 -0.4453  0.0576
 7286TIP3   OH246052   0.652   0.751  10.778  0.6570 -0.5260  0.0448
 7286TIP3    H146053   0.673   0.831  10.731 -0.7644 -0.1633  0.0017
 7286TIP3    H246054   0.642   0.685  10.710 -1.9739  0.1224 -0.2778
 7287TIP3   OH246055   1.296   2.847  10.499 -0.4611 -0.3898 -0.1732
 7287TIP3    H146056   1.261   2.933  10.475  1.2850  0.8372  1.3704
 7287TIP3    H246057   1.391   2.859  10.499 -0.1677 -2.4094 -0.1444
 7288TIP3   OH246058   5.902   2.595   9.252  0.1544 -0.3556 -0.6890
 7288TIP3    H146059   5.974   2.544   9.290 -0.4064 -0.5796  0.0984
 7288TIP3    H246060   5.869   2.540   9.181  0.1440 -0.6859 -0.4327
 7289TIP3   OH246061   0.574   5.888  12.711  0.1853 -0.6725 -0.2490
 7289TIP3    H146062   0.524   5.809  12.731 -0.6866 -0.4030 -1.2264
 7289TIP3    H246063   0.601   5.922  12.796 -0.3747 -1.4289  0.2417
 7290TIP3   OH246064   0.880   2.543   9.841 -0.1311 -0.3051  0.6459
 7290TIP3    H146065   0.845   2.457   9.862  0.7768 -0.4896  1.4681
 7290TIP3    H246066   0.963   2.525   9.796  0.3698  0.1426  1.3785
 7291TIP3   OH246067   2.299   0.108  11.987 -0.8235  0.6599 -0.2096
 7291TIP3    H146068   2.309   0.013  11.978  2.8252  0.8320  0.6464
 7291TIP3    H246069   2.348   0.145  11.914  0.6630  1.8441  1.3108
 7292TIP3   OH246070   0.511   3.380  12.513 -0.6048 -0.1868  0.6779
 7292TIP3    H146071   0.541   3.445  12.577 -1.5349 -0.9229  1.9119
 7292TIP3    H246072   0.560   3.300  12.535 -0.1523 -0.1679 -0.2261
 7293TIP3   OH246073   5.347   2.217  11.335  0.1650  0.8002 -0.3745
 7293TIP3    H146074   5.345   2.303  11.376  2.9547 -0.6471  3.3238
 7293TIP3    H246075   5.440   2.198  11.322 -0.3229 -1.7948 -0.6766
 7294TIP3   OH246076   3.276   3.244   9.846 -0.8075  0.5049 -0.7657
 7294TIP3    H146077   3.354   3.191   9.866 -0.8595 -0.6858 -3.2539
 7294TIP3    H246078   3.221   3.236   9.923  1.5347  1.4404  1.0999
 7295TIP3   OH246079   1.490   4.661  11.039  0.2493 -0.1644  0.2197
 7295TIP3    H146080   1.442   4.736  11.004 -1.3695 -0.8596  0.8398
 7295TIP3    H246081   1.525   4.691  11.123  0.4839  0.1930 -0.0032
 7296TIP3   OH246082   2.468   2.466  10.816  0.5995  1.2634 -0.0592
 7296TIP3    H146083   2.398   2.474  10.751  1.2921 -0.2518 -1.0580
 7296TIP3    H246084   2.440   2.521  10.889 -1.6089  0.7569 -0.4405
 7297TIP3   OH246085   1.992   3.121  11.634 -0.9603  0.1054 -0.0748
 7297TIP3    H146086   2.037   3.162  11.561 -0.6291 -1.6457 -0.9174
 7297TIP3    H246087   1.971   3.193  11.694  2.2382  1.0973  0.0059
 7298TIP3   OH246088   6.086   2.086  10.932 -0.0394  0.4687 -0.1250
 7298TIP3    H146089   6.042   2.133  11.003  1.3926 -0.4986  1.4725
 7298TIP3    H246090   6.025   2.093  10.858 -0.4331  3.7981  0.3263
 7299TIP3   OH246091   0.286   4.420  11.827  0.8090 -0.3086  0.9114
 7299TIP3    H146092   0.362   4.462  11.785 -0.1257  0.3350 -0.1934
 7299TIP3    H246093   0.267   4.344  11.773 -0.9101  0.9805 -0.3899
 7300TIP3   OH246094   1.054   4.414   9.288 -0.5105  0.1442  0.1991
 7300TIP3    H146095   1.119   4.483   9.301 -2.1764  1.5656  1.6639
 7300TIP3    H246096   1.010   4.438   9.206  0.2217 -0.3453 -0.3490
 7301TIP3   OH246097   2.318   5.404  10.529  0.4370  0.7598  0.0344
 7301TIP3    H146098   2.301   5.348  10.454  1.5858 -0.4202  0.6245
 7301TIP3    H246099   2.329   5.492  10.492  0.7723  0.2349 -1.1303
 7302TIP3   OH246100   2.712   1.888  11.855 -0.1728 -0.3377  0.2849
 7302TIP3    H146101   2.665   1.968  11.876 -0.8010 -0.1493 -1.6254
 7302TIP3    H246102   2.804   1.915  11.850 -0.2295 -0.0201  0.8747
 7303TIP3   OH246103   1.555   5.559  12.720  0.7598  0.9270 -0.5559
 7303TIP3    H146104   1.463   5.577  12.699  1.7400  1.9762 -4.9538
 7303TIP3    H246105   1.594   5.646  12.733  1.4580  0.5700 -0.2125
 7304TIP3   OH246106   2.233   4.619  10.231 -0.5576  0.3795  0.2049
 7304TIP3    H146107   2.207   4.561  10.159  0.4086  0.8254 -0.5187
 7304TIP3    H246108   2.291   4.683  10.190  0.7581  0.0782  1.5630
 7305TIP3   OH246109   3.241   1.076  12.348  0.4701 -0.3041 -0.1790
 7305TIP3    H146110   3.199   1.123  12.420  0.4558  0.4667 -0.6830
 7305TIP3    H246111   3.298   1.012  12.391  0.2638 -0.0268  0.5173
 7306TIP3   OH246112   2.567   3.274  11.247 -0.2702 -0.3899 -0.5522
 7306TIP3    H146113   2.600   3.292  11.159  3.7075  0.0562  0.8096
 7306TIP3    H246114   2.613   3.338  11.303 -0.3038 -2.5677  2.1822
 7307TIP3   OH246115   0.592   6.333   9.608 -0.5661  0.6825  0.7036
 7307TIP3    H146116   0.512   6.352   9.559 -0.2939 -0.8239 -0.4096
 7307TIP3    H246117   0.660   6.326   9.541 -0.4870 -3.1381  0.9637
 7308TIP3   OH246118   5.718   3.328   9.759 -0.1783  0.3494  0.3138
 7308TIP3    H146119   5.811   3.311   9.771 -0.2380  0.4159  0.8967
 7308TIP3    H246120   5.709   3.349   9.666  0.1792 -0.9344 -0.0271
 7309TIP3   OH246121   1.745   5.362   9.894  0.0380 -0.3480 -0.1728
 7309TIP3    H146122   1.707   5.409   9.969 -1.0334 -0.0311 -0.8913
 7309TIP3    H246123   1.689   5.386   9.820 -0.0013 -2.0514 -0.7408
 7310TIP3   OH246124   4.397   5.272  10.341  0.0519  0.0140  0.3540
 7310TIP3    H146125   4.362   5.319  10.416 -0.8283 -3.0080  2.0211
 7310TIP3    H246126   4.320   5.255  10.286  0.1637 -0.3157  0.2950
 7311TIP3   OH246127   1.815   1.672   9.377 -0.6161 -0.0779  0.3604
 7311TIP3    H146128   1.836   1.762   9.399  0.9325 -0.7229  1.7675
 7311TIP3    H246129   1.750   1.645   9.443  0.3696 -0.5446  1.1649
 7312TIP3   OH246130   0.674   5.609  11.531  0.1752  0.5432  0.3499
 7312TIP3    H146131   0.683   5.704  11.537  0.8287  0.8087 -3.2195
 7312TIP3    H246132   0.595   5.596  11.478  1.2499 -0.8044 -0.9964
 7313TIP3   OH246133   2.652   2.822   9.481  0.5285  0.2748 -0.0480
 7313TIP3    H146134   2.570   2.778   9.503  0.7120 -1.1662 -1.9024
 7313TIP3    H246135   2.673   2.790   9.393  1.9923  2.2491 -0.4887
 7314TIP3   OH246136   0.947   2.684  12.356 -0.2201  0.1847  0.3259
 7314TIP3    H146137   1.032   2.665  12.398  0.2864 -1.0036 -1.1638
 7314TIP3    H246138   0.884   2.633  12.407  0.5531 -2.2189 -0.9619
 7315TIP3   OH246139   4.321   6.081  10.173  0.7079 -0.2788  0.3227
 7315TIP3    H146140   4.380   6.103  10.246  2.2219 -1.4379 -0.5098
 7315TIP3    H246141   4.335   6.151  10.109  1.0801 -0.4908  0.1757
 7316TIP3   OH246142   4.766   6.054   9.952 -0.0362 -0.0707 -0.0601
 7316TIP3    H146143   4.856   6.038   9.923 -0.1060 -0.8046  0.1236
 7316TIP3    H246144   4.771   6.061  10.047 -0.2560 -0.7264  0.0064
 7317TIP3   OH246145   0.620   4.126  11.258  0.4394 -0.8462  0.4103
 7317TIP3    H146146   0.701   4.159  11.219  0.5465 -1.3829  0.1785
 7317TIP3    H246147   0.570   4.092  11.185 -0.9758  1.4259  0.2030
 7318TIP3   OH246148   5.460   6.648   9.610 -0.1180  0.7636 -0.0807
 7318TIP3    H146149   5.417   6.582   9.556  0.2030 -0.4604  1.0896
 7318TIP3    H246150   5.394   6.717   9.621 -1.1049 -0.1789  0.0894
 7319TIP3   OH246151   2.171   0.200  11.684  0.0821 -0.3903 -0.5908
 7319TIP3    H146152   2.162   0.246  11.600  1.5955 -0.4719 -0.8181
 7319TIP3    H246153   2.258   0.161  11.681  0.3443 -0.0162  1.2185
 7320TIP3   OH246154   6.684   6.344  11.587 -0.4573 -0.2868  0.2378
 7320TIP3    H146155   6.680   6.301  11.501 -2.8829 -1.1547  0.7233
 7320TIP3    H246156   6.594   6.370  11.606 -0.1789 -0.9778  2.9306
 7321TIP3   OH246157   0.196   2.040  12.526 -0.2379 -0.4680 -0.0598
 7321TIP3    H146158   0.210   2.115  12.583  1.2667 -1.1644  0.5470
 7321TIP3    H246159   0.244   2.061  12.446 -0.0732 -0.6453 -0.0084
 7322TIP3   OH246160   3.845   1.650   9.966 -0.0193 -0.2024  0.1401
 7322TIP3    H146161   3.933   1.626   9.935  0.7821  1.0260  1.3649
 7322TIP3    H246162   3.799   1.567   9.972  0.9208 -0.8373 -0.9068
 7323TIP3   OH246163   0.664   1.954  10.833  0.0466  0.0049 -0.0340
 7323TIP3    H146164   0.670   2.046  10.810 -1.2210  0.2223  0.4029
 7323TIP3    H246165   0.744   1.915  10.798  0.8426  1.3523  0.2108
 7324TIP3   OH246166   0.291   3.570  12.603 -0.3359 -0.2522  0.0545
 7324TIP3    H146167   0.332   3.521  12.675 -1.5836 -1.8405 -0.2705
 7324TIP3    H246168   0.297   3.512  12.528  0.1309  1.0279 -0.9399
 7325TIP3   OH246169   4.859   1.785  11.970  0.0938  0.2952  0.6248
 7325TIP3    H146170   4.798   1.719  12.004 -0.1130  0.8747  1.4077
 7325TIP3    H246171   4.802   1.849  11.927  0.4277 -1.4339 -2.8192
 7326TIP3   OH246172   4.143   2.592  12.263 -0.1312  0.4749 -0.9397
 7326TIP3    H146173   4.211   2.612  12.328  0.0308 -0.3265 -0.8517
 7326TIP3    H246174   4.065   2.573  12.315  0.4179 -1.8540 -0.8423
 7327TIP3   OH246175   1.660   3.908  12.394  0.2587 -0.5491 -0.2247
 7327TIP3    H146176   1.683   3.824  12.433 -2.0793 -1.5734 -0.8447
 7327TIP3    H246177   1.674   3.897  12.301  1.7744  0.4493 -0.1481
 7328TIP3   OH246178   2.366   3.079  12.646 -0.3955  0.6092  0.3445
 7328TIP3    H146179   2.390   3.107  12.734  0.4352  0.9444  0.0223
 7328TIP3    H246180   2.323   2.994  12.658  1.2627 -0.1778  0.9134
 7329TIP3   OH246181   3.726   2.667   9.140  0.3293  0.0729  0.1369
 7329TIP3    H146182   3.729   2.625   9.054 -0.2311  1.4592 -0.5893
 7329TIP3    H246183   3.785   2.742   9.132 -1.5541  1.6219  0.1462
 7330TIP3   OH246184   5.650   6.705  12.394  0.4051  0.5103 -0.3433
 7330TIP3    H146185   5.702   6.778  12.428  1.7828 -1.3262  1.7975
 7330TIP3    H246186   5.560   6.724  12.422  0.7370  1.4062  0.1585
 7331TIP3   OH246187   3.525   2.904  12.007  0.1131  0.4881  0.0667
 7331TIP3    H146188   3.537   2.896  12.102  0.0089  0.8329  0.1103
 7331TIP3    H246189   3.435   2.874  11.991 -0.1127  1.1034  0.1679
 7332TIP3   OH246190   2.644   5.761  10.500  0.0931 -0.7096 -0.2533
 7332TIP3    H146191   2.626   5.844  10.543 -0.7445  0.6905 -3.0673
 7332TIP3    H246192   2.664   5.700  10.571  2.8821  2.3275  1.8429
 7333TIP3   OH246193   4.995   0.216  10.953 -0.5528  0.3464 -0.1579
 7333TIP3    H146194   5.057   0.282  10.985 -0.4034 -0.2152  0.7450
 7333TIP3    H246195   4.992   0.230  10.859  2.2624 -0.6631 -0.5184
 7334TIP3   OH246196   2.127   1.491  12.209 -0.0171 -0.2576 -0.1946
 7334TIP3    H146197   2.060   1.434  12.174  1.1363 -1.6055 -0.2933
 7334TIP3    H246198   2.113   1.489  12.304 -0.2821 -0.3041 -0.2342
 7335TIP3   OH246199   2.891   3.651  11.896 -0.0917 -0.2271 -0.1661
 7335TIP3    H146200   2.872   3.598  11.819 -1.0285 -1.2278  0.7208
 7335TIP3    H246201   2.806   3.661  11.939  0.2518  1.1447  0.2305
 7336TIP3   OH246202   0.698   1.393  10.561 -0.5443 -0.1779  0.0038
 7336TIP3    H146203   0.683   1.483  10.588 -2.0783 -0.2785 -0.3929
 7336TIP3    H246204   0.708   1.398  10.466 -0.8857 -0.4552 -0.0474
 7337TIP3   OH246205   5.148   3.888  12.395 -0.0854  0.0460  0.0208
 7337TIP3    H146206   5.059   3.888  12.361 -0.8478 -0.0031  1.9570
 7337TIP3    H246207   5.156   3.969  12.444  0.8722 -0.0663  0.0795
 7338TIP3   OH246208   2.376   1.094  10.128  0.7317  0.2014 -0.0627
 7338TIP3    H146209   2.414   1.176  10.159 -0.6411  0.8909 -0.1128
 7338TIP3    H246210   2.282   1.101  10.149  0.4469 -1.0037 -0.7963
 7339TIP3   OH246211   4.880   3.908  11.797  0.5728  0.1551 -0.0709
 7339TIP3    H146212   4.943   3.875  11.733  0.9682  0.7496  0.0066
 7339TIP3    H246213   4.801   3.856  11.782  1.1908 -0.8554  0.0746
 7340TIP3   OH246214   1.729   1.807  11.276 -0.4834 -0.4507 -0.2906
 7340TIP3    H146215   1.707   1.857  11.355  1.8086 -0.9153  0.7491
 7340TIP3    H246216   1.722   1.870  11.205 -1.1846  0.3748  0.4788
 7341TIP3   OH246217   2.374   4.236  10.327 -0.9648  0.5637  0.0097
 7341TIP3    H146218   2.430   4.194  10.263 -0.5798  0.1355  0.6095
 7341TIP3    H246219   2.370   4.174  10.400  1.4791  2.4553  1.9359
 7342TIP3   OH246220   1.557   5.380  10.748  0.3619 -0.3051 -0.0929
 7342TIP3    H146221   1.498   5.319  10.703  1.9129 -1.6655 -0.3741
 7342TIP3    H246222   1.568   5.452  10.686 -0.1828 -0.5426 -0.4758
 7343TIP3   OH246223   5.055   0.805  11.833  0.3972  0.0649  0.9479
 7343TIP3    H146224   5.031   0.740  11.767 -1.6296  0.5402  1.1574
 7343TIP3    H246225   5.048   0.759  11.916 -1.7142  0.6480  1.1537
 7344TIP3   OH246226   5.772   0.921  10.959  0.0066 -1.2183  0.1336
 7344TIP3    H146227   5.689   0.922  11.008 -0.4191  1.7948 -0.4321
 7344TIP3    H246228   5.833   0.969  11.015  1.0821 -2.3918  0.0089
 7345TIP3   OH246229   1.300   2.131   9.092  0.2814 -0.0945 -0.1217
 7345TIP3    H146230   1.309   2.225   9.107  2.5146 -0.3291  0.2596
 7345TIP3    H246231   1.209   2.112   9.115  0.3631  1.6082  1.8510
 7346TIP3   OH246232   4.314   3.715   9.296 -0.3061  0.4794 -0.3298
 7346TIP3    H146233   4.391   3.758   9.331 -0.8757  0.1908  1.3523
 7346TIP3    H246234   4.349   3.648   9.236  0.7471  0.3137  0.4444
 7347TIP3   OH246235   2.463   6.071  11.110 -0.0891  0.4505  0.1727
 7347TIP3    H146236   2.389   6.132  11.112  1.3361  2.2453  0.6769
 7347TIP3    H246237   2.520   6.100  11.181  0.3271 -1.9599  0.9168
 7348TIP3   OH246238   4.150   0.356  11.626  0.2165 -1.1251 -0.0317
 7348TIP3    H146239   4.201   0.286  11.667  3.4180 -0.6017 -2.7377
 7348TIP3    H246240   4.132   0.324  11.538  1.4460  1.2296 -1.2159
 7349TIP3   OH246241   4.684   1.355   9.764 -0.1272  0.6785 -0.6370
 7349TIP3    H146242   4.759   1.329   9.817 -0.4039  0.7489 -0.2042
 7349TIP3    H246243   4.682   1.451   9.772 -0.1798  0.6872 -0.7592
 7350TIP3   OH246244   2.573   6.541  10.278  0.0525  0.1192 -0.5239
 7350TIP3    H146245   2.618   6.528  10.194 -1.5423 -0.3935 -1.3526
 7350TIP3    H246246   2.632   6.596  10.329  1.5023 -0.3617 -1.6146
 7351TIP3   OH246247   2.991   5.250  10.189 -0.2812  0.1462 -0.0983
 7351TIP3    H146248   2.952   5.333  10.161  0.6566 -0.0167 -2.0077
 7351TIP3    H246249   2.940   5.183  10.145 -1.6191 -0.4267  2.1411
 7352TIP3   OH246250   4.609   0.409  11.846  0.6070 -0.2100 -0.0727
 7352TIP3    H146251   4.560   0.380  11.923 -0.1550 -0.7732 -0.7600
 7352TIP3    H246252   4.701   0.405  11.874  0.5641 -3.0014  0.0250
 7353TIP3   OH246253   3.725   3.171   9.147  0.2140  0.7645  0.2537
 7353TIP3    H146254   3.766   3.102   9.095  1.0332  2.1705 -1.0592
 7353TIP3    H246255   3.770   3.167   9.231 -1.9030 -2.2933  1.4009
 7354TIP3   OH246256   2.305   5.085  11.624 -0.1753 -0.4010 -0.0920
 7354TIP3    H146257   2.380   5.089  11.563 -0.1189 -0.0707 -0.0067
 7354TIP3    H246258   2.231   5.061  11.569 -0.2682  0.6211 -0.4411
 7355TIP3   OH246259   0.597   0.952  11.262  0.6235  0.1161 -0.2959
 7355TIP3    H146260   0.676   0.939  11.211  0.1209  2.0866 -1.7058
 7355TIP3    H246261   0.526   0.943  11.199 -0.1288  0.7370  0.4439
 7356TIP3   OH246262   3.199   5.707  11.714 -0.3939 -0.7929  0.3621
 7356TIP3    H146263   3.126   5.660  11.673 -0.8761 -0.2049  0.5430
 7356TIP3    H246264   3.165   5.794  11.733  0.2078 -0.6590  0.8806
 7357TIP3   OH246265   4.839   4.178  10.205  0.0757  0.0370  0.4446
 7357TIP3    H146266   4.894   4.133  10.269  0.7988  0.6669  0.2792
 7357TIP3    H246267   4.865   4.270  10.212 -0.8973  0.3336  0.2941
 7358TIP3   OH246268   0.711   0.578  11.826 -0.5197 -0.1589 -0.2906
 7358TIP3    H146269   0.651   0.537  11.763 -0.2765 -1.4790  0.3243
 7358TIP3    H246270   0.700   0.672  11.810 -0.4823 -0.4338 -2.2914
 7359TIP3   OH246271   5.788   3.908  10.280 -0.1697  0.0181 -0.1160
 7359TIP3    H146272   5.740   3.944  10.205  0.8892  0.0791 -0.7952
 7359TIP3    H246273   5.736   3.931  10.356 -1.5495 -0.4984 -0.8700
 7360TIP3   OH246274   0.537   3.463   9.603  0.3108  0.7978 -0.6132
 7360TIP3    H146275   0.502   3.380   9.570 -0.0471  0.5221  0.4329
 7360TIP3    H246276   0.564   3.511   9.524  1.0413 -0.5362 -1.2096
 7361TIP3   OH246277   5.478   0.886  10.506  0.4346  0.6377 -0.4113
 7361TIP3    H146278   5.537   0.857  10.436  0.3799  0.0911 -0.2357
 7361TIP3    H246279   5.391   0.886  10.465  0.3352 -0.1649 -0.2073
 7362TIP3   OH246280   1.872   2.911  12.142  0.0979  0.3571  0.1424
 7362TIP3    H146281   1.892   2.889  12.051 -1.5274  0.3063 -0.2329
 7362TIP3    H246282   1.843   3.002  12.139  0.4765  0.5013  0.6817
 7363TIP3   OH246283   1.528   3.162  12.716 -0.4754  0.3359 -0.4823
 7363TIP3    H146284   1.609   3.211  12.735 -0.4857  0.8830 -1.7791
 7363TIP3    H246285   1.544   3.075  12.755  0.9975  0.2299 -1.2327
 7364TIP3   OH246286   1.305   5.703   9.108 -0.5121  0.3087 -0.2329
 7364TIP3    H146287   1.261   5.669   9.030  0.1039 -1.0732 -0.0156
 7364TIP3    H246288   1.357   5.629   9.140 -1.7916  0.3592  2.2636
 7365TIP3   OH246289   5.075   1.065  11.271  0.0402  0.1872  0.1047
 7365TIP3    H146290   5.132   1.141  11.265  0.3783 -0.1015 -0.4290
 7365TIP3    H246291   5.116   1.011  11.339  1.0458 -0.5280 -1.0154
 7366TIP3   OH246292   1.347   4.324   9.704  0.0886 -0.2951  0.6528
 7366TIP3    H146293   1.337   4.393   9.769  0.5564 -0.2769  0.7100
 7366TIP3    H246294   1.440   4.301   9.707  0.2932  0.2885 -0.5938
 7367TIP3   OH246295   6.679   2.641   9.526 -0.1684  0.0161  0.0177
 7367TIP3    H146296   6.629   2.563   9.550  1.1985 -0.7298  0.6044
 7367TIP3    H246297   6.736   2.612   9.455  0.1300  0.5685  0.0230
 7368TIP3   OH246298   6.341   5.149  12.206  0.7007 -0.0166 -0.1448
 7368TIP3    H146299   6.414   5.139  12.267  1.0408 -4.1482 -0.9392
 7368TIP3    H246300   6.382   5.168  12.122  0.4416  2.3714  0.2076
 7369TIP3   OH246301   0.906   3.820  12.086 -0.3652 -0.4129  0.4674
 7369TIP3    H146302   0.917   3.772  12.004  0.7622  0.4300  0.1122
 7369TIP3    H246303   0.815   3.803  12.111 -1.5960  1.3711 -2.3125
 7370TIP3   OH246304   3.146   0.042   9.568 -0.0191  0.6809  0.4755
 7370TIP3    H146305   3.148   0.100   9.492 -0.6117  1.6651  1.1890
 7370TIP3    H246306   3.107   0.095   9.638  0.4347 -0.2322  1.4462
 7371TIP3   OH246307   1.596   2.215  11.443  0.2147  0.1659 -0.0830
 7371TIP3    H146308   1.673   2.270  11.449  0.1737  0.1931  0.2361
 7371TIP3    H246309   1.590   2.190  11.351  1.7712 -1.5012  0.2033
 7372TIP3   OH246310   0.376   2.263   9.822 -0.1201 -0.3874 -0.0994
 7372TIP3    H146311   0.287   2.284   9.852 -0.2406 -1.4462  0.3441
 7372TIP3    H246312   0.382   2.168   9.832  0.0805 -0.7200 -2.7853
 7373TIP3   OH246313   5.373   3.526  10.874 -0.0966  0.4429 -0.5835
 7373TIP3    H146314   5.460   3.551  10.842  1.1123 -1.2345  1.1244
 7373TIP3    H246315   5.362   3.577  10.955  0.3528 -0.9836  0.4207
 7374TIP3   OH246316   2.923   5.970  12.048  0.7562 -0.1939 -0.0700
 7374TIP3    H146317   2.945   5.891  11.998  2.2419 -0.6226  1.1738
 7374TIP3    H246318   3.000   5.987  12.102  0.1944  1.7305  0.2061
 7375TIP3   OH246319   3.522   1.896   9.805  0.0019 -0.0393 -0.3602
 7375TIP3    H146320   3.515   1.835   9.732  0.2698  0.2661 -0.6463
 7375TIP3    H246321   3.538   1.841   9.882  2.8904 -0.2414 -0.9666
 7376TIP3   OH246322   6.220   5.997  11.106 -0.2622 -0.1057 -0.1127
 7376TIP3    H146323   6.286   5.956  11.162 -0.3164  0.3688  0.3060
 7376TIP3    H246324   6.149   5.934  11.101 -1.5895  1.0034  2.8023
 7377TIP3   OH246325   0.025   3.618  10.851  0.2514  0.4217  0.5365
 7377TIP3    H146326   0.019   3.703  10.894  0.1933  0.7591 -0.1364
 7377TIP3    H246327   0.016   3.555  10.923  0.7932  0.9754  1.1056
 7378TIP3   OH246328   4.711   5.682  11.396  0.3166  0.1081  0.1362
 7378TIP3    H146329   4.690   5.766  11.354 -0.3693  0.1808  0.6076
 7378TIP3    H246330   4.691   5.616  11.329  4.2783  0.3887 -1.6429
 7379TIP3   OH246331   3.764   1.059   9.319 -0.2075 -0.2245 -0.9969
 7379TIP3    H146332   3.737   0.975   9.282  1.3951 -0.8020 -0.9321
 7379TIP3    H246333   3.833   1.037   9.380  0.2669  1.1555 -1.0085
 7380TIP3   OH246334   2.684   6.012  11.596 -0.3272  0.2860  0.5722
 7380TIP3    H146335   2.622   6.069  11.643 -1.5963 -0.8046  0.2977
 7380TIP3    H246336   2.648   6.006  11.507  2.1371  2.4761 -0.7290
 7381TIP3   OH246337   1.328   1.180  10.865 -0.2769  0.0604 -0.6051
 7381TIP3    H146338   1.363   1.267  10.848  0.0269  0.0889  0.1279
 7381TIP3    H246339   1.251   1.194  10.921  0.3160 -0.1861  0.2984
 7382TIP3   OH246340   4.501   4.861   9.269 -0.2193 -0.3568 -0.7725
 7382TIP3    H146341   4.421   4.913   9.267 -0.9654 -1.4401 -0.2863
 7382TIP3    H246342   4.557   4.906   9.333 -0.1318  0.8150 -1.6519
 7383TIP3   OH246343   2.584   3.408  11.534 -0.0092 -0.2309 -0.3008
 7383TIP3    H146344   2.504   3.359  11.519 -0.2205  0.7180 -2.7777
 7383TIP3    H246345   2.581   3.479  11.470  1.6660  1.2788  1.1809
 7384TIP3   OH246346   3.543   1.077  10.259  0.1883  0.5500 -0.3969
 7384TIP3    H146347   3.548   1.091  10.164 -0.8525 -1.3670 -0.7781
 7384TIP3    H246348   3.450   1.083  10.279  0.0955 -1.5670  0.0355
 7385TIP3   OH246349   6.437   2.408  11.262 -0.7155  0.2291 -0.0721
 7385TIP3    H146350   6.395   2.358  11.193  0.6522 -0.6394 -0.3348
 7385TIP3    H246351   6.394   2.379  11.342 -1.2707  0.0868 -0.4194
 7386TIP3   OH246352   4.797   4.860  11.152  0.1705 -0.3702 -0.1835
 7386TIP3    H146353   4.877   4.851  11.204 -0.4670  1.2703  1.1854
 7386TIP3    H246354   4.788   4.777  11.106  2.4035 -0.7581 -0.0215
 7387TIP3   OH246355   5.560   2.677  11.970 -0.2666 -0.2610  0.3959
 7387TIP3    H146356   5.544   2.632  11.887 -0.0306 -3.7066  2.0473
 7387TIP3    H246357   5.636   2.733  11.952 -0.6855 -0.3178 -1.8858
 7388TIP3   OH246358   5.014   2.168   9.441 -0.3305  0.0735  0.0961
 7388TIP3    H146359   4.991   2.118   9.363  0.1286  0.5150 -0.3358
 7388TIP3    H246360   4.975   2.254   9.426 -0.1349  0.1980  0.2930
 7389TIP3   OH246361   1.840   1.073  11.468 -0.2324  0.0428  0.5758
 7389TIP3    H146362   1.899   1.104  11.398  0.9876 -1.5107  0.8778
 7389TIP3    H246363   1.779   1.015  11.423 -2.0520  2.1299  0.1458
 7390TIP3   OH246364   5.625   3.393  11.986 -0.1720 -0.8312 -0.7961
 7390TIP3    H146365   5.588   3.407  12.073  0.1279 -1.4605 -0.5571
 7390TIP3    H246366   5.708   3.440  11.987 -0.6656  0.0545 -1.1161
 7391TIP3   OH246367   6.420   1.518  11.285  0.2179  0.2340  0.5246
 7391TIP3    H146368   6.463   1.449  11.234  0.7779  0.2157  1.0231
 7391TIP3    H246369   6.482   1.591  11.283  0.7391 -0.1421  2.0983
 7392TIP3   OH246370   3.154   2.302  10.443 -0.5416  0.1717 -0.0638
 7392TIP3    H146371   3.069   2.325  10.482 -0.3728  2.4621 -0.9204
 7392TIP3    H246372   3.215   2.367  10.479 -0.0313  1.2711 -2.7065
 7393TIP3   OH246373   0.617   5.233  10.152  0.1240  0.0003 -0.5534
 7393TIP3    H146374   0.539   5.285  10.138 -0.7885 -1.4234 -0.9854
 7393TIP3    H246375   0.671   5.286  10.210 -0.4578  1.6820 -1.4839
 7394TIP3   OH246376   2.934   3.804   9.270  0.5869 -0.6495  0.3775
 7394TIP3    H146377   2.903   3.728   9.221 -0.8960 -1.4169  2.3588
 7394TIP3    H246378   2.993   3.767   9.336 -0.2915 -0.1376  1.4796
 7395TIP3   OH246379   0.374   1.911  10.788  0.2191 -0.3506  0.2370
 7395TIP3    H146380   0.465   1.940  10.796 -0.0342  0.4747  0.2406
 7395TIP3    H246381   0.328   1.988  10.756 -0.3960 -0.9090 -0.2290
 7396TIP3   OH246382   1.118   4.191   9.451 -0.2775  0.1406  0.4600
 7396TIP3    H146383   1.064   4.203   9.529 -0.3540  1.2829  0.2459
 7396TIP3    H246384   1.087   4.258   9.390 -1.6761 -2.0159 -1.3761
 7397TIP3   OH246385   4.588   4.020  11.778  0.4875  0.2022 -0.0474
 7397TIP3    H146386   4.623   4.108  11.773 -1.2241  0.8898 -0.6875
 7397TIP3    H246387   4.587   3.999  11.872  0.5938  0.9988  0.1324
 7398TIP3   OH246388   5.269   4.135  12.240  0.8017 -0.1757 -0.6412
 7398TIP3    H146389   5.265   4.182  12.323  1.5047  0.5750 -1.0218
 7398TIP3    H246390   5.189   4.083  12.238  0.6929 -0.0712  0.4256
 7399TIP3   OH246391   5.147   4.096  11.764  0.1528 -0.0115 -0.7296
 7399TIP3    H146392   5.070   4.064  11.812  1.4731 -1.2395  0.6784
 7399TIP3    H246393   5.198   4.143  11.830 -0.4012  2.7733 -2.1586
 7400TIP3   OH246394   0.612   5.351  12.268  0.1983 -0.6878 -0.3476
 7400TIP3    H146395   0.647   5.440  12.271  0.3745 -0.6856 -1.6897
 7400TIP3    H246396   0.659   5.309  12.195  0.9570 -2.2640  0.9782
 7401TIP3   OH246397   5.681   4.081  12.548  0.2577  0.2018  0.2770
 7401TIP3    H146398   5.735   4.009  12.516  0.4354  0.6415 -0.4619
 7401TIP3    H246399   5.594   4.043  12.559  0.0159  0.1547 -1.4227
 7402TIP3   OH246400   0.521   5.923  10.449 -0.1666  0.0150 -0.3025
 7402TIP3    H146401   0.436   5.944  10.488 -0.6886 -1.1537 -0.7603
 7402TIP3    H246402   0.561   5.861  10.511 -0.6310 -1.1794 -1.1666
 7403TIP3   OH246403   4.838   6.679  10.704  0.2700  0.0505 -0.2928
 7403TIP3    H146404   4.794   6.660  10.787 -1.2585  0.5749 -0.9494
 7403TIP3    H246405   4.777   6.736  10.657  1.5532  0.5792 -1.3651
 7404TIP3   OH246406   1.219   3.840  10.681 -0.4561 -0.1201 -0.2277
 7404TIP3    H146407   1.251   3.875  10.597 -1.1045  0.1702 -0.3560
 7404TIP3    H246408   1.180   3.756  10.659 -1.0722  0.1797 -0.3008
 7405TIP3   OH246409   5.135   6.041  12.202 -0.0940 -0.2961  0.4837
 7405TIP3    H146410   5.116   6.134  12.204 -2.5697 -0.6834  3.4280
 7405TIP3    H246411   5.063   6.003  12.151  0.7994 -0.6636 -0.5471
 7406TIP3   OH246412   3.514   2.939  10.150 -0.4772  0.3019  0.7705
 7406TIP3    H146413   3.572   2.882  10.200  0.4723  0.3042 -0.3077
 7406TIP3    H246414   3.512   3.021  10.200  0.2276  0.2055  0.9577
 7407TIP3   OH246415   1.529   1.788  10.130 -0.2247 -0.6395 -0.0698
 7407TIP3    H146416   1.455   1.743  10.088  0.3054 -0.8272 -0.8160
 7407TIP3    H246417   1.489   1.864  10.172 -0.6391  0.2309 -1.9177
 7408TIP3   OH246418   1.865   5.052  10.688 -0.0542  0.4002  0.3668
 7408TIP3    H146419   1.901   4.972  10.648 -2.0485 -0.2314 -0.2942
 7408TIP3    H246420   1.901   5.123  10.636  0.6909 -0.1464  0.1081
 7409TIP3   OH246421   6.256   5.020  11.487  0.1588  0.3726  0.1843
 7409TIP3    H146422   6.316   4.949  11.465  0.1215 -0.0769  1.4488
 7409TIP3    H246423   6.171   4.977  11.496  0.0822  0.6209  0.6850
 7410TIP3   OH246424   0.050   4.523  11.218 -0.3671 -0.0256  0.2618
 7410TIP3    H146425   0.101   4.573  11.154  1.5285 -1.2705  0.7299
 7410TIP3    H246426   0.081   4.554  11.303 -0.4530 -0.7511  0.5586
 7411TIP3   OH246427   3.599   5.490  11.857 -0.3057  0.2936 -0.1154
 7411TIP3    H146428   3.681   5.474  11.904 -0.6866 -0.7758  0.1974
 7411TIP3    H246429   3.627   5.511  11.768  0.2784 -0.9548 -0.2385
 7412TIP3   OH246430   1.176   1.544  10.213  0.0547 -0.4849 -0.1306
 7412TIP3    H146431   1.226   1.577  10.138 -1.4658 -0.9943 -1.4417
 7412TIP3    H246432   1.180   1.449  10.203  0.5747 -0.5865  0.9692
 7413TIP3   OH246433   2.573   1.870  12.542 -0.0535 -0.1619 -0.1296
 7413TIP3    H146434   2.597   1.800  12.482  1.2870 -0.1590  0.3825
 7413TIP3    H246435   2.588   1.833  12.629  2.8874  1.4285  0.1633
 7414TIP3   OH246436   5.945   4.487  11.739 -0.3581  0.1409  0.1742
 7414TIP3    H146437   6.032   4.518  11.765  1.4929 -3.1873 -1.3503
 7414TIP3    H246438   5.897   4.480  11.821  0.4836  2.7136  0.9935
 7415TIP3   OH246439   2.598   5.950  10.032 -0.5970  0.0760 -0.6241
 7415TIP3    H146440   2.653   6.012   9.985 -1.4212  0.9049 -0.5350
 7415TIP3    H246441   2.618   5.966  10.125  1.0740 -1.5986 -0.6359
 7416TIP3   OH246442   1.845   1.633  10.657  0.7612  0.0221 -0.2431
 7416TIP3    H146443   1.808   1.721  10.654  0.8151  0.0333 -0.6675
 7416TIP3    H246444   1.776   1.578  10.693  1.1728  0.4560  1.2513
 7417TIP3   OH246445   5.936   0.134  11.583  0.4160 -0.1754  0.3525
 7417TIP3    H146446   5.969   0.044  11.577 -0.0469 -0.2659 -1.8429
 7417TIP3    H246447   6.009   0.185  11.619  0.7951 -1.3514  1.3108
 7418TIP3   OH246448   5.139   3.293  11.712 -0.3628  0.4889  0.3896
 7418TIP3    H146449   5.085   3.226  11.669  1.1530 -1.4526  1.3592
 7418TIP3    H246450   5.219   3.295  11.659  0.4194  0.0362  1.5314
 7419TIP3   OH246451   3.835   0.298   9.295 -0.3352  0.1093  0.3106
 7419TIP3    H146452   3.863   0.236   9.227 -0.2974  0.8208 -0.3270
 7419TIP3    H246453   3.740   0.285   9.301 -0.4418  0.5139 -0.3643
 7420TIP3   OH246454   4.423   1.184   9.457 -0.6770 -0.3304  0.5933
 7420TIP3    H146455   4.341   1.216   9.420 -0.4408 -0.9361 -0.4990
 7420TIP3    H246456   4.412   1.089   9.461  0.3863 -0.5494 -0.7017
 7421TIP3   OH246457   6.234   4.493  10.311  0.2680 -0.0878 -0.0739
 7421TIP3    H146458   6.225   4.399  10.299  0.8501 -0.2637  0.7197
 7421TIP3    H246459   6.180   4.513  10.388 -1.2086  0.5288 -1.2155
 7422TIP3   OH246460   2.939   1.103  11.594 -0.1487  0.2077  0.2357
 7422TIP3    H146461   2.978   1.184  11.628  0.2777 -1.0262  2.9741
 7422TIP3    H246462   3.009   1.038  11.602 -0.6732 -0.6073 -1.3496
 7423TIP3   OH246463   0.804   3.342  12.402 -0.7229 -0.0546  0.2207
 7423TIP3    H146464   0.812   3.309  12.312 -0.0973 -1.1061  0.6411
 7423TIP3    H246465   0.852   3.425  12.402 -1.3278  0.3070 -0.5780
 7424TIP3   OH246466   5.476   6.232  11.862 -0.0504 -0.1889 -0.0096
 7424TIP3    H146467   5.495   6.141  11.882  0.6955 -0.3439 -1.2654
 7424TIP3    H246468   5.465   6.233  11.767  1.0635  1.2006 -0.1635
 7425TIP3   OH246469   1.360   5.806  11.541 -0.6468 -0.1087 -0.4282
 7425TIP3    H146470   1.269   5.807  11.572  0.1148  0.1927  2.0215
 7425TIP3    H246471   1.378   5.714  11.523 -0.7775 -0.5216  1.3567
 7426TIP3   OH246472   0.669   1.760   9.721 -0.7162  0.4616  0.5334
 7426TIP3    H146473   0.661   1.759   9.626 -1.0659  0.0058  0.5607
 7426TIP3    H246474   0.637   1.846   9.747  0.0533  0.8554  0.1878
 7427TIP3   OH246475   0.431   0.870  10.161 -0.0256 -0.2586  0.1849
 7427TIP3    H146476   0.367   0.852  10.230  0.3002 -1.2141  0.2570
 7427TIP3    H246477   0.509   0.819  10.186  0.8269  1.0031  0.1794
 7428TIP3   OH246478   1.979   4.071  11.972  0.2822 -0.2802 -0.4759
 7428TIP3    H146479   1.974   4.166  11.962 -0.5969 -0.0521  1.5266
 7428TIP3    H246480   2.069   4.054  11.999 -0.0649  0.2583  1.1245
 7429TIP3   OH246481   3.180   2.096  12.403 -0.1953  0.3155 -0.5117
 7429TIP3    H146482   3.138   2.176  12.373 -0.4567  0.3721 -0.0086
 7429TIP3    H246483   3.190   2.043  12.324 -1.2292  0.2919 -0.6377
 7430TIP3   OH246484   2.263   2.968  10.947  0.2553  0.2402 -0.3491
 7430TIP3    H146485   2.288   3.013  11.028 -1.7439  1.0480 -0.1164
 7430TIP3    H246486   2.201   3.027  10.905 -0.3809 -1.1278 -1.3988
 7431TIP3   OH246487   4.642   1.327  12.150  0.5465 -0.1065 -0.0405
 7431TIP3    H146488   4.598   1.331  12.235  1.8136  0.6947  0.6132
 7431TIP3    H246489   4.735   1.327  12.172  0.8961 -0.6465 -1.4166
 7432TIP3   OH246490   1.029   5.962  10.914 -0.5130 -0.5766  0.0480
 7432TIP3    H146491   1.082   5.885  10.937  1.3914  0.6025 -0.1243
 7432TIP3    H246492   1.092   6.035  10.917 -1.3505  0.4632 -3.4838
 7433TIP3   OH246493   0.935   2.310  10.459  0.6568 -0.3615  0.3308
 7433TIP3    H146494   0.944   2.292  10.553 -0.6290  0.2755  0.5885
 7433TIP3    H246495   1.006   2.372  10.440  1.5357 -1.2387  0.6536
 7434TIP3   OH246496   0.230   2.102  11.391  0.1435 -0.3466  0.8991
 7434TIP3    H146497   0.240   2.012  11.361  0.3404  0.5341 -1.8812
 7434TIP3    H246498   0.309   2.147  11.360 -1.0216  1.2804  0.1477
 7435TIP3   OH246499   3.285   1.066  10.383 -0.0093  0.6094 -0.0751
 7435TIP3    H146500   3.271   1.153  10.420 -1.0161  0.0143  1.0227
 7435TIP3    H246501   3.210   1.015  10.413  1.1047 -0.9269  0.2196
 7436TIP3   OH246502   1.732   3.690  11.777  0.4090 -0.0713  0.0722
 7436TIP3    H146503   1.684   3.730  11.849 -0.4188 -2.9334  1.2716
 7436TIP3    H246504   1.822   3.684  11.810  0.1555 -0.8157  0.6732
 7437TIP3   OH246505   2.711   6.393  10.085 -0.2177  0.7463 -0.1216
 7437TIP3    H146506   2.795   6.436  10.099  0.5605 -1.2953  2.3412
 7437TIP3    H246507   2.734   6.302  10.063 -1.7756  0.2769  0.0533
 7438TIP3   OH246508   2.886   6.030  10.734  0.1685  0.0771  0.1117
 7438TIP3    H146509   2.956   5.966  10.719 -0.0168 -0.3309  0.9031
 7438TIP3    H246510   2.821   5.982  10.786 -0.9174  0.3158 -1.0061
 7439TIP3   OH246511   3.775   6.103   9.754 -0.1307  0.0496  0.3790
 7439TIP3    H146512   3.822   6.172   9.800  1.9148 -0.2453 -1.1216
 7439TIP3    H246513   3.842   6.058   9.702 -2.1432  0.0404 -2.4629
 7440TIP3   OH246514   1.752   1.439  10.210 -0.6724 -0.3237  0.1744
 7440TIP3    H146515   1.694   1.464  10.282 -0.2942  0.9959  0.0548
 7440TIP3    H246516   1.788   1.354  10.237  0.0467  0.4797  1.9373
 7441TIP3   OH246517   5.093   3.672   9.318  0.4384  0.9089 -0.4632
 7441TIP3    H146518   5.040   3.726   9.376 -0.3928  0.1770 -0.5262
 7441TIP3    H246519   5.129   3.733   9.254  0.8078  1.6165  0.4068
 7442TIP3   OH246520   0.098   1.024   9.656 -0.0776  0.3642  0.5333
 7442TIP3    H146521   0.173   1.013   9.598 -1.0364 -0.2847 -0.6419
 7442TIP3    H246522   0.054   1.103   9.624 -1.1088 -0.4901 -0.2614
 7443TIP3   OH246523   0.191   5.378  11.041 -0.4480 -0.3584  0.2173
 7443TIP3    H146524   0.281   5.393  11.010 -0.3563  1.8613  1.3649
 7443TIP3    H246525   0.136   5.406  10.968 -0.2099  0.3475  0.2998
 7444TIP3   OH246526   4.774   1.191  11.362  0.4022 -0.1220 -0.2561
 7444TIP3    H146527   4.822   1.146  11.292 -0.2912  0.4417 -1.1143
 7444TIP3    H246528   4.786   1.284  11.343  0.3521  0.0409  0.4839
 7445TIP3   OH246529   3.493   4.083   9.526 -0.3173  0.1461  0.4905
 7445TIP3    H146530   3.485   4.172   9.560 -1.5593  0.1630  0.1820
 7445TIP3    H246531   3.409   4.042   9.546  0.2166 -0.9434  0.5619
 7446TIP3   OH246532   1.279   1.369  11.632 -0.0333 -0.1258 -0.3575
 7446TIP3    H146533   1.335   1.359  11.709 -0.9478  0.8180  0.4625
 7446TIP3    H246534   1.229   1.288  11.627 -0.5740  0.1336  0.5731
 7447TIP3   OH246535   2.105   0.901  11.098  0.6996 -0.2883 -0.8691
 7447TIP3    H146536   2.198   0.888  11.080  0.6383 -2.5156  0.0929
 7447TIP3    H246537   2.103   0.944  11.184  0.8534 -0.6830 -0.6639
 7448TIP3   OH246538   1.746   4.363  11.935 -0.1773 -0.0503 -0.1960
 7448TIP3    H146539   1.839   4.383  11.941 -0.0632 -0.8780  1.7449
 7448TIP3    H246540   1.738   4.307  11.857  0.7198  1.0244 -1.0818
 7449TIP3   OH246541   1.360   3.428   9.558  0.1960  0.4045  0.2730
 7449TIP3    H146542   1.266   3.419   9.542  0.1371  1.0171  0.2594
 7449TIP3    H246543   1.377   3.368   9.631  0.1279 -1.0030 -0.8259
 7450TIP3   OH246544   2.053   2.153   9.226  0.3983 -0.0483  0.2489
 7450TIP3    H146545   2.028   2.178   9.315 -0.9509 -1.4620  0.2978
 7450TIP3    H246546   1.971   2.133   9.182  1.1818 -1.3633 -0.6883
 7451TIP3   OH246547   5.312   3.081  10.091 -0.0425 -0.4567 -0.1614
 7451TIP3    H146548   5.315   3.089   9.996  0.1220  0.5043 -0.0874
 7451TIP3    H246549   5.355   2.998  10.110 -2.6969 -2.1792 -1.0987
 7452TIP3   OH246550   1.630   0.698  10.783  0.0925 -0.1182  0.1256
 7452TIP3    H146551   1.599   0.675  10.871 -0.3076  0.2042  0.0677
 7452TIP3    H246552   1.608   0.623  10.729  0.8635 -0.5675  0.4190
 7453TIP3   OH246553   4.217   4.591  11.001 -0.4582 -0.3432 -0.0704
 7453TIP3    H146554   4.210   4.503  10.964 -0.3432 -1.9147  3.2861
 7453TIP3    H246555   4.310   4.612  10.994 -0.0326 -1.6061  1.2712
 7454TIP3   OH246556   3.844   3.120  10.862 -0.2802 -0.2474 -0.3832
 7454TIP3    H146557   3.766   3.074  10.893  0.2702 -0.5375  0.6101
 7454TIP3    H246558   3.909   3.052  10.847 -0.3193 -0.0458 -1.5868
 7455TIP3   OH246559   5.993   2.392  12.881 -0.2365  0.2548  0.1745
 7455TIP3    H146560   6.042   2.355  12.954  0.2995 -0.2110 -0.4163
 7455TIP3    H246561   5.906   2.352  12.888  0.0501 -0.3900  0.1067
 7456TIP3   OH246562   4.126   2.804  11.086  0.2798 -0.2070  0.4627
 7456TIP3    H146563   4.208   2.845  11.113  0.7106 -0.7543  0.0165
 7456TIP3    H246564   4.137   2.712  11.108  0.1619 -0.4483 -0.4731
 7457TIP3   OH246565   6.724   3.176  11.188 -0.4065 -0.2463 -0.7095
 7457TIP3    H146566   6.657   3.108  11.184  0.1427 -0.8052 -0.7090
 7457TIP3    H246567   6.799   3.133  11.229 -1.0930  1.2634  2.5192
 7458TIP3   OH246568   1.016   5.277  11.493  0.7819  0.1627 -0.0707
 7458TIP3    H146569   0.926   5.269  11.526  0.0099 -0.2376 -2.1277
 7458TIP3    H246570   1.068   5.292  11.572 -0.6024 -3.1018  1.6965
 7459TIP3   OH246571   2.418   0.405  12.239  0.3149  0.1140  0.2599
 7459TIP3    H146572   2.496   0.393  12.184  0.9835  1.0101  0.9792
 7459TIP3    H246573   2.440   0.478  12.297 -1.4729  1.1350 -0.2519
 7460TIP3   OH246574   1.885   2.015  11.616 -0.0414  0.0593 -0.0470
 7460TIP3    H146575   1.930   2.067  11.550  1.0349 -1.0580 -0.2343
 7460TIP3    H246576   1.897   2.064  11.698  1.5998 -0.2079 -0.0845
 7461TIP3   OH246577   1.736   0.628  11.578 -1.0553  0.1205 -0.3584
 7461TIP3    H146578   1.744   0.641  11.672 -0.3479 -1.5801 -0.1426
 7461TIP3    H246579   1.816   0.582  11.552 -2.5047 -2.1020 -1.2215
 7462TIP3   OH246580   2.365   6.510  11.754  0.0832  0.7411  0.1554
 7462TIP3    H146581   2.298   6.446  11.730 -0.0517  1.0058 -0.1853
 7462TIP3    H246582   2.447   6.474  11.721 -0.2185  1.5310 -1.5667
 7463TIP3   OH246583   0.820   2.050  10.225 -0.2965 -0.0446 -0.8582
 7463TIP3    H146584   0.830   1.978  10.163  0.3484 -0.2556 -0.5152
 7463TIP3    H246585   0.851   2.127  10.177  0.2504 -0.2155 -0.7863
 7464TIP3   OH246586   5.332   1.856  10.422 -0.2999 -0.5985  0.1202
 7464TIP3    H146587   5.412   1.805  10.408  0.0184  0.2814 -1.5986
 7464TIP3    H246588   5.354   1.944  10.391 -1.8695 -0.2832 -0.1958
 7465TIP3   OH246589   0.293   0.598   9.697 -0.1089  0.3559  0.1713
 7465TIP3    H146590   0.385   0.625   9.690 -1.0468  4.7887  1.9095
 7465TIP3    H246591   0.281   0.578   9.790 -0.8535 -0.5919 -0.1143
 7466TIP3   OH246592   4.537   0.434  10.243 -0.3219 -0.1514  0.4328
 7466TIP3    H146593   4.601   0.412  10.310  1.0892  0.1817 -0.7477
 7466TIP3    H246594   4.490   0.353  10.227  1.1201 -0.9354 -0.0161
 7467TIP3   OH246595   5.047   4.902   9.800  0.2525  0.2643 -0.3306
 7467TIP3    H146596   5.058   4.963   9.873  0.6680 -0.4030  0.1785
 7467TIP3    H246597   5.108   4.934   9.733  1.5519 -0.3949  0.4868
 7468TIP3   OH246598   3.622   6.100  11.535 -0.4467 -0.1515  0.3692
 7468TIP3    H146599   3.595   6.010  11.515 -1.2017  0.1188  0.1444
 7468TIP3    H246600   3.626   6.104  11.630 -0.9750 -0.2605  0.3948
 7469TIP3   OH246601   3.501   1.418  10.183  0.2217 -0.3820  0.2943
 7469TIP3    H146602   3.543   1.421  10.268  2.9046 -1.3535 -0.8772
 7469TIP3    H246603   3.573   1.413  10.120 -1.5309  2.5142 -2.2238
 7470TIP3   OH246604   1.517   2.797  12.042  0.0481 -0.7110  0.3416
 7470TIP3    H146605   1.423   2.778  12.046  0.1334 -0.9632  1.8473
 7470TIP3    H246606   1.521   2.890  12.017 -0.5367 -1.0759 -1.2080
 7471TIP3   OH246607   6.165   3.267  10.823 -0.1934  0.8257  0.1599
 7471TIP3    H146608   6.220   3.192  10.801 -0.4595  1.2182 -2.0289
 7471TIP3    H246609   6.228   3.338  10.840  0.0152  0.6245  0.2355
 7472TIP3   OH246610   5.220   2.292  11.064  0.4352  0.1795 -0.0771
 7472TIP3    H146611   5.291   2.312  11.125  0.7541 -1.6547  0.2107
 7472TIP3    H246612   5.238   2.202  11.035  0.3604  0.9747 -2.9812
 7473TIP3   OH246613   2.955   1.541  11.580 -0.0607  0.1450 -0.0114
 7473TIP3    H146614   2.895   1.490  11.635 -0.9262  2.0647  0.9400
 7473TIP3    H246615   2.918   1.534  11.492 -0.3689 -0.5827  0.1725
 7474TIP3   OH246616   3.592   1.072  11.444 -0.5689  0.4702  0.4530
 7474TIP3    H146617   3.609   1.135  11.513 -1.5473  0.5269  0.6574
 7474TIP3    H246618   3.501   1.088  11.419  0.0111  1.0574 -1.4738
 7475TIP3   OH246619   2.040   2.087  10.638 -0.0005  0.1542  0.0806
 7475TIP3    H146620   2.002   2.173  10.652  1.0868  0.7294 -0.4242
 7475TIP3    H246621   2.135   2.100  10.645  0.1512 -1.3148  1.7627
 7476TIP3   OH246622   1.102   3.201  12.413 -0.2017  0.1006 -0.3752
 7476TIP3    H146623   1.187   3.243  12.427  0.1595 -0.7574  0.0510
 7476TIP3    H246624   1.103   3.173  12.322 -0.7041  1.5633 -0.8562
 7477TIP3   OH246625   1.265   0.211   9.972  0.1620  0.0230  0.3273
 7477TIP3    H146626   1.268   0.288  10.029  2.5293  0.1324  0.1379
 7477TIP3    H246627   1.270   0.247   9.883 -0.0184 -0.3055  0.1819
 7478TIP3   OH246628   1.018   0.473   9.861 -0.1752  0.5736  0.0082
 7478TIP3    H146629   1.023   0.569   9.857  1.0844  0.4918 -1.4398
 7478TIP3    H246630   1.075   0.444   9.789 -0.4878 -1.2640  0.4741
 7479TIP3   OH246631   2.722   4.865  19.068 -0.6573  0.6881  0.0932
 7479TIP3    H146632   2.697   4.806  18.997 -0.2320  0.8867 -0.2217
 7479TIP3    H246633   2.693   4.820  19.148 -0.8904  0.3419 -0.1833
 7480TIP3   OH246634   1.963   5.767  10.381 -0.4923 -0.1722 -0.5778
 7480TIP3    H146635   1.912   5.848  10.385  0.2599  0.2786  0.5813
 7480TIP3    H246636   2.011   5.772  10.299  0.6652  1.2958  0.1340
 7481TIP3   OH246637   1.784   5.892  11.562 -0.2569  0.0229 -0.1364
 7481TIP3    H146638   1.811   5.810  11.521 -2.0804 -0.7756  0.1981
 7481TIP3    H246639   1.705   5.919  11.514 -1.7228 -0.2833  1.9780
 7482TIP3   OH246640   3.572   2.175  10.394 -0.5414  0.1038  0.0127
 7482TIP3    H146641   3.630   2.101  10.411 -1.3489 -0.0554  2.3620
 7482TIP3    H246642   3.495   2.136  10.353  0.0648  0.0311 -1.1069
 7483TIP3   OH246643   0.773   6.214   8.981  0.4829 -0.2724  0.8418
 7483TIP3    H146644   0.778   6.157   8.904 -1.1115  0.1838  0.3539
 7483TIP3    H246645   0.862   6.245   8.994  1.2638 -2.3071  0.6983
 7484TIP3   OH246646   2.659   4.297  11.058 -0.1654  0.1540  0.0258
 7484TIP3    H146647   2.729   4.323  10.999 -1.0660  0.4766 -0.9317
 7484TIP3    H246648   2.670   4.203  11.068 -0.7069 -0.1254 -1.6531
 7485TIP3   OH246649   1.325   0.224  11.578  0.1966 -0.2200  0.2507
 7485TIP3    H146650   1.249   0.275  11.551 -0.7750 -0.4570  2.3423
 7485TIP3    H246651   1.395   0.288  11.591  1.3211 -0.2147 -4.2209
 7486TIP3   OH246652   4.792   4.151  12.321 -0.3591  0.0015 -0.5307
 7486TIP3    H146653   4.870   4.201  12.344 -0.9227  0.9679 -0.6775
 7486TIP3    H246654   4.733   4.215  12.281 -1.6706 -0.4659  0.5632
 7487TIP3   OH246655   2.114   2.905   9.632 -0.4165  0.2654  0.0845
 7487TIP3    H146656   2.055   2.841   9.591  0.0163  0.7085 -1.2729
 7487TIP3    H246657   2.116   2.879   9.724  0.8795 -2.6239 -0.6174
 7488TIP3   OH246658   1.849   3.412  11.999 -0.5505 -0.5997  0.3776
 7488TIP3    H146659   1.772   3.437  11.948  1.2515  2.8132 -1.0566
 7488TIP3    H246660   1.862   3.484  12.061  0.4627 -1.9953  1.8827
 7489TIP3   OH246661   4.757   2.083   9.907 -0.0922  0.0326  0.1422
 7489TIP3    H146662   4.682   2.034   9.874 -1.2333  0.9170  1.3169
 7489TIP3    H246663   4.824   2.072   9.839 -1.4066 -0.4340 -1.1472
 7490TIP3   OH246664   5.470   1.756  11.310 -0.0035 -0.1235  0.0869
 7490TIP3    H146665   5.402   1.724  11.250 -0.3913 -0.5254  0.7242
 7490TIP3    H246666   5.533   1.684  11.315 -0.6046 -0.6088  1.1061
 7491TIP3   OH246667   6.198   0.975  10.909 -0.9314  0.6504  0.2164
 7491TIP3    H146668   6.195   0.937  10.822  2.2886 -2.3787  1.1663
 7491TIP3    H246669   6.280   1.026  10.910 -0.1491 -0.5514  1.7856
 7492TIP3   OH246670   0.617   0.057   9.855  0.5050 -0.4840  0.1149
 7492TIP3    H146671   0.688  -0.000   9.827  0.4122 -0.8932  0.6978
 7492TIP3    H246672   0.562   0.067   9.777  1.3166  0.0208 -0.4061
 7493TIP3   OH246673   0.556   0.567  10.189 -0.5452  0.2097 -0.2590
 7493TIP3    H146674   0.537   0.487  10.238 -0.9634  0.2708 -0.3161
 7493TIP3    H246675   0.624   0.611  10.239 -0.2581 -0.2254 -0.2719
 7494TIP3   OH246676   1.821   3.181  12.198  0.3826 -0.4954  0.2368
 7494TIP3    H146677   1.842   3.250  12.261  0.7832 -1.0734  0.7510
 7494TIP3    H246678   1.811   3.227  12.115  1.5919  0.0850  0.3808
 7495TIP3   OH246679   0.728   6.674  12.315 -0.3043  0.0561 -0.4513
 7495TIP3    H146680   0.699   6.584  12.332 -1.1468  0.1333 -1.3515
 7495TIP3    H246681   0.725   6.717  12.400  0.3816 -0.8265  0.0503
 7496TIP3   OH246682   4.400   3.436  10.582  0.2586  0.4561 -0.8003
 7496TIP3    H146683   4.426   3.356  10.629 -2.2249 -0.1359 -0.3027
 7496TIP3    H246684   4.408   3.413  10.490  1.9568  0.5065 -0.6930
 7497TIP3   OH246685   2.847   2.323  11.740  0.3845  0.2047  0.3939
 7497TIP3    H146686   2.889   2.261  11.800 -1.0189 -2.6782 -1.3744
 7497TIP3    H246687   2.772   2.356  11.788 -0.0368 -1.1455  0.7229
 7498TIP3   OH246688   2.132   1.477  10.294  0.3594  0.1661  0.2282
 7498TIP3    H146689   2.102   1.517  10.376 -2.9023  0.5302 -1.0046
 7498TIP3    H246690   2.080   1.398  10.285  1.2658 -0.3109 -1.1311
 7499TIP3   OH246691   1.288   0.163   9.507  0.0216  0.4508  0.3487
 7499TIP3    H146692   1.257   0.231   9.446  0.5831 -0.8172 -1.4469
 7499TIP3    H246693   1.210   0.112   9.527  0.1697 -0.4057 -1.0789
 7500TIP3   OH246694   0.236   4.577   9.604  0.4143 -0.4475 -0.0113
 7500TIP3    H146695   0.329   4.586   9.623  0.4431  1.9346 -0.9528
 7500TIP3    H246696   0.192   4.623   9.675  0.0005 -0.5907 -0.1682
 7501TIP3   OH246697   2.048   3.067   9.295  0.1078  0.5230 -0.1203
 7501TIP3    H146698   2.093   3.005   9.237  1.1383  0.7751  0.3789
 7501TIP3    H246699   2.034   3.145   9.241  0.7450  0.6296 -0.1444
 7502TIP3   OH246700   5.036   6.703  10.540  0.0883  0.1002  0.4237
 7502TIP3    H146701   4.961   6.717  10.599 -0.8163 -1.6247 -0.2438
 7502TIP3    H246702   5.004   6.730  10.454 -0.0073 -1.2387  0.0208
 7503TIP3   OH246703   5.623   1.233  12.841 -0.6677 -0.5627  0.2994
 7503TIP3    H146704   5.672   1.315  12.852  0.0666 -1.1289  1.3841
 7503TIP3    H246705   5.554   1.255  12.778  0.7637  0.3444 -1.0162
 7504TIP3   OH246706   5.772   3.722   9.269  0.7029 -0.2321  0.1884
 7504TIP3    H146707   5.716   3.723   9.346  0.7827  0.8953  0.2429
 7504TIP3    H246708   5.825   3.643   9.279 -0.9080 -1.3842  0.0939
 7505TIP3   OH246709   6.152   3.059  10.270 -0.1762  0.2166  0.1002
 7505TIP3    H146710   6.106   3.007  10.204  2.4504 -2.0238 -0.1574
 7505TIP3    H246711   6.114   3.032  10.353  0.9572 -2.0981 -0.0552
 7506TIP3   OH246712   1.893   5.466  10.926  0.3659 -0.0328 -0.0639
 7506TIP3    H146713   1.961   5.526  10.956  0.1304  1.4043 -2.2319
 7506TIP3    H246714   1.941   5.391  10.891  0.7564  0.2004 -0.0327
 7507TIP3   OH246715   4.357   3.937  11.972 -0.5264  0.4696 -0.6175
 7507TIP3    H146716   4.414   3.871  12.010 -0.2845  0.5771 -0.7952
 7507TIP3    H246717   4.378   4.018  12.018 -0.4227  0.5431 -0.7927
 7508TIP3   OH246718   6.695   6.314  12.223 -0.2197 -0.8112 -0.5819
 7508TIP3    H146719   6.626   6.338  12.160 -0.2119 -1.5059 -0.8559
 7508TIP3    H246720   6.650   6.312  12.308 -0.4473 -0.8484 -0.7022
 7509TIP3   OH246721   5.657   5.955  10.567 -0.3802  0.1220 -0.3063
 7509TIP3    H146722   5.672   6.040  10.526 -2.3671  0.7185  0.0949
 7509TIP3    H246723   5.708   5.958  10.648 -1.7027  1.6553  0.5335
 7510TIP3   OH246724   2.421   1.368  10.669 -0.6938 -0.0097 -0.1877
 7510TIP3    H146725   2.380   1.447  10.634 -0.6402 -0.1375 -0.5528
 7510TIP3    H246726   2.515   1.386  10.666 -0.5960 -0.5683 -1.5300
 7511TIP3   OH246727   2.304   2.060  10.721  0.0058  0.3632 -0.1889
 7511TIP3    H146728   2.372   2.056  10.654 -0.7774 -4.5956 -1.0077
 7511TIP3    H246729   2.347   2.030  10.801 -1.0929 -3.5883 -0.8792
 7512TIP3   OH246730   5.849   5.224  12.180 -0.0496  0.0196  0.5510
 7512TIP3    H146731   5.849   5.319  12.197  1.5776 -0.0557  1.0617
 7512TIP3    H246732   5.813   5.186  12.260 -1.9441  0.2324 -0.1335
 7513TIP3   OH246733   6.020   2.450  12.612  0.3814  0.5556  0.3351
 7513TIP3    H146734   6.015   2.432  12.706 -1.4543  0.8051  0.3174
 7513TIP3    H246735   6.113   2.438  12.590  0.7648  0.0723  2.0823
 7514TIP3   OH246736   5.135   5.837  10.062 -0.2018  0.0233  0.3322
 7514TIP3    H146737   5.114   5.927  10.037 -0.1385 -0.1103 -0.2300
 7514TIP3    H246738   5.150   5.840  10.156  0.0842  0.6538  0.2696
 7515TIP3   OH246739   1.156   3.489  11.871 -1.1048 -0.6328  0.1347
 7515TIP3    H146740   1.198   3.540  11.940 -1.0898  0.4883 -0.6805
 7515TIP3    H246741   1.067   3.473  11.903 -1.0301 -0.3038  0.5129
 7516TIP3   OH246742   0.052   4.254  12.104  0.5391 -0.5240 -0.6968
 7516TIP3    H146743  -0.037   4.265  12.069 -0.3211 -0.3794  1.3695
 7516TIP3    H246744   0.072   4.161  12.090 -1.0586 -1.2120  1.1389
 7517TIP3   OH246745   4.306   2.978   9.003  0.1500  0.2962  0.3279
 7517TIP3    H146746   4.353   2.910   8.955  0.6661  0.3280  0.7814
 7517TIP3    H246747   4.280   2.936   9.085 -0.8178  0.2100 -0.0028
 7518TIP3   OH246748   2.445   0.734  12.122  0.0950 -0.2186 -0.1332
 7518TIP3    H146749   2.388   0.690  12.059 -0.0116 -0.8324  0.3744
 7518TIP3    H246750   2.504   0.786  12.069 -0.6940  0.1270 -0.6939
 7519TIP3   OH246751   6.256   0.843  11.931  0.1154  0.1340  0.1438
 7519TIP3    H146752   6.232   0.835  12.024  1.8343 -2.7538  0.4591
 7519TIP3    H246753   6.261   0.752  11.900  0.0411  1.0095 -2.6977
 7520TIP3   OH246754   1.321   2.808  11.412  0.1701  0.2897 -0.2678
 7520TIP3    H146755   1.257   2.739  11.428  1.0339 -0.8227 -1.4327
 7520TIP3    H246756   1.406   2.764  11.419  0.9193  1.8903  2.0814
 7521TIP3   OH246757   5.848   2.262  10.377 -0.0504  0.3130  0.1885
 7521TIP3    H146758   5.831   2.356  10.379 -0.3244  0.2861 -0.4571
 7521TIP3    H246759   5.793   2.225  10.446 -0.6512  0.5284 -0.1694
 7522TIP3   OH246760   4.446   5.150  12.508  0.1574 -0.0431 -0.2926
 7522TIP3    H146761   4.445   5.067  12.461  2.6169 -0.7242  0.7217
 7522TIP3    H246762   4.445   5.125  12.601  1.8613  0.9962  0.0308
 7523TIP3   OH246763   0.675   6.714   9.456 -0.1083 -0.2679  0.0337
 7523TIP3    H146764   0.600   6.674   9.411 -0.0204 -1.0777  0.5793
 7523TIP3    H246765   0.675   6.674   9.543 -0.4707  1.5132  0.9045
 7524TIP3   OH246766   1.008   4.205   9.106 -0.3031  0.2982 -0.0226
 7524TIP3    H146767   0.996   4.289   9.061  0.1079 -0.2592 -1.2163
 7524TIP3    H246768   1.029   4.144   9.036 -1.8574 -1.0791  0.6685
 7525TIP3   OH246769   3.285   0.958  11.351 -0.2188  0.1387  0.3387
 7525TIP3    H146770   3.225   0.883  11.351 -0.5781  0.4202 -0.0802
 7525TIP3    H246771   3.352   0.935  11.287  0.9797 -0.8310  1.8632
 7526TIP3   OH246772   6.708   2.088  10.821 -0.3668 -0.1401 -0.0061
 7526TIP3    H146773   6.723   2.159  10.760 -0.8967 -1.0183 -1.1895
 7526TIP3    H246774   6.675   2.131  10.900  1.2005  1.0980  0.0276
 7527TIP3   OH246775   2.452   5.866   9.314  0.1705 -0.7453 -0.3859
 7527TIP3    H146776   2.539   5.843   9.280 -0.3520 -1.2867 -1.4077
 7527TIP3    H246777   2.453   5.837   9.405  0.2059 -3.1090 -1.0837
 7528TIP3   OH246778   2.377   0.196  11.090  0.1081  0.8201 -0.4379
 7528TIP3    H146779   2.383   0.200  11.185 -0.7308  1.3097 -0.3980
 7528TIP3    H246780   2.440   0.262  11.059 -0.4730  1.4963 -0.1919
 7529TIP3   OH246781   5.906   3.940  11.434  0.0210 -0.3536 -0.6588
 7529TIP3    H146782   5.931   3.871  11.495 -0.7262 -0.3734 -0.3736
 7529TIP3    H246783   5.847   3.996  11.483  0.7151  0.5775 -0.8439
 7530TIP3   OH246784   3.506   6.220  10.403 -0.1630 -0.7723 -0.3269
 7530TIP3    H146785   3.514   6.177  10.318 -0.7070 -1.4335 -0.0499
 7530TIP3    H246786   3.528   6.152  10.466  2.1086  0.1790  0.0366
 7531TIP3   OH246787   4.670   3.900  10.656  0.3544  0.3431 -0.1868
 7531TIP3    H146788   4.588   3.949  10.653  0.3191  0.2290 -2.4991
 7531TIP3    H246789   4.670   3.847  10.576  1.1251 -2.2980  1.4152
 7532TIP3   OH246790   0.416   0.052   9.652 -0.1855  0.3608 -1.0448
 7532TIP3    H146791   0.357   0.065   9.726  0.0365  1.6223 -1.0660
 7532TIP3    H246792   0.369  -0.009   9.595  0.0734 -1.4250  0.5706
 7533TIP3   OH246793   4.021   3.954  10.002 -0.6441 -0.8582 -0.2753
 7533TIP3    H146794   3.987   3.990  10.084  0.8081  2.3359 -0.9396
 7533TIP3    H246795   4.113   3.980  10.000 -0.0181 -2.9022 -1.8892
 7534TIP3   OH246796   4.741   2.684   9.795 -0.7201 -0.1515 -0.5490
 7534TIP3    H146797   4.786   2.762   9.761 -2.6147  1.3469  0.2198
 7534TIP3    H246798   4.701   2.713   9.877 -0.6231 -2.2538  0.3150
 7535TIP3   OH246799   0.842   4.026   9.219 -0.2253  0.2623 -0.1457
 7535TIP3    H146800   0.881   3.939   9.229  0.1498  0.5202  0.7476
 7535TIP3    H246801   0.912   4.079   9.181  0.0528  0.5281  0.7086
 7536TIP3   OH246802   1.667   4.062  10.477  0.4524 -0.0762  0.4501
 7536TIP3    H146803   1.618   4.112  10.412  0.4394 -1.0110 -0.2837
 7536TIP3    H246804   1.744   4.115  10.496  0.5812  0.0921 -0.5199
 7537TIP3   OH246805   0.131   0.309   9.310  0.1284  0.4359  0.2354
 7537TIP3    H146806   0.059   0.341   9.364 -0.5718  1.0524 -1.0238
 7537TIP3    H246807   0.199   0.376   9.317  0.1530  0.3781  0.5607
 7538TIP3   OH246808   5.090   1.231  10.109 -0.5604 -0.7473  0.6516
 7538TIP3    H146809   5.109   1.152  10.160 -0.0558 -1.6453 -0.8590
 7538TIP3    H246810   5.140   1.300  10.151 -0.2895 -1.4244  1.4637
 7539TIP3   OH246811   6.460   1.176  10.392  0.3796  0.0628  0.1096
 7539TIP3    H146812   6.524   1.239  10.358  1.9851  0.0525  2.7650
 7539TIP3    H246813   6.505   1.092  10.389  0.5437  0.0344  1.9157
 7540TIP3   OH246814   0.012   6.224   9.595 -0.7074 -0.1638  0.3511
 7540TIP3    H146815  -0.009   6.157   9.660 -0.2359 -2.0006 -1.2832
 7540TIP3    H246816   0.079   6.184   9.540  0.2262  1.9993 -0.2216
 7541TIP3   OH246817   3.117   2.385  12.656  0.1378  0.9655 -0.4308
 7541TIP3    H146818   3.071   2.335  12.723  0.8345 -4.2198 -3.2709
 7541TIP3    H246819   3.210   2.375  12.679  0.2936  0.8542 -1.0887
 7542TIP3   OH246820   0.989   2.173  12.712  0.0924  0.0403  0.2459
 7542TIP3    H146821   0.988   2.258  12.669 -0.1740 -0.1983 -0.2303
 7542TIP3    H246822   0.943   2.187  12.795  0.0347  0.3553  0.1609
 7543TIP3   OH246823   6.032   3.294   9.472  0.0534  0.2152 -0.2115
 7543TIP3    H146824   5.944   3.327   9.491  0.0514  0.0467  0.0788
 7543TIP3    H246825   6.089   3.369   9.488 -0.2093  0.9437 -2.3779
 7544TIP3   OH246826   6.373   2.824  10.643 -0.2269 -0.1658 -0.2534
 7544TIP3    H146827   6.461   2.853  10.621 -0.9094  1.4695 -1.0753
 7544TIP3    H246828   6.341   2.783  10.563 -0.4205 -0.2013 -0.1584
 7545TIP3   OH246829   3.454   0.763   9.342 -0.0969 -0.0283 -0.4834
 7545TIP3    H146830   3.397   0.839   9.352 -0.5547 -0.2383 -1.3757
 7545TIP3    H246831   3.396   0.694   9.308  0.2356 -0.8747  0.6060
 7546TIP3   OH246832   1.726   5.063   9.314  0.6748  0.0863  0.2399
 7546TIP3    H146833   1.809   5.018   9.295  0.7212 -0.6317  1.9581
 7546TIP3    H246834   1.667   5.036   9.244  1.4944 -0.5344 -0.2228
 7547TIP3   OH246835   4.914   1.614  10.240  0.4048  0.8388 -0.4918
 7547TIP3    H146836   4.974   1.634  10.168  1.7980  0.2708  0.4665
 7547TIP3    H246837   4.956   1.651  10.318 -1.3286  1.9147 -0.0008
 7548TIP3   OH246838   2.019   0.789  12.534  0.3133 -0.1142  0.3741
 7548TIP3    H146839   2.022   0.846  12.610 -1.4445  1.2177 -0.4870
 7548TIP3    H246840   1.926   0.779  12.514  0.6622 -1.6073 -0.7625
 7549TIP3   OH246841   5.519   5.995  11.782  0.2193  0.7255 -0.2270
 7549TIP3    H146842   5.520   5.904  11.812  2.0001  0.7213 -0.2113
 7549TIP3    H246843   5.471   5.991  11.699 -0.6845 -0.0220  0.3004
 7550TIP3   OH246844   5.686   2.493  12.416  0.3094  0.0049  0.2644
 7550TIP3    H146845   5.643   2.521  12.335 -0.9786 -1.9956  0.1755
 7550TIP3    H246846   5.773   2.466  12.388 -0.0365 -0.4337 -0.4391
 7551TIP3   OH246847   3.283   2.755  11.539 -0.1934 -0.0093  0.1332
 7551TIP3    H146848   3.198   2.799  11.539  0.6223  2.0639 -3.9547
 7551TIP3    H246849   3.344   2.820  11.575 -0.0821 -0.9259  1.6537
 7552TIP3   OH246850   4.739   3.048  10.796  0.0138 -0.0471  0.0828
 7552TIP3    H146851   4.726   3.007  10.711 -1.3488  3.0499 -1.3733
 7552TIP3    H246852   4.821   3.096  10.788  0.8406 -1.2064  1.2270
 7553TIP3   OH246853   1.079   5.226   9.415 -0.1410 -0.5668  0.3350
 7553TIP3    H146854   1.031   5.253   9.493 -0.2810  0.0839  0.0274
 7553TIP3    H246855   1.055   5.290   9.349  1.1222 -0.2542  0.1582
 7554TIP3   OH246856   1.277   3.003  11.702 -0.4022 -0.3430 -0.0920
 7554TIP3    H146857   1.213   2.944  11.662  0.6169 -0.9061 -0.9305
 7554TIP3    H246858   1.233   3.035  11.781 -0.9331 -2.3277  0.4797
 7555TIP3   OH246859   0.478   2.242  11.324 -0.1981  0.0335 -0.2864
 7555TIP3    H146860   0.457   2.333  11.302  0.7693 -0.0609 -1.7320
 7555TIP3    H246861   0.516   2.206  11.243  0.8924 -1.2059  0.7365
 7556TIP3   OH246862   5.009   1.596  11.795  0.0808 -0.1113  0.1863
 7556TIP3    H146863   4.933   1.552  11.756  0.2662 -0.6167  0.3896
 7556TIP3    H246864   4.972   1.665  11.849 -0.3209 -1.3311  1.5298
 7557TIP3   OH246865   2.298   2.633  11.348 -0.4831  0.0178 -0.1506
 7557TIP3    H146866   2.307   2.691  11.424  0.3269 -1.0850  0.6312
 7557TIP3    H246867   2.342   2.680  11.277  0.9984 -0.0101  0.6946
 7558TIP3   OH246868   5.332   3.574  10.031  0.0800 -0.3589 -0.4487
 7558TIP3    H146869   5.419   3.588  10.069 -0.0936 -0.0042 -0.1665
 7558TIP3    H246870   5.345   3.507   9.965  0.7502  0.3646 -1.0813
 7559TIP3   OH246871   0.301   3.997  12.286  0.1510  0.1961  0.2833
 7559TIP3    H146872   0.348   4.081  12.290 -0.7945  0.8098 -0.8324
 7559TIP3    H246873   0.241   3.999  12.361 -0.7988  1.1224 -0.4718
 7560TIP3   OH246874   5.818   1.844  11.910  0.7102  0.2107  0.0353
 7560TIP3    H146875   5.761   1.912  11.874  1.5800  0.6326 -0.5760
 7560TIP3    H246876   5.904   1.862  11.872  1.7467  0.7972  2.4869
 7561TIP3   OH246877   5.008   4.081   9.864 -0.2353  0.8124 -0.0842
 7561TIP3    H146878   5.088   4.035   9.887  1.2078  2.6645 -1.0672
 7561TIP3    H246879   5.024   4.171   9.893 -1.8586  1.2715 -0.5533
 7562TIP3   OH246880   4.247   2.882   9.268  0.2284 -0.0724 -0.3481
 7562TIP3    H146881   4.307   2.849   9.334 -0.2134 -1.7832 -0.7516
 7562TIP3    H246882   4.180   2.929   9.318  0.7804  0.0599  0.2779
 7563TIP3   OH246883   6.526   5.976  10.584  0.0123  0.5959  0.2378
 7563TIP3    H146884   6.438   5.988  10.548  0.5787  1.2281 -1.0037
 7563TIP3    H246885   6.552   5.889  10.554  0.5275  1.1675 -1.0423
 7564TIP3   OH246886   5.796   4.724  12.077 -0.2579 -0.0261 -0.7936
 7564TIP3    H146887   5.756   4.759  12.157  1.1588  1.6953 -0.7725
 7564TIP3    H246888   5.752   4.772  12.007  1.2646  1.4739 -0.7943
 7565TIP3   OH246889   0.901   5.780  12.036 -0.3168  0.4259  0.0384
 7565TIP3    H146890   0.894   5.872  12.061  0.7835  0.6226 -0.3090
 7565TIP3    H246891   0.823   5.763  11.984  0.0072  1.4685 -0.8087
 7566TIP3   OH246892   5.822   5.735  11.938 -0.4350 -0.2716  0.2739
 7566TIP3    H146893   5.806   5.820  11.896 -0.7696 -0.6590 -0.3877
 7566TIP3    H246894   5.779   5.742  12.023  1.6397  1.1350  1.3086
 7567TIP3   OH246895   5.212   2.090  11.955 -0.3602 -0.3705 -0.1173
 7567TIP3    H146896   5.243   2.005  11.986  1.7977 -0.3158 -1.8287
 7567TIP3    H246897   5.254   2.153  12.013 -2.9609 -0.3722  1.9721
 7568TIP3   OH246898   0.477   5.145   9.566  0.4421 -0.2589  0.1422
 7568TIP3    H146899   0.401   5.202   9.578  0.6284 -0.2521  1.3930
 7568TIP3    H246900   0.441   5.057   9.567  0.4297 -0.2519  0.6449
 7569TIP3   OH246901   4.558   2.724  10.994  0.0913 -0.0226 -0.3999
 7569TIP3    H146902   4.545   2.817  10.976 -0.1087 -0.2227 -1.3301
 7569TIP3    H246903   4.488   2.680  10.945  0.1469 -0.6601  0.0807
 7570TIP3   OH246904   5.676   5.582  11.666  0.0964  0.2394  0.2070
 7570TIP3    H146905   5.692   5.550  11.755 -1.8063  1.0189  0.8903
 7570TIP3    H246906   5.605   5.527  11.633  0.4678  0.2648 -0.6645
 7571TIP3   OH246907   0.156   3.125  12.727 -0.0286  1.0844  0.2039
 7571TIP3    H146908   0.145   3.191  12.795 -1.9556  2.6641 -1.4978
 7571TIP3    H246909   0.067   3.109  12.695  0.2693 -2.7711  0.8256
 7572TIP3   OH246910   4.288   0.792  11.285  0.3777  0.6180 -0.0471
 7572TIP3    H146911   4.336   0.771  11.365 -2.0891 -2.6393  0.7702
 7572TIP3    H246912   4.252   0.879  11.301  1.2272  0.6971  1.6777
 7573TIP3   OH246913   5.002   2.817  10.960 -0.4880 -0.2297  0.1936
 7573TIP3    H146914   5.048   2.734  10.968  0.9493  0.4070 -0.9648
 7573TIP3    H246915   4.989   2.829  10.865 -1.5385  0.4228  0.3925
 7574TIP3   OH246916   5.942   4.477  11.452  0.0680 -0.4831 -0.5163
 7574TIP3    H146917   5.970   4.488  11.543 -0.7362  1.2237 -0.4436
 7574TIP3    H246918   5.847   4.475  11.456  0.0159  0.0193 -1.3618
 7575TIP3   OH246919   2.538   5.132  11.206 -0.0183  0.7468 -0.2197
 7575TIP3    H146920   2.479   5.151  11.280  0.1922  1.0668 -0.1321
 7575TIP3    H246921   2.622   5.110  11.247 -0.9444 -3.5300 -0.0911
 7576TIP3   OH246922   5.655   1.870  11.694  0.1696  0.1431  0.2418
 7576TIP3    H146923   5.684   1.959  11.673  0.7626 -0.4397 -1.6351
 7576TIP3    H246924   5.568   1.863  11.654 -0.2918  0.1536  1.2039
 7577TIP3   OH246925   1.121   5.635  12.319  0.0386 -0.3411 -0.1514
 7577TIP3    H146926   1.050   5.571  12.318 -1.3451  1.1308 -0.2193
 7577TIP3    H246927   1.115   5.676  12.405 -1.0242  1.7194 -1.1587
 7578TIP3   OH246928   0.418   3.006  11.641  0.2974 -0.4893 -0.6581
 7578TIP3    H146929   0.479   2.969  11.705  0.3493  1.3357  0.4291
 7578TIP3    H246930   0.392   2.932  11.587  2.0658 -1.6554  0.0030
 7579TIP3   OH246931   4.324   3.726  10.130  0.5135 -0.1382  0.0409
 7579TIP3    H146932   4.253   3.686  10.181  1.0331  0.7498  1.5408
 7579TIP3    H246933   4.287   3.739  10.043 -0.8537 -0.5475  0.5321
 7580TIP3   OH246934   2.388   6.377   9.999 -0.5280  0.7002 -0.0779
 7580TIP3    H146935   2.404   6.306   9.937  0.0709  1.7629 -1.1945
 7580TIP3    H246936   2.382   6.334  10.085  0.1033 -0.6483 -0.6830
 7581TIP3   OH246937   2.102   2.507  10.896 -0.2018  0.0369 -0.3480
 7581TIP3    H146938   2.068   2.510  10.986 -0.2634 -1.7385 -0.2703
 7581TIP3    H246939   2.177   2.567  10.897 -0.2645  0.1281  0.8640
 7582TIP3   OH246940   5.095   3.903  12.728  0.3088  0.4347 -0.3157
 7582TIP3    H146941   5.177   3.853  12.728  0.3097  0.4033 -1.6950
 7582TIP3    H246942   5.104   3.965  12.656 -1.6629 -0.9735 -1.9287
 7583TIP3   OH246943   4.076   5.943  10.185  0.2794  0.2509  0.0772
 7583TIP3    H146944   4.162   5.974  10.160  0.2749  0.5800  0.4591
 7583TIP3    H246945   4.070   5.960  10.279 -0.3402  0.5673 -0.0106
 7584TIP3   OH246946   4.593   1.499  10.260  0.2517 -0.4207  0.0056
 7584TIP3    H146947   4.578   1.450  10.341 -0.1195 -0.6126 -0.1774
 7584TIP3    H246948   4.655   1.567  10.284 -0.6097  0.1430  0.6899
 7585TIP3   OH246949   4.808   0.200  11.130 -0.2517 -0.0094  0.5990
 7585TIP3    H146950   4.741   0.157  11.077  0.3065 -0.9591  0.6524
 7585TIP3    H246951   4.879   0.217  11.069 -0.4338  0.8049  0.5937
 7586TIP3   OH246952   2.395   3.552   9.415  0.0068  0.5580 -0.0493
 7586TIP3    H146953   2.363   3.484   9.474 -1.0941 -0.7945 -2.0792
 7586TIP3    H246954   2.360   3.633   9.450 -2.3370 -0.4322  0.0811
 7587TIP3   OH246955   0.093   0.766   9.596  0.6200  0.2215 -0.5281
 7587TIP3    H146956   0.175   0.718   9.604  0.6433  0.4058  0.4497
 7587TIP3    H246957   0.117   0.858   9.609  0.1053  0.1666  1.0758
 7588TIP3   OH246958   4.834   5.579   9.683 -0.1545  0.9388 -0.4321
 7588TIP3    H146959   4.903   5.607   9.744  0.2805 -0.9430  0.0088
 7588TIP3    H246960   4.752   5.600   9.728  0.1016  2.1563 -0.4735
 7589TIP3   OH246961   1.344   5.220  10.670  0.0407 -0.4561  0.0083
 7589TIP3    H146962   1.320   5.137  10.629 -1.5622  1.1891 -2.6852
 7589TIP3    H246963   1.385   5.271  10.600  1.1345  1.0141  1.6137
 7590TIP3   OH246964   3.329   5.211  12.163 -0.2230  0.2247  0.2120
 7590TIP3    H146965   3.356   5.166  12.243 -0.5046 -0.0794  0.1396
 7590TIP3    H246966   3.261   5.154  12.126 -0.1450  0.4030 -0.2029
 7591TIP3   OH246967   5.474   1.102  12.189  0.1408 -0.0183  0.4039
 7591TIP3    H146968   5.408   1.042  12.154  2.0960 -1.3390 -1.2918
 7591TIP3    H246969   5.461   1.100  12.284 -0.5369 -2.3804  0.3295
 7592TIP3   OH246970   0.321   0.572   9.991  0.3333  0.2108 -0.5144
 7592TIP3    H146971   0.268   0.516  10.047  0.1000 -1.3869 -2.2326
 7592TIP3    H246972   0.410   0.561  10.024 -0.0917  1.6167  1.3283
 7593TIP3   OH246973   0.651   0.242  11.046  0.0449  0.4956  0.0677
 7593TIP3    H146974   0.663   0.301  10.972 -1.2802 -0.3085 -0.8181
 7593TIP3    H246975   0.613   0.163  11.009 -0.0153 -0.1930  1.5118
 7594TIP3   OH246976   4.185   6.316  10.046  0.0323  0.2826 -0.0616
 7594TIP3    H146977   4.156   6.258  10.116  0.2815  0.3716  0.1184
 7594TIP3    H246978   4.245   6.377  10.090  0.2729  0.2706 -0.3742
 7595TIP3   OH246979   0.577   4.350   9.925  0.6607 -0.1572  0.2131
 7595TIP3    H146980   0.597   4.360  10.018  0.7805  0.9146  0.0861
 7595TIP3    H246981   0.579   4.256   9.910  1.2059 -0.3127  1.1745
 7596TIP3   OH246982   2.216   5.407  11.104  0.1076  0.3554 -0.0521
 7596TIP3    H146983   2.145   5.369  11.052  0.2635 -0.2843  0.1916
 7596TIP3    H246984   2.202   5.502  11.099 -1.1415  0.2239  0.5284
 7597TIP3   OH246985   3.548   5.221  10.748 -0.4210  0.0163 -0.1387
 7597TIP3    H146986   3.588   5.208  10.834 -1.0477  0.3696  0.2160
 7597TIP3    H246987   3.543   5.316  10.738  1.4109  0.0243 -1.4223
 7598TIP3   OH246988   1.277   4.560  12.738  0.0496 -0.0712 -0.1523
 7598TIP3    H146989   1.268   4.529  12.828  0.7668  1.1870  0.3795
 7598TIP3    H246990   1.333   4.637  12.745 -1.5397  1.2858 -1.3977
 7599TIP3   OH246991   5.963   1.012  11.732  0.4159 -0.3785  0.4288
 7599TIP3    H146992   6.020   1.086  11.712  0.9234 -1.0285 -0.6117
 7599TIP3    H246993   5.886   1.026  11.676 -0.2421  0.2097  1.4363
 7600TIP3   OH246994   4.746   3.470  10.240  0.6038 -0.1777  0.3526
 7600TIP3    H146995   4.766   3.549  10.190  1.6226 -0.9454 -0.4854
 7600TIP3    H246996   4.785   3.398  10.190 -2.5888 -1.5878 -0.3534
 7601TIP3   OH246997   5.294   4.052  10.309 -0.5803  0.8644  0.4843
 7601TIP3    H146998   5.202   4.029  10.318  0.0234 -1.8383  0.5220
 7601TIP3    H246999   5.331   4.039  10.397  0.3173 -0.6845 -0.0847
 7602TIP3   OH247000   2.257   4.748  11.138 -0.3031 -0.0004 -0.0603
 7602TIP3    H147001   2.351   4.765  11.138 -0.0325 -1.3605 -0.1241
 7602TIP3    H247002   2.227   4.777  11.051  0.0473  0.4564 -0.0313
 7603TIP3   OH247003   0.984   2.787  12.949  0.0930  0.1043 -0.5207
 7603TIP3    H147004   0.969   2.693  12.959 -0.3882  0.2733  0.4057
 7603TIP3    H247005   0.913   2.828  12.997  0.6643  0.9472 -0.3728
 7604TIP3   OH247006   4.071   4.137  10.901  0.3014  0.1041  0.2935
 7604TIP3    H147007   3.981   4.117  10.928  0.4704 -0.5132  0.4067
 7604TIP3    H247008   4.100   4.203  10.964  0.3956 -0.6967  1.0986
 7605TIP3   OH247009   0.206   3.029  11.322 -0.2642 -0.4481  0.4487
 7605TIP3    H147010   0.198   3.100  11.385  0.4119 -0.5755  0.6787
 7605TIP3    H247011   0.230   2.952  11.373  1.3652 -0.3229 -0.0581
 7606TIP3   OH247012   2.706   3.931  11.855  0.8482 -0.1785 -0.2921
 7606TIP3    H147013   2.649   4.003  11.827  1.1355  1.0524  2.0684
 7606TIP3    H247014   2.650   3.877  11.910  0.5717 -1.9806 -2.2363
 7607TIP3   OH247015   2.714   4.118  10.364 -0.3464 -0.1217 -0.3983
 7607TIP3    H147016   2.627   4.105  10.325 -0.2004  0.0247 -0.7750
 7607TIP3    H247017   2.746   4.030  10.382  0.0738 -0.2442 -1.6927
 7608TIP3   OH247018   5.227   6.238  11.420  0.0601 -0.2423 -0.3252
 7608TIP3    H147019   5.291   6.169  11.436  1.3201  1.1772  1.1533
 7608TIP3    H247020   5.158   6.222  11.485  1.2983  0.9324  1.3581
 7609TIP3   OH247021   4.202   6.196   9.806 -0.2249  0.2868  0.3920
 7609TIP3    H147022   4.292   6.217   9.781 -1.1712  2.8463 -1.3389
 7609TIP3    H247023   4.189   6.240   9.890  0.0586  0.1428  0.5115
 7610TIP3   OH247024   4.379   3.695  11.113  0.0541  0.1028 -0.4060
 7610TIP3    H147025   4.409   3.708  11.203  0.9159 -0.3402 -0.6133
 7610TIP3    H247026   4.323   3.618  11.118 -2.6130  1.9710  0.2988
 7611TIP3   OH247027   6.525   5.211   9.636 -0.0388 -0.0319 -0.0059
 7611TIP3    H147028   6.491   5.253   9.715  2.0624 -1.1336  1.5938
 7611TIP3    H247029   6.491   5.121   9.641  1.6703 -0.6897  0.7960
 7612TIP3   OH247030   6.029   2.423   9.443 -0.0791 -0.2873  0.1108
 7612TIP3    H147031   6.105   2.383   9.485  0.3219  0.8554  0.4916
 7612TIP3    H247032   5.965   2.434   9.514 -1.2316 -2.6127 -0.4663
 7613TIP3   OH247033   5.266   4.883   9.267 -0.0640  0.2369 -0.3419
 7613TIP3    H147034   5.326   4.810   9.279 -0.5969 -0.1248  0.2097
 7613TIP3    H247035   5.315   4.959   9.296  0.1457 -0.0513  0.0673
 7614TIP3   OH247036   3.959   0.806  12.322 -0.1285 -0.5458 -0.2449
 7614TIP3    H147037   4.054   0.801  12.320 -0.0193  0.1041  1.4821
 7614TIP3    H247038   3.935   0.786  12.412 -1.4653  1.4045 -0.0925
 7615TIP3   OH247039   5.609   2.303  12.217  0.3167 -0.0066  0.3931
 7615TIP3    H147040   5.634   2.215  12.248 -1.9630  0.0781  2.8357
 7615TIP3    H247041   5.524   2.290  12.176  0.4978  0.9059 -0.2881
 7616TIP3   OH247042   1.337   5.349  11.910 -0.0615  0.3001 -0.2717
 7616TIP3    H147043   1.407   5.294  11.946 -0.6202 -0.2150  0.0479
 7616TIP3    H247044   1.376   5.436  11.903  0.9076 -0.1747 -0.9954
 7617TIP3   OH247045   2.948   3.965  12.307 -0.2339  0.3326 -0.4078
 7617TIP3    H147046   3.022   3.914  12.275 -0.4063 -0.3600  0.2722
 7617TIP3    H247047   2.987   4.028  12.367 -0.1631  0.1539 -0.2652
 7618TIP3   OH247048   5.383   2.434   9.797 -0.2004  0.2932 -0.5662
 7618TIP3    H147049   5.431   2.420   9.715 -2.7089  0.4761 -2.1436
 7618TIP3    H247050   5.403   2.356   9.849  1.5221  0.2204 -1.2499
 7619TIP3   OH247051   0.238   3.907   9.880 -0.1176  0.6302 -0.1889
 7619TIP3    H147052   0.246   3.879   9.789  0.3593  0.0199  0.0345
 7619TIP3    H247053   0.328   3.913   9.911 -0.2555  1.3597  0.0896
 7620TIP3   OH247054   1.013   3.441  12.566  0.2586  0.1246  0.1479
 7620TIP3    H147055   0.998   3.376  12.497 -1.3086 -0.4231  0.9333
 7620TIP3    H247056   1.088   3.408  12.615 -0.8686 -1.4732  0.8885
 7621TIP3   OH247057   5.516   0.017  10.482 -0.0532 -0.0110 -0.4286
 7621TIP3    H147058   5.558  -0.069  10.484 -0.6232 -0.2785  0.3232
 7621TIP3    H247059   5.472   0.024  10.567  2.1275  2.0972  0.6289
 7622TIP3   OH247060   3.112   1.857  10.585  0.3894 -0.1026 -0.1137
 7622TIP3    H147061   3.085   1.893  10.501 -1.2715 -0.8614  0.0529
 7622TIP3    H247062   3.153   1.774  10.564  2.2529  0.8211 -0.3283
 7623TIP3   OH247063   3.830   5.405  12.001  0.5337 -0.2272  0.7224
 7623TIP3    H147064   3.852   5.410  12.093 -0.3878 -0.9174  0.9986
 7623TIP3    H247065   3.780   5.323  11.992  1.0148 -0.4192 -0.4711
 7624TIP3   OH247066   6.325   4.311   9.323  0.2639 -0.0833 -0.1393
 7624TIP3    H147067   6.326   4.275   9.411  0.2016  0.0769 -0.0730
 7624TIP3    H247068   6.339   4.235   9.266  3.2136  0.1632  0.1009
 7625TIP3   OH247069   1.242   5.046  10.251  0.5820  0.7886  0.0545
 7625TIP3    H147070   1.148   5.065  10.248  0.6821  1.3132  0.2327
 7625TIP3    H247071   1.278   5.092  10.175  0.7255  0.7284  0.0852
 7626TIP3   OH247072   2.215   1.140  11.052 -0.5920  0.6497 -0.5444
 7626TIP3    H147073   2.127   1.110  11.028 -0.9550  0.9056  0.4425
 7626TIP3    H247074   2.269   1.117  10.976 -1.2004 -0.9060 -0.5435
 7627TIP3   OH247075   4.601   3.213  12.189  0.2384 -0.1184 -0.4001
 7627TIP3    H147076   4.596   3.251  12.277 -0.8339  2.8383 -1.5964
 7627TIP3    H247077   4.510   3.194  12.166  0.5093 -0.8562 -0.8706
 7628TIP3   OH247078   5.353   0.663  10.885 -0.0890 -0.6417  0.4971
 7628TIP3    H147079   5.265   0.672  10.920  0.7684  2.3906  2.2660
 7628TIP3    H247080   5.341   0.645  10.792 -2.5602 -0.4580  0.7312
 7629TIP3   OH247081   1.737   4.658  11.435  0.0178 -0.6398 -0.2183
 7629TIP3    H147082   1.770   4.695  11.517 -0.0205  0.5810 -0.7307
 7629TIP3    H247083   1.690   4.731  11.393 -0.4832 -1.4171 -1.0412
 7630TIP3   OH247084   1.393   4.910   9.504 -0.7333  0.3518  0.2660
 7630TIP3    H147085   1.451   4.969   9.553  0.5703 -1.0160  0.4371
 7630TIP3    H247086   1.400   4.827   9.550 -1.9173 -0.1625 -0.4520
 7631TIP3   OH247087   5.267   6.675   9.342 -0.2907  0.8153 -0.4356
 7631TIP3    H147088   5.300   6.765   9.346  1.5327  0.1607  0.1585
 7631TIP3    H247089   5.182   6.678   9.387  0.5508  1.9139  1.1686
 7632TIP3   OH247090   1.995   1.725   9.741 -0.2217  0.0611 -0.0284
 7632TIP3    H147091   1.958   1.795   9.687 -0.1217  0.9013  0.9680
 7632TIP3    H247092   2.050   1.676   9.680 -1.2876  0.0638 -1.0396
 7633TIP3   OH247093   1.907   6.606   9.598 -0.1495 -0.1671 -0.4565
 7633TIP3    H147094   1.852   6.645   9.666 -0.2588  1.0945 -1.2456
 7633TIP3    H247095   1.996   6.634   9.620 -0.4106  2.0916 -1.9917
 7634TIP3   OH247096   5.376   2.348  12.078  0.3046 -0.1095 -0.1700
 7634TIP3    H147097   5.296   2.314  12.119  0.5375  0.5474  0.8801
 7634TIP3    H247098   5.345   2.403  12.006 -0.2935  1.4484  1.2162
 7635TIP3   OH247099   6.734   2.238  11.264 -0.0980  0.0061 -0.0915
 7635TIP3    H147100   6.811   2.231  11.322  1.2715  0.5522 -1.7496
 7635TIP3    H247101   6.688   2.155  11.276  0.5460 -0.1917  1.2081
 7636TIP3   OH247102   1.989   4.686   9.274 -0.0340  0.5902 -0.6140
 7636TIP3    H147103   1.952   4.603   9.244  1.3847  0.3269 -1.7893
 7636TIP3    H247104   2.033   4.664   9.357  1.7333 -0.2779 -1.7049
 7637TIP3   OH247105   6.584   6.469   9.870 -0.0952 -0.7809  0.7490
 7637TIP3    H147106   6.632   6.443   9.949  0.2424 -1.9883  0.1775
 7637TIP3    H247107   6.496   6.435   9.884  0.2779 -2.0838  0.1142
 7638TIP3   OH247108   2.799   5.521  12.012 -0.6394  0.1022 -0.1634
 7638TIP3    H147109   2.776   5.448  12.069  1.0281 -0.3572 -0.0101
 7638TIP3    H247110   2.866   5.485  11.953  0.1590  1.4570 -0.1317
 7639TIP3   OH247111   4.414   4.105   9.451 -0.1359  0.5344 -0.3004
 7639TIP3    H147112   4.345   4.151   9.498  0.4657  1.9500 -0.7479
 7639TIP3    H247113   4.464   4.174   9.407  0.6345 -0.5713 -1.2412
 7640TIP3   OH247114   0.343   5.767   9.931  0.2615  0.2901  0.2901
 7640TIP3    H147115   0.430   5.783   9.895  0.2626  1.1632  0.6494
 7640TIP3    H247116   0.315   5.684   9.892  0.0831  1.3946 -2.0556
 7641TIP3   OH247117   6.121   1.839   9.837  0.8799 -0.1692  0.0761
 7641TIP3    H147118   6.164   1.765   9.880 -0.9895  0.0969  2.6571
 7641TIP3    H247119   6.030   1.810   9.825  0.5159  1.1160 -0.4409
 7642TIP3   OH247120   6.327   3.606  11.529  0.4416  0.0599 -0.0193
 7642TIP3    H147121   6.393   3.563  11.476  0.2420 -0.0884 -0.1512
 7642TIP3    H247122   6.354   3.698  11.532  0.6853 -0.0117 -0.0195
 7643TIP3   OH247123   0.602   0.406   9.786 -0.0398  0.1145 -0.2996
 7643TIP3    H147124   0.620   0.496   9.761  3.0986 -0.6020 -1.0002
 7643TIP3    H247125   0.571   0.364   9.706 -0.5496  0.3190 -0.2140
 7644TIP3   OH247126   2.372   1.864  11.995 -0.2297 -0.5096  0.0985
 7644TIP3    H147127   2.445   1.805  11.974 -1.6181 -2.2007 -0.1902
 7644TIP3    H247128   2.336   1.830  12.077 -1.1340 -0.1483 -0.1366
 7645TIP3   OH247129   2.068   0.118   9.507  0.1367 -0.3124  0.0556
 7645TIP3    H147130   2.131   0.072   9.452  1.0864 -0.3438  1.1199
 7645TIP3    H247131   2.028   0.183   9.449  0.7094 -0.6934 -0.7873
 7646TIP3   OH247132   3.738   6.364  11.531 -0.5249  0.0398  0.4163
 7646TIP3    H147133   3.685   6.428  11.578  0.5080 -0.0583  1.7823
 7646TIP3    H247134   3.675   6.305  11.491 -1.4685  0.1770  1.6359
 7647TIP3   OH247135   6.149   3.963  11.027  0.0684 -0.1163  0.0369
 7647TIP3    H147136   6.177   4.029  11.090  1.2417 -0.6083  0.0527
 7647TIP3    H247137   6.160   4.004  10.941 -1.6336  0.5926  0.1260
 7648TIP3   OH247138   5.577   0.755  10.735  0.1792 -0.5484 -0.3596
 7648TIP3    H147139   5.512   0.760  10.665  1.6845 -1.7070 -1.9417
 7648TIP3    H247140   5.530   0.718  10.809 -1.5409  0.9817 -0.6221
 7649TIP3   OH247141   6.421   4.715   9.447  0.2734  1.0211 -0.3600
 7649TIP3    H147142   6.502   4.665   9.456 -0.8171 -0.5192  1.8127
 7649TIP3    H247143   6.388   4.692   9.360  0.5958 -0.8666 -0.0175
 7650TIP3   OH247144   3.451   6.719   9.233 -0.6132 -0.0537 -0.2192
 7650TIP3    H147145   3.376   6.687   9.283  1.2278 -0.8184  2.2491
 7650TIP3    H247146   3.483   6.794   9.284  0.1693  0.4024 -1.3544
 7651TIP3   OH247147   1.922   1.042  10.030  0.0640 -0.1492 -0.7349
 7651TIP3    H147148   1.862   1.083   9.967  0.3116 -0.3262 -1.0903
 7651TIP3    H247149   1.962   0.970   9.982 -0.0037 -0.5079 -0.2587
 7652TIP3   OH247150   3.424   5.603  11.607 -0.4368 -1.0739  0.4693
 7652TIP3    H147151   3.358   5.666  11.638  0.1257 -0.3957  0.2950
 7652TIP3    H247152   3.489   5.656  11.563  0.6111 -1.6569  1.2688
 7653TIP3   OH247153   3.549   6.108  10.157 -0.0133 -0.5196 -0.4710
 7653TIP3    H147154   3.643   6.099  10.140 -0.1295 -0.1438 -1.3658
 7653TIP3    H247155   3.514   6.021  10.139  0.1025 -0.5474 -0.5681
 7654TIP3   OH247156   4.278   0.154  12.357  0.4726 -0.4799 -0.3797
 7654TIP3    H147157   4.306   0.068  12.325 -0.3046 -0.8083 -0.2161
 7654TIP3    H247158   4.356   0.192  12.398  0.9805 -0.8521 -0.9804
 7655TIP3   OH247159   2.525   1.328  11.082  0.3234  0.3838  0.2620
 7655TIP3    H147160   2.530   1.423  11.087  1.4101  0.4657 -1.6188
 7655TIP3    H247161   2.581   1.297  11.153 -0.6994  1.1007  1.4253
 7656TIP3   OH247162   0.200   5.548   9.807 -0.3761  0.0957 -0.1270
 7656TIP3    H147163   0.128   5.526   9.749  0.2317 -1.2257 -0.4053
 7656TIP3    H247164   0.230   5.464   9.842  0.6660  0.6691  0.4078
 7657TIP3   OH247165   3.944   4.424  10.822  0.4628 -0.1254  0.2530
 7657TIP3    H147166   3.926   4.518  10.818 -0.8240 -0.3866 -2.4832
 7657TIP3    H247167   3.984   4.411  10.908  0.4351  2.8597  0.8316
 7658TIP3   OH247168   1.782   1.001  12.922 -0.4841 -0.6666 -0.4264
 7658TIP3    H147169   1.867   1.031  12.890  0.4542 -0.5750  1.9220
 7658TIP3    H247170   1.733   0.978  12.843  0.4355  2.5172 -2.0804
 7659TIP3   OH247171   5.442   1.620  12.085  0.6909  0.2746  0.3394
 7659TIP3    H147172   5.507   1.607  12.017 -1.2113 -0.4724 -1.4441
 7659TIP3    H247173   5.474   1.568  12.159  1.6581 -0.8150 -0.8110
 7660TIP3   OH247174   3.535   6.267   9.263 -0.0883 -0.1804 -0.2402
 7660TIP3    H147175   3.623   6.304   9.258  0.3251 -1.0688  0.3288
 7660TIP3    H247176   3.519   6.232   9.176 -0.6287  1.6022 -0.9069
 7661TIP3   OH247177   4.128   3.961  10.710  0.0068  0.2665  0.6022
 7661TIP3    H147178   4.106   4.011  10.788 -2.8959  0.5193 -0.2279
 7661TIP3    H247179   4.196   4.012  10.667  0.1617  1.2123  1.9218
 7662TIP3   OH247180   1.491   2.730  10.274  0.4038 -0.0479 -0.2115
 7662TIP3    H147181   1.578   2.703  10.246  0.1862  0.2820 -1.2382
 7662TIP3    H247182   1.435   2.654  10.257  0.4389 -0.1612  0.1785
 7663TIP3   OH247183   0.722   1.512  12.447  0.1861  0.2806 -0.0980
 7663TIP3    H147184   0.719   1.421  12.475  1.8713 -0.3265 -1.7091
 7663TIP3    H247185   0.645   1.552  12.488 -1.0783 -2.0402 -0.0250
 7664TIP3   OH247186   4.742   3.962  12.021 -0.0010 -0.2293 -0.2506
 7664TIP3    H147187   4.698   4.045  12.039  0.5516 -0.1413  0.7641
 7664TIP3    H247188   4.802   3.982  11.949  1.4092  0.7452  1.1136
 7665TIP3   OH247189   3.639   6.562  10.005  0.2854 -0.0988  0.0093
 7665TIP3    H147190   3.632   6.594   9.915 -1.4196 -0.0526  0.1208
 7665TIP3    H247191   3.562   6.505  10.016 -1.2007  2.1158  2.2705
 7666TIP3   OH247192   3.533   3.670  10.284  0.1794  0.4111  0.6690
 7666TIP3    H147193   3.554   3.577  10.292  0.9960  0.6893  2.0489
 7666TIP3    H247194   3.609   3.715  10.322  0.1695  1.6744 -0.7261
 7667TIP3   OH247195   5.233   5.584  12.073 -0.0485  0.1854  0.7526
 7667TIP3    H147196   5.179   5.659  12.048 -0.5147 -0.4670 -0.2835
 7667TIP3    H247197   5.284   5.615  12.148 -1.5033  0.9743  1.4659
 7668TIP3   OH247198   5.652   2.810  10.486 -0.4383  0.0593 -0.6055
 7668TIP3    H147199   5.700   2.885  10.452  2.1011 -0.2257  1.9785
 7668TIP3    H247200   5.617   2.840  10.570  0.4701 -1.5424  0.3890
 7669TIP3   OH247201   2.154   1.570  10.042 -0.2450  0.1589  0.2449
 7669TIP3    H147202   2.146   1.491   9.989  1.6106  0.8460 -1.1324
 7669TIP3    H247203   2.158   1.538  10.132  1.0065 -1.3929 -0.3192
 7670TIP3   OH247204   1.911   4.896   9.136  0.2783 -0.8648 -0.5482
 7670TIP3    H147205   1.925   4.809   9.175  1.0819 -0.9286 -0.9607
 7670TIP3    H247206   1.981   4.950   9.173  0.5420 -0.7131 -1.2495
 7671TIP3   OH247207   2.489   3.114   9.413 -0.4663 -0.6038  0.2338
 7671TIP3    H147208   2.503   3.179   9.345 -3.0770 -0.0340  0.1190
 7671TIP3    H247209   2.576   3.082   9.435  0.8236  2.1421 -0.4653
 7672TIP3   OH247210   4.396   3.430  10.043  0.2125  0.3233  0.4028
 7672TIP3    H147211   4.384   3.525  10.031  1.6755  0.3209 -1.5731
 7672TIP3    H247212   4.390   3.394   9.954 -1.0579 -1.5782  1.1868
 7673TIP3   OH247213   0.428   4.285  12.336 -0.3277  0.1872  0.0307
 7673TIP3    H147214   0.399   4.342  12.265  0.2406  0.1826 -0.2084
 7673TIP3    H247215   0.496   4.230  12.297  1.8559  1.9058  1.1725
 7674TIP3   OH247216   6.708   1.420  11.177 -0.2793  0.1827  0.5760
 7674TIP3    H147217   6.666   1.389  11.097 -1.1706  2.6326  0.0296
 7674TIP3    H247218   6.776   1.354  11.195 -0.5236 -0.8057 -1.7709
 7675TIP3   OH247219   2.435   2.035   9.899 -0.4750 -0.2117  0.0562
 7675TIP3    H147220   2.358   1.988   9.868  0.8490 -1.7405 -1.1037
 7675TIP3    H247221   2.494   1.966   9.930  0.3774  0.9282  1.1033
 7676TIP3   OH247222   1.395   6.499  11.372 -0.3593 -0.1052 -0.2572
 7676TIP3    H147223   1.342   6.451  11.435 -0.2825  0.0018 -0.1109
 7676TIP3    H247224   1.458   6.435  11.339 -1.0631 -0.4428 -1.0008
 7677TIP3   OH247225   2.721   3.534  10.397  0.5526  0.1747 -0.5619
 7677TIP3    H147226   2.663   3.574  10.333 -2.7938  0.1992  2.2109
 7677TIP3    H247227   2.730   3.600  10.466 -0.1906 -1.5784  1.3276
 7678TIP3   OH247228   0.096   2.781  11.228 -0.7982  0.2351  0.3086
 7678TIP3    H147229   0.126   2.795  11.138  2.7489 -0.9806  1.1142
 7678TIP3    H247230   0.119   2.862  11.274 -0.0675 -0.1319  0.6180
 7679TIP3   OH247231   6.029   0.647  11.400 -0.2884  0.3549 -0.3688
 7679TIP3    H147232   6.049   0.687  11.485 -0.3506  1.4209 -0.8316
 7679TIP3    H247233   6.072   0.704  11.336 -0.0683 -0.5510 -1.0465
 7680TIP3   OH247234   0.064   5.989  10.225  0.2179  0.3008 -0.3227
 7680TIP3    H147235   0.093   5.906  10.186  1.0105 -0.8820  2.5033
 7680TIP3    H247236   0.135   6.051  10.205  0.0384  0.0897 -1.7039
 7681TIP3   OH247237   6.718   1.472   9.817 -0.2331 -0.6534 -0.7575
 7681TIP3    H147238   6.651   1.413   9.852  0.8638 -0.2723  2.2982
 7681TIP3    H247239   6.757   1.423   9.744 -1.4436 -2.3786 -0.3218
 7682TIP3   OH247240   1.799   1.911  10.700  0.1095 -0.5089 -0.2745
 7682TIP3    H147241   1.749   1.918  10.619  0.1092 -0.6262 -0.2853
 7682TIP3    H247242   1.870   1.974  10.690  0.1809 -0.6100 -0.4190
 7683TIP3   OH247243   5.642   4.403  11.357  0.3380  0.3305  0.0178
 7683TIP3    H147244   5.556   4.444  11.358  0.0715 -0.1699 -0.8884
 7683TIP3    H247245   5.628   4.316  11.394  0.0118 -0.5160 -1.9790
 7684TIP3   OH247246   4.124   6.680   9.840 -0.2333  0.4938 -0.1815
 7684TIP3    H147247   4.105   6.644   9.926  0.4144 -0.5666 -0.4605
 7684TIP3    H247248   4.041   6.717   9.809 -0.8592 -0.5555  0.2236
 7685TIP3   OH247249   0.066   3.393  11.038  0.1033  0.2352 -0.2870
 7685TIP3    H147250   0.026   3.319  11.084 -0.6877 -0.3485 -1.8293
 7685TIP3    H247251   0.156   3.395  11.070 -0.0290 -1.0171  0.2445
 7686TIP3   OH247252   5.053   3.019  12.074 -0.1166 -0.1765  0.2275
 7686TIP3    H147253   5.088   3.001  11.987  0.7349  0.6248  0.3941
 7686TIP3    H247254   5.128   3.010  12.133 -0.8789 -1.6824  1.0346
 7687TIP3   OH247255   2.750   1.417  11.362  0.6201  0.0795  0.2158
 7687TIP3    H147256   2.822   1.471  11.328  0.0850 -0.2960 -1.6134
 7687TIP3    H247257   2.758   1.334  11.315 -1.0118  0.0265 -0.0179
 7688TIP3   OH247258   1.824   0.319   9.680 -0.2913 -0.0329  0.0783
 7688TIP3    H147259   1.875   0.277   9.611  1.9836  0.2911  1.4926
 7688TIP3    H247260   1.870   0.300   9.761 -0.4921  3.0537  1.0788
 7689TIP3   OH247261   4.534   1.523  12.651  0.5272  0.3648 -0.1861
 7689TIP3    H147262   4.467   1.565  12.704  0.0942 -0.6140  0.0661
 7689TIP3    H247263   4.611   1.519  12.708  0.0959 -0.5826  0.3525
 7690TIP3   OH247264   6.264   3.474  11.994  0.2386  0.4538 -0.1004
 7690TIP3    H147265   6.291   3.488  12.085 -1.5883  0.3430  0.4936
 7690TIP3    H247266   6.287   3.383  11.976  0.5157  0.4467  0.2650
 7691TIP3   OH247267   0.126   1.344  10.905  0.1464 -0.6914 -0.4746
 7691TIP3    H147268   0.042   1.389  10.895  0.8735  0.6330 -0.9016
 7691TIP3    H247269   0.102   1.252  10.921 -1.3784 -0.2607 -0.0618
 7692TIP3   OH247270   6.490   1.923  12.005 -0.0109  0.5079  0.2153
 7692TIP3    H147271   6.434   1.930  12.081  0.5945  0.3764  0.6825
 7692TIP3    H247272   6.508   1.829  11.997  1.1861  0.6557  0.8612
 7693TIP3   OH247273   1.740   3.523  19.777  0.0702  0.0753 -0.4304
 7693TIP3    H147274   1.691   3.561  19.704  0.6665 -1.0306 -1.4466
 7693TIP3    H247275   1.826   3.563  19.771  0.0622  0.1216 -0.2204
 7694TIP3   OH247276   2.097   1.833  11.358  0.1436  0.7216 -0.0967
 7694TIP3    H147277   2.139   1.830  11.273 -0.2747 -3.3398 -0.3620
 7694TIP3    H247278   2.157   1.883  11.413  3.2121 -1.1169 -1.5078
 7695TIP3   OH247279   4.605   4.500  11.262  0.1748 -0.4636  0.2113
 7695TIP3    H147280   4.549   4.425  11.280 -0.0482 -0.7781 -1.6178
 7695TIP3    H247281   4.671   4.467  11.202  1.0082  0.4480  0.6041
 7696TIP3   OH247282   4.638   3.843  10.373  0.0696 -0.1770  0.3530
 7696TIP3    H147283   4.611   3.794  10.295 -1.0575  1.4440 -0.3329
 7696TIP3    H247284   4.702   3.906  10.341 -2.2897  2.2649  0.1325
 7697TIP3   OH247285   2.251   5.647  10.435 -0.5050  0.0303  0.8596
 7697TIP3    H147286   2.244   5.737  10.467  1.6715  1.3531 -1.9337
 7697TIP3    H247287   2.223   5.651  10.344  1.5255 -1.6180  0.0676
 7698TIP3   OH247288   0.609   5.306  12.644 -0.1350 -0.2372  0.0751
 7698TIP3    H147289   0.603   5.214  12.668  0.5242 -0.3854 -0.2899
 7698TIP3    H247290   0.525   5.326  12.603 -0.9634 -0.1937  1.7394
 7699TIP3   OH247291   4.208   2.135  11.881 -0.2441 -0.1992  0.1297
 7699TIP3    H147292   4.179   2.225  11.894  1.1284  0.1370  1.1846
 7699TIP3    H247293   4.219   2.127  11.787  0.5243  1.0695  0.0846
 7700TIP3   OH247294   5.822   4.882  10.927 -0.2964 -0.3767 -0.2531
 7700TIP3    H147295   5.773   4.959  10.953  0.2563 -0.0613 -0.1383
 7700TIP3    H247296   5.760   4.809  10.938 -0.8502  0.0590 -0.4732
 7701TIP3   OH247297   4.853   2.757  11.610 -0.3673 -0.2980  0.1659
 7701TIP3    H147298   4.867   2.775  11.517  1.7632  1.4998  0.7390
 7701TIP3    H247299   4.910   2.682  11.629  1.4031  1.0497  0.5054
 7702TIP3   OH247300   3.204   6.021   9.549 -0.2129  0.3035 -0.1485
 7702TIP3    H147301   3.188   6.055   9.462  0.3107 -1.0697 -0.8135
 7702TIP3    H247302   3.299   6.012   9.555 -0.2673  0.0485  0.4205
 7703TIP3   OH247303   6.680   0.027   9.575  0.2101 -0.0513 -0.3732
 7703TIP3    H147304   6.599   0.032   9.524  0.4917 -0.8313 -0.9219
 7703TIP3    H247305   6.694  -0.067   9.589  0.3152  0.1327  0.8770
 7704TIP3   OH247306   6.358   0.607  10.088  0.5946 -0.0088  0.4151
 7704TIP3    H147307   6.447   0.641  10.097  0.0234  2.1691 -1.2620
 7704TIP3    H247308   6.350   0.582   9.996 -0.7678  0.6582  0.3268
 7705TIP3   OH247309   1.047   3.656   9.366 -0.5771 -0.0767  0.2669
 7705TIP3    H147310   1.008   3.683   9.283 -0.2130  0.3494  0.2249
 7705TIP3    H247311   1.038   3.734   9.422 -1.2904 -0.5325  0.7991
 7706TIP3   OH247312   4.883   5.504  10.157  0.1816 -0.0853  0.0035
 7706TIP3    H147313   4.792   5.483  10.177  0.0584 -0.4028 -0.8770
 7706TIP3    H247314   4.934   5.448  10.216 -0.1791 -0.7460 -0.3017
 7707TIP3   OH247315   0.280   2.415   9.567  0.0671  0.3559 -0.0881
 7707TIP3    H147316   0.360   2.431   9.518  0.0462 -0.1189 -0.2808
 7707TIP3    H247317   0.275   2.488   9.629  0.5747  0.4595 -0.1644
 7708TIP3   OH247318   0.751   2.578  11.655  0.1159  0.0865  0.1991
 7708TIP3    H147319   0.712   2.572  11.567 -0.9953 -2.6838  0.7565
 7708TIP3    H247320   0.837   2.539  11.646  1.0538  2.0892 -0.0946
 7709TIP3   OH247321   1.255   1.793  10.326  0.4460  0.1263  0.0735
 7709TIP3    H147322   1.237   1.708  10.286 -0.3244  0.2492  0.1463
 7709TIP3    H247323   1.177   1.812  10.377  0.4604  1.0620 -0.2477
 7710TIP3   OH247324   2.386   1.983  10.456 -0.6110  0.1677  0.7439
 7710TIP3    H147325   2.423   1.942  10.535 -0.0917  1.8208  1.4006
 7710TIP3    H247326   2.456   1.975  10.391 -0.9888 -1.0813  0.4620
 7711TIP3   OH247327   6.124   1.897   9.552 -0.3479  0.2185 -0.5592
 7711TIP3    H147328   6.052   1.834   9.552  0.5323 -0.9056  1.8355
 7711TIP3    H247329   6.132   1.925   9.643  1.4849  1.2079 -0.9717
 7712TIP3   OH247330   6.199   4.316  10.885 -0.4997  0.0992  0.1501
 7712TIP3    H147331   6.282   4.278  10.914 -1.1087 -0.0954  1.7384
 7712TIP3    H247332   6.208   4.409  10.906  0.0415  0.4416 -1.4740
 7713TIP3   OH247333   0.628   6.091  11.142 -0.6163  0.1107  0.4442
 7713TIP3    H147334   0.575   6.055  11.071  0.3258 -0.3564 -0.0318
 7713TIP3    H247335   0.596   6.181  11.153  0.1042  0.6334 -1.4468
 7714TIP3   OH247336   2.939   3.061  12.129  0.1455 -0.0961 -0.4436
 7714TIP3    H147337   2.960   3.091  12.217  0.0589  0.9499 -0.7703
 7714TIP3    H247338   2.873   3.122  12.097  0.5921 -0.1035 -1.4461
 7715TIP3   OH247339   6.320   1.034  11.678 -0.0051 -0.4835  0.3912
 7715TIP3    H147340   6.395   0.974  11.677  0.4512  0.0552  1.2159
 7715TIP3    H247341   6.255   0.991  11.733  0.0186 -0.5728  0.3498
 7716TIP3   OH247342   4.700   5.383  11.863 -0.0013 -0.0845  0.7629
 7716TIP3    H147343   4.642   5.440  11.914  1.2296  2.9043 -0.9227
 7716TIP3    H247344   4.787   5.400  11.900  0.2766 -1.7694  0.9285
 7717TIP3   OH247345   4.547   3.480   9.266 -0.1499 -0.2391  0.1401
 7717TIP3    H147346   4.511   3.460   9.352 -1.2555  1.2420  0.0517
 7717TIP3    H247347   4.515   3.410   9.209 -0.9413 -0.2257  0.5590
 7718TIP3   OH247348   5.397   5.668  11.364 -0.3703  0.1549 -0.1601
 7718TIP3    H147349   5.382   5.731  11.293 -1.0396 -0.5683 -0.6851
 7718TIP3    H247350   5.311   5.627  11.378  0.0831 -0.7548  0.0461
 7719TIP3   OH247351   5.302   5.716   9.810  0.0317 -0.0115 -0.1531
 7719TIP3    H147352   5.236   5.730   9.878  0.1145  0.0309 -0.0807
 7719TIP3    H247353   5.256   5.668   9.741 -0.2466  0.5819 -0.3878
 7720TIP3   OH247354   2.296   1.092   9.631 -0.5347  0.0046 -0.2223
 7720TIP3    H147355   2.313   1.092   9.537 -0.0617  0.2299 -0.1440
 7720TIP3    H247356   2.297   1.184   9.656  1.4132 -0.1136  0.3363
 7721TIP3   OH247357   3.613   6.480  10.442  0.5574 -0.2193  0.2684
 7721TIP3    H147358   3.565   6.516  10.516  1.5747  1.3657  0.2148
 7721TIP3    H247359   3.597   6.386  10.446 -0.7908  0.0329  1.4766
 7722TIP3   OH247360   2.889   1.333  11.758  0.1577  0.2134  0.1222
 7722TIP3    H147361   2.901   1.249  11.801  1.9977  1.0619  1.3851
 7722TIP3    H247362   2.857   1.391  11.826 -1.7748  0.4307 -0.9023
 7723TIP3   OH247363   6.636   2.338   9.459 -0.0716 -0.5018  0.1515
 7723TIP3    H147364   6.590   2.292   9.529  1.0140  0.6682  1.6976
 7723TIP3    H247365   6.728   2.323   9.477  0.2614  0.9607 -0.2294
 7724TIP3   OH247366   2.188   4.471  11.699  0.0940  0.0422  0.0050
 7724TIP3    H147367   2.207   4.485  11.607  0.9835  0.1875  0.1994
 7724TIP3    H247368   2.204   4.377  11.713 -1.3885 -0.2774 -0.2814
 7725TIP3   OH247369   4.800   6.422  12.835  0.5086  0.1185  0.9068
 7725TIP3    H147370   4.840   6.337  12.853 -0.2583 -0.1951  1.1563
 7725TIP3    H247371   4.872   6.484  12.843  1.4526 -0.6701 -0.9096
 7726TIP3   OH247372   0.700   2.796   9.497 -0.3686 -0.6395  0.0207
 7726TIP3    H147373   0.607   2.786   9.478 -0.7842 -0.9506  2.0147
 7726TIP3    H247374   0.720   2.724   9.556  0.6265  0.5781  1.2381
 7727TIP3   OH247375   4.739   6.577  10.928 -0.1226  0.0409 -0.3837
 7727TIP3    H147376   4.734   6.619  11.014 -1.5802  0.4558 -0.6375
 7727TIP3    H247377   4.765   6.487  10.947  0.8666  0.4630  0.3590
 7728TIP3   OH247378   1.681   2.620  12.196  0.2590  0.5492 -0.0757
 7728TIP3    H147379   1.651   2.666  12.117  1.7563  2.0361  0.1672
 7728TIP3    H247380   1.634   2.663  12.268 -0.2324 -0.0191 -0.0545
 7729TIP3   OH247381   4.857   1.307  11.950 -0.0461  0.1999 -0.7768
 7729TIP3    H147382   4.770   1.318  11.911 -0.5907 -0.6639  0.1458
 7729TIP3    H247383   4.850   1.346  12.037  0.8662  1.2194 -1.1327
 7730TIP3   OH247384   6.132   2.646   9.676 -0.1658 -0.0467 -0.0695
 7730TIP3    H147385   6.160   2.669   9.588  1.4549 -1.7696 -0.0707
 7730TIP3    H247386   6.206   2.599   9.714 -1.9160 -2.0858  1.0976
 7731TIP3   OH247387   1.244   0.503  12.268  0.2011 -0.2348  0.2459
 7731TIP3    H147388   1.224   0.538  12.355 -1.5036 -1.7908  0.5562
 7731TIP3    H247389   1.215   0.571  12.208 -0.8629 -0.1108  0.8707
 7732TIP3   OH247390   0.912   6.705  10.436 -0.5067  0.0901  0.2498
 7732TIP3    H147391   0.862   6.763  10.379  0.6906  1.7665  0.8208
 7732TIP3    H247392   0.947   6.638  10.378 -0.3881  1.0062 -0.7672
 7733TIP3   OH247393   2.447   5.322  10.964  0.0685  0.1388  0.1970
 7733TIP3    H147394   2.503   5.291  11.035 -0.7596 -0.2898  0.6827
 7733TIP3    H247395   2.373   5.364  11.008  0.4880  1.6041 -0.4427
 7734TIP3   OH247396   2.941   6.430  11.600  0.4704 -0.0936 -0.0428
 7734TIP3    H147397   2.935   6.371  11.524 -0.7952 -0.6068  0.4333
 7734TIP3    H247398   2.883   6.503  11.577 -0.6188 -0.6739  0.7779
 7735TIP3   OH247399   2.869   4.959  10.590  0.3150  0.5636  0.3674
 7735TIP3    H147400   2.945   4.961  10.647  1.4238  1.4639 -1.0786
 7735TIP3    H247401   2.810   5.025  10.626  1.9526  2.7474 -0.7221
 7736TIP3   OH247402   4.153   4.678  12.041  0.4483 -0.2410 -0.3023
 7736TIP3    H147403   4.059   4.694  12.034  0.3178 -0.6004  0.5171
 7736TIP3    H247404   4.160   4.596  12.091  1.1552 -1.3287 -2.0848
 7737TIP3   OH247405   4.595   1.691   9.491 -0.0579 -0.0017 -0.0513
 7737TIP3    H147406   4.509   1.649   9.483  0.6904 -1.5215 -0.5750
 7737TIP3    H247407   4.633   1.654   9.570  0.9451 -0.9882 -0.9619
 7738TIP3   OH247408   0.551   1.705  11.405  0.0350  0.4405 -0.3442
 7738TIP3    H147409   0.603   1.662  11.337  0.2764 -0.3177  0.3088
 7738TIP3    H247410   0.478   1.744  11.357  0.6954  0.7248 -1.1559
 7739TIP3   OH247411   3.260   2.824  11.991 -0.7941  0.4019 -0.4463
 7739TIP3    H147412   3.282   2.736  12.019 -0.1154  1.0300  1.1131
 7739TIP3    H247413   3.171   2.817  11.956 -1.3227 -0.6231  1.0536
 7740TIP3   OH247414   1.008   4.729  11.664  0.7165 -0.3719  0.2427
 7740TIP3    H147415   0.940   4.699  11.604  1.3325  0.7436 -1.0627
 7740TIP3    H247416   0.966   4.727  11.750 -0.6458 -0.6674 -0.4037
 7741TIP3   OH247417   4.389   0.393   9.916  0.2096  0.6612  0.1631
 7741TIP3    H147418   4.385   0.417   9.824 -0.5999 -0.6417 -0.1614
 7741TIP3    H247419   4.474   0.427   9.946  1.2827 -0.3950 -1.5021
 7742TIP3   OH247420   1.232   1.555  11.318  0.1392 -0.1052 -0.1458
 7742TIP3    H147421   1.149   1.558  11.271  0.4299 -0.8621 -0.7361
 7742TIP3    H247422   1.248   1.646  11.345 -0.7035  0.1027 -0.3185
 7743TIP3   OH247423   0.323   3.397   9.391  0.2194  0.3627 -0.3244
 7743TIP3    H147424   0.337   3.489   9.371  0.9897  0.1161 -0.9388
 7743TIP3    H247425   0.408   3.356   9.378  0.0766 -0.3085  0.7098
 7744TIP3   OH247426   1.492   1.685   9.432 -0.3823 -0.0434  0.2717
 7744TIP3    H147427   1.444   1.763   9.403 -0.0245 -0.0259 -0.2729
 7744TIP3    H247428   1.463   1.673   9.523 -2.0903 -0.5423 -0.2982
 7745TIP3   OH247429   5.246   0.708   9.362 -0.2680 -0.2788  0.0462
 7745TIP3    H147430   5.272   0.687   9.452  1.3745  0.7163 -0.1402
 7745TIP3    H247431   5.227   0.624   9.321 -1.2768 -0.7279  1.3785
 7746TIP3   OH247432   5.921   1.856  10.696  0.8161 -0.0701  0.1719
 7746TIP3    H147433   5.869   1.893  10.768  0.0041  0.2892 -0.5877
 7746TIP3    H247434   5.912   1.919  10.625  1.5899 -0.4383 -0.2616
 7747TIP3   OH247435   0.101   0.919  11.510 -0.1647 -0.6094 -0.4572
 7747TIP3    H147436   0.075   1.011  11.503 -1.6554 -0.9302  0.3916
 7747TIP3    H247437   0.192   0.917  11.479 -0.4156  0.9743 -1.4274
 7748TIP3   OH247438   6.099   4.093   9.662 -0.0485 -0.3657  0.1118
 7748TIP3    H147439   6.146   4.010   9.664  1.3925  0.4256  2.1886
 7748TIP3    H247440   6.154   4.154   9.712 -1.8643  1.4047  0.1109
 7749TIP3   OH247441   0.243   6.252  11.046 -0.0744  0.7899 -0.2899
 7749TIP3    H147442   0.267   6.343  11.033  1.5031  0.0295 -3.7730
 7749TIP3    H247443   0.175   6.235  10.981  0.7619 -0.8625 -0.8023
 7750TIP3   OH247444   6.097   4.634   9.323 -0.3440 -0.1329 -0.3493
 7750TIP3    H147445   6.107   4.727   9.341 -0.8351 -0.4261  1.5848
 7750TIP3    H247446   6.181   4.609   9.284  0.7492  0.6187  1.4134
 7751TIP3   OH247447   1.681   6.159  11.517 -0.0399 -0.1773  0.3653
 7751TIP3    H147448   1.767   6.117  11.512 -0.6482 -1.4348 -0.0020
 7751TIP3    H247449   1.701   6.252  11.518  1.3481 -0.4440  0.7467
 7752TIP3   OH247450   2.988   5.861   9.684  0.3310  0.0585 -0.4986
 7752TIP3    H147451   3.040   5.846   9.763 -2.5496  0.2089  1.5706
 7752TIP3    H247452   3.001   5.953   9.663  0.7787  0.1265  0.0641
 7753TIP3   OH247453   1.421   6.505   9.147  0.0784  0.4435  0.3387
 7753TIP3    H147454   1.358   6.571   9.174 -0.6870  0.1778 -0.6935
 7753TIP3    H247455   1.371   6.423   9.149  0.8471 -0.0174  1.0429
 7754TIP3   OH247456   3.759   5.174  11.892  0.0614 -0.1888  0.1176
 7754TIP3    H147457   3.684   5.191  11.836  0.4755  1.0278 -0.0999
 7754TIP3    H247458   3.723   5.161  11.979 -0.3495  1.2051  0.1671
 7755TIP3   OH247459   5.277   6.555  11.611 -0.5640  0.1566 -0.4103
 7755TIP3    H147460   5.210   6.621  11.628 -1.5889 -0.5909 -1.3668
 7755TIP3    H247461   5.241   6.475  11.648 -0.0902 -0.2080 -0.7382
 7756TIP3   OH247462   4.231   5.942  11.632 -0.5559  0.2444  0.3441
 7756TIP3    H147463   4.149   5.892  11.636 -2.1744  2.6501 -0.5067
 7756TIP3    H247464   4.246   5.971  11.722 -0.5020 -0.4075  0.5455
 7757TIP3   OH247465   1.757   4.430  10.461 -0.1759 -0.0207 -0.0086
 7757TIP3    H147466   1.677   4.442  10.409 -0.6141  1.0573  0.8925
 7757TIP3    H247467   1.824   4.479  10.413 -0.3381  0.1029 -0.1113
 7758TIP3   OH247468   3.751   4.522  10.104  0.5925 -0.3631  0.7210
 7758TIP3    H147469   3.737   4.438  10.149 -2.0885  0.4784  1.6556
 7758TIP3    H247470   3.829   4.508  10.051  0.7764 -3.1514  1.5712
 7759TIP3   OH247471   4.217   3.234   9.511 -0.6747  0.2344  0.2974
 7759TIP3    H147472   4.292   3.219   9.568 -0.6012  0.8704  0.3690
 7759TIP3    H247473   4.158   3.160   9.529  0.0755 -0.4459 -0.0048
 7760TIP3   OH247474   6.586   0.915  10.438 -0.7699  0.1530  0.2815
 7760TIP3    H147475   6.585   0.901  10.343  1.0735  0.4982  0.1794
 7760TIP3    H247476   6.642   0.846  10.472  0.2456  1.2356  0.8771
 7761TIP3   OH247477   4.008   3.621  10.873  0.0160  0.0802 -0.2619
 7761TIP3    H147478   4.039   3.557  10.936  0.9996  0.9130  0.1279
 7761TIP3    H247479   3.913   3.621  10.884  0.0614 -0.7656  0.2457
 7762TIP3   OH247480   2.097   5.942   9.818 -0.6682 -0.3472 -0.2184
 7762TIP3    H147481   2.177   5.924   9.769  0.9016 -0.9872  2.4005
 7762TIP3    H247482   2.070   5.857   9.852 -1.0681  0.2132  0.9221
 7763TIP3   OH247483   5.755   2.500  12.082 -0.6444  0.3915  0.0556
 7763TIP3    H147484   5.678   2.550  12.056 -0.6135  0.9724  1.0433
 7763TIP3    H247485   5.720   2.415  12.109 -0.9806  0.7615  0.8016
 7764TIP3   OH247486   0.656   1.936  12.999 -0.7812  0.3292 -0.2357
 7764TIP3    H147487   0.603   2.012  13.022 -1.2958  0.2117 -0.9785
 7764TIP3    H247488   0.609   1.896  12.926  0.2036  0.0779 -0.7488
 7765TIP3   OH247489   4.508   4.269   9.862  0.2437  0.3079 -0.5228
 7765TIP3    H147490   4.593   4.227   9.877  0.4767  1.1814  0.7686
 7765TIP3    H247491   4.470   4.220   9.789  2.2957  0.5889 -1.8661
 7766TIP3   OH247492   2.719   5.621  11.098  0.3031  0.5789 -0.1705
 7766TIP3    H147493   2.702   5.530  11.121 -3.8634  0.8333 -1.3839
 7766TIP3    H247494   2.762   5.617  11.013 -2.1643 -0.4100 -1.4811
 7767TIP3   OH247495   5.856   2.738   9.701  0.4050  0.1767 -0.2460
 7767TIP3    H147496   5.948   2.715   9.714 -0.0432 -0.4434  2.3692
 7767TIP3    H247497   5.817   2.658   9.664  1.1623  0.9983 -3.0406
 7768TIP3   OH247498   3.253   2.246   9.989 -0.3119  0.1726 -0.4278
 7768TIP3    H147499   3.235   2.332   9.952 -0.9258  0.1325 -0.2441
 7768TIP3    H247500   3.298   2.199   9.920  0.1423  0.6838 -0.4848
 7769TIP3   OH247501   4.303   6.032  11.917  0.1805 -0.0900  0.0427
 7769TIP3    H147502   4.226   6.084  11.939 -1.0727 -2.1404  0.7699
 7769TIP3    H247503   4.352   6.027  11.999  0.0771 -0.3934  0.0866
 7770TIP3   OH247504   4.648   5.215  11.064 -0.3054  0.3386 -0.0845
 7770TIP3    H147505   4.562   5.199  11.103 -1.0208  1.7539 -0.9909
 7770TIP3    H247506   4.649   5.161  10.985 -0.6863  0.9011 -0.4807
 7771TIP3   OH247507   3.568   1.736  11.343 -0.1150  0.0445 -0.1187
 7771TIP3    H147508   3.612   1.686  11.275 -2.8153  0.5553 -2.4630
 7771TIP3    H247509   3.601   1.825  11.334 -0.0775 -0.0019 -0.4395
 7772TIP3   OH247510   4.465   4.586   9.228 -0.4599 -0.2830 -0.0923
 7772TIP3    H147511   4.480   4.676   9.257  1.2177  0.0382 -1.7866
 7772TIP3    H247512   4.370   4.575   9.235 -0.7608  1.7732 -0.2778
 7773TIP3   OH247513   5.229   4.287  11.038 -0.2496 -0.1407 -0.2027
 7773TIP3    H147514   5.203   4.275  11.129  0.7087 -0.8980 -0.0181
 7773TIP3    H247515   5.321   4.263  11.036 -0.6601 -1.7597 -1.7090
 7774TIP3   OH247516   2.864   4.813  11.255 -0.0982  0.0156  0.1901
 7774TIP3    H147517   2.889   4.782  11.342  0.4387  0.8876  0.3573
 7774TIP3    H247518   2.877   4.737  11.198  1.5566  0.0269  0.5184
 7775TIP3   OH247519   4.250   0.540  10.408  0.3862 -0.1425 -0.2426
 7775TIP3    H147520   4.182   0.481  10.443  0.8120 -0.3717  0.2086
 7775TIP3    H247521   4.256   0.516  10.315  0.5691 -0.8304 -0.0622
 7776TIP3   OH247522   6.100   4.174  12.080 -0.3956  0.5507  0.0651
 7776TIP3    H147523   6.163   4.238  12.045 -0.6924  0.7082 -0.1912
 7776TIP3    H247524   6.039   4.226  12.131 -0.9051  0.5384 -0.5204
 7777TIP3   OH247525   0.886   2.850  10.981 -0.4267 -0.5409  0.4063
 7777TIP3    H147526   0.873   2.836  10.887 -1.3529 -3.4256  0.8555
 7777TIP3    H247527   0.981   2.856  10.991 -0.2969 -0.5135 -0.6887
 7778TIP3   OH247528   2.583   1.688  11.987 -0.2308 -0.0520 -0.6425
 7778TIP3    H147529   2.634   1.747  11.931  1.7749 -0.2458  0.8669
 7778TIP3    H247530   2.620   1.700  12.075 -2.2490 -0.8767  0.3825
 7779TIP3   OH247531   3.579   0.256  10.958  0.7014 -0.0129  0.0434
 7779TIP3    H147532   3.621   0.306  10.888 -0.1712  0.7507  0.0365
 7779TIP3    H247533   3.620   0.288  11.038 -0.9528  1.9844  0.1948
 7780TIP3   OH247534   5.318   3.961  10.829  0.1192 -0.4444  0.6334
 7780TIP3    H147535   5.261   3.905  10.881  0.2109  0.0079  1.2368
 7780TIP3    H247536   5.402   3.958  10.874  0.5898 -1.1124 -0.2547
 7781TIP3   OH247537   4.019   1.459   9.250 -0.7573 -0.2305 -0.1669
 7781TIP3    H147538   4.011   1.554   9.263 -1.1090 -0.0461 -1.5206
 7781TIP3    H247539   3.943   1.436   9.197 -0.5999 -1.2551  0.0381
 7782TIP3   OH247540   5.057   6.293  12.251  0.0706  0.2548 -0.1475
 7782TIP3    H147541   4.980   6.247  12.285  0.0790 -0.1681 -0.6941
 7782TIP3    H247542   5.049   6.382  12.284 -0.0701 -0.0757  0.7358
 7783TIP3   OH247543   2.434   2.726   9.622  0.3682  0.0425  0.1562
 7783TIP3    H147544   2.423   2.791   9.692  0.1109 -0.5067  0.6403
 7783TIP3    H247545   2.373   2.754   9.554  1.5286  1.2966 -0.3981
 7784TIP3   OH247546   5.006   4.996   9.392  0.2349 -0.9557  0.3843
 7784TIP3    H147547   5.047   5.019   9.308  1.0818 -1.4195  0.6621
 7784TIP3    H247548   4.945   5.068   9.409  0.2406 -0.7327 -0.5052
 7785TIP3   OH247549   6.118   1.313  11.133  0.1490 -0.2220  0.4206
 7785TIP3    H147550   6.092   1.383  11.193 -1.2583 -1.3487  1.2142
 7785TIP3    H247551   6.208   1.293  11.157  0.0137  0.1933  1.3174
 7786TIP3   OH247552   4.560   2.257   9.176  0.4599 -0.1146 -0.1165
 7786TIP3    H147553   4.594   2.173   9.209 -1.5631 -1.1351 -0.4353
 7786TIP3    H247554   4.577   2.319   9.246  1.5175 -0.9178  0.3659
 7787TIP3   OH247555   1.362   6.197  11.416 -0.2628  0.2640  0.1039
 7787TIP3    H147556   1.319   6.257  11.476 -0.1374  0.2255  0.2312
 7787TIP3    H247557   1.293   6.135  11.390  0.0889 -0.8224  1.5999
 7788TIP3   OH247558   3.810   2.800  11.596  0.9709  0.1015 -0.6089
 7788TIP3    H147559   3.902   2.783  11.617  1.0147  0.4958 -0.4611
 7788TIP3    H247560   3.762   2.771  11.673  0.8388 -1.3387 -1.2004
 7789TIP3   OH247561   6.569   0.915  11.687  0.1280 -0.3666  0.1057
 7789TIP3    H147562   6.596   0.840  11.739  1.5196  0.3834  0.5099
 7789TIP3    H247563   6.646   0.937  11.635 -0.8646 -0.3604 -1.4000
 7790TIP3   OH247564   4.132   6.154  11.117 -0.1714 -0.2721  0.3505
 7790TIP3    H147565   4.120   6.131  11.209  0.9369 -0.7513  0.3938
 7790TIP3    H247566   4.160   6.246  11.119 -1.2565  0.0698  0.4042
 7791TIP3   OH247567   4.251   4.004  11.259  0.0214 -0.6660  0.2830
 7791TIP3    H147568   4.249   4.007  11.163 -2.0327 -0.7020  0.2734
 7791TIP3    H247569   4.164   4.036  11.285  0.8957  0.3147  2.1741
 7792TIP3   OH247570   4.401   5.440   9.728  0.2022 -0.2049  0.1939
 7792TIP3    H147571   4.310   5.411   9.737  0.1509  0.2785  1.4805
 7792TIP3    H247572   4.419   5.435   9.634 -1.1693 -0.2335 -0.0844
 7793TIP3   OH247573   3.636   5.239  11.299  0.1270 -0.2780 -0.2918
 7793TIP3    H147574   3.617   5.320  11.251 -0.9593  0.2083  0.8774
 7793TIP3    H247575   3.572   5.176  11.266  0.6882 -0.5447 -0.8902
 7794TIP3   OH247576   0.270   5.316   9.543 -0.8034 -0.4401 -0.0014
 7794TIP3    H147577   0.202   5.267   9.497 -1.2760 -0.2426  0.4725
 7794TIP3    H247578   0.247   5.408   9.530 -1.7015 -0.3751  1.6844
 7795TIP3   OH247579   0.234   1.734  12.257 -0.0041 -0.1362  0.0315
 7795TIP3    H147580   0.139   1.744  12.255  0.0349  0.1753 -0.3865
 7795TIP3    H247581   0.249   1.644  12.226 -0.1730 -0.2632  0.3167
 7796TIP3   OH247582   3.077   5.955  11.752  0.8042  0.0415 -0.4363
 7796TIP3    H147583   3.017   6.000  11.692 -0.6935 -0.6363  0.4882
 7796TIP3    H247584   3.019   5.907  11.812  2.3134 -3.1015 -1.3275
 7797TIP3   OH247585   3.888   5.418   9.601 -0.1839  0.0557  0.3484
 7797TIP3    H147586   3.846   5.500   9.573 -0.8805 -0.8213 -1.2876
 7797TIP3    H247587   3.820   5.351   9.589  0.6146 -0.8934  0.9487
 7798TIP3   OH247588   4.348   0.617   9.390  0.2968 -0.3283 -0.3140
 7798TIP3    H147589   4.260   0.652   9.403  0.4887  0.8122 -1.7700
 7798TIP3    H247590   4.371   0.643   9.301  0.9405 -3.2550 -1.0857
 7799TIP3   OH247591   1.241   0.520  11.004 -0.1815 -0.2520 -0.2146
 7799TIP3    H147592   1.245   0.429  10.973  2.6579  0.1936 -1.4611
 7799TIP3    H247593   1.271   0.572  10.929 -0.2800  1.5916  0.9653
 7800TIP3   OH247594   4.279   2.513   9.715 -0.2021  0.1424  0.0180
 7800TIP3    H147595   4.278   2.536   9.808  1.5316 -0.3139  0.1983
 7800TIP3    H247596   4.326   2.585   9.673  1.0753 -0.7509 -0.1289
 7801TIP3   OH247597   1.973   3.651   9.499  0.1779  0.3930 -0.0756
 7801TIP3    H147598   2.053   3.678   9.543  0.6073  1.7036 -1.5656
 7801TIP3    H247599   1.936   3.583   9.555  1.7837  0.4970  1.1662
 7802TIP3   OH247600   1.328   6.224  10.737 -0.5197 -0.1848 -0.0689
 7802TIP3    H147601   1.400   6.227  10.674 -0.7735  0.9234 -0.3238
 7802TIP3    H247602   1.279   6.305  10.722 -1.0388 -0.2797  1.0164
 7803TIP3   OH247603   0.764   2.977  10.015  0.2727  0.4804  0.1576
 7803TIP3    H147604   0.827   2.906  10.007 -1.1125 -0.7695 -0.0640
 7803TIP3    H247605   0.734   2.994   9.926  0.0015  0.7909  0.3031
 7804TIP3   OH247606   3.824   2.646  10.655  0.0004 -0.1526 -0.0694
 7804TIP3    H147607   3.812   2.552  10.664  0.8286 -0.4541 -1.8237
 7804TIP3    H247608   3.749   2.684  10.701 -0.4483 -1.6494  0.5030
 7805TIP3   OH247609   5.318   5.863  10.359  0.3097  0.1010 -0.0695
 7805TIP3    H147610   5.283   5.869  10.448 -0.9341 -0.8166 -0.4621
 7805TIP3    H247611   5.318   5.953  10.327 -1.5155  0.1930  0.0592
 7806TIP3   OH247612   3.572   6.684  10.250  0.1851  0.6208 -0.8882
 7806TIP3    H147613   3.583   6.617  10.318 -0.8256  0.5560 -0.7814
 7806TIP3    H247614   3.582   6.636  10.168 -0.1199  0.4207 -0.8079
 7807TIP3   OH247615   5.443   3.294  10.378  0.0110 -0.0501  0.4323
 7807TIP3    H147616   5.497   3.262  10.306 -1.1800 -1.0999 -0.0374
 7807TIP3    H247617   5.411   3.214  10.421 -0.5756  0.5504  1.1376
 7808TIP3   OH247618   6.032   2.521  12.147 -0.0498  0.3302  0.4817
 7808TIP3    H147619   6.063   2.606  12.116 -0.7140  0.1142 -0.8796
 7808TIP3    H247620   5.939   2.521  12.126 -0.2813 -0.3124  1.4712
 7809TIP3   OH247621   1.135   4.507  11.887 -0.1994 -0.4802  0.2416
 7809TIP3    H147622   1.111   4.587  11.933 -0.2278 -0.0784 -0.4690
 7809TIP3    H247623   1.078   4.440  11.924  0.3462 -0.3408  1.3874
 7810TIP3   OH247624   1.010   4.699   9.164 -0.6179  0.3721 -0.3043
 7810TIP3    H147625   1.100   4.695   9.199 -1.0590 -3.6728  0.8900
 7810TIP3    H247626   0.969   4.769   9.214  1.6187  1.7650 -0.2690
 7811TIP3   OH247627   2.618   3.013  10.884  0.5205 -0.0144  0.3492
 7811TIP3    H147628   2.650   3.101  10.863  1.0926 -0.2858  0.0551
 7811TIP3    H247629   2.697   2.964  10.904  0.3327 -0.7924 -0.7183
 7812TIP3   OH247630   5.289   4.954  10.723  0.5397 -0.6555  0.4754
 7812TIP3    H147631   5.332   4.909  10.650  1.9127  0.9699  0.2307
 7812TIP3    H247632   5.197   4.930  10.714  0.9261 -1.8179 -0.8026
 7813TIP3   OH247633   0.046   4.078   9.286  0.6482 -0.2536 -0.0099
 7813TIP3    H147634   0.082   4.102   9.200 -0.2448 -0.2710 -0.3923
 7813TIP3    H247635   0.124   4.068   9.341  1.2295 -0.0863 -0.7696
 7814TIP3   OH247636   3.142   6.043  10.446 -0.0583  0.7053  0.0568
 7814TIP3    H147637   3.144   5.981  10.519 -2.2145 -0.4424 -0.7865
 7814TIP3    H247638   3.148   5.988  10.368  2.3200  1.9226 -0.7304
 7815TIP3   OH247639   3.080   5.475  10.962  0.2544 -0.0034  0.4721
 7815TIP3    H147640   3.025   5.541  10.920 -0.5372  0.8508  2.7462
 7815TIP3    H247641   3.022   5.400  10.974  1.1591 -1.2430 -2.1350
 7816TIP3   OH247642   5.031   0.623  12.037 -0.0621  0.1509  0.2435
 7816TIP3    H147643   4.998   0.680  12.107 -1.8023 -0.4234 -0.0563
 7816TIP3    H247644   5.079   0.554  12.083  0.1700  0.6561  0.7621
 7817TIP3   OH247645   2.741   6.317  11.008 -0.3486  0.3492  0.1491
 7817TIP3    H147646   2.823   6.290  10.965  0.1174  1.9487 -0.0383
 7817TIP3    H247647   2.762   6.318  11.101 -0.3994 -0.0359  0.1647
 7818TIP3   OH247648   6.334   5.516  12.066 -0.6406  0.1879 -0.1610
 7818TIP3    H147649   6.406   5.530  12.005  2.1317 -1.5414  2.4781
 7818TIP3    H247650   6.273   5.460  12.018  0.4168  0.4973 -1.9768
 7819TIP3   OH247651   3.463   6.115  10.799  0.2810  0.2324  0.2846
 7819TIP3    H147652   3.462   6.019  10.803  0.3806  0.2673  1.7736
 7819TIP3    H247653   3.507   6.142  10.880  0.6042  1.5360 -0.2912
 7820TIP3   OH247654   2.545   4.639  11.028  0.0376  0.3959  0.0068
 7820TIP3    H147655   2.498   4.628  10.945 -0.2613 -0.2949  0.2604
 7820TIP3    H247656   2.556   4.734  11.037  1.0443  0.4415 -1.3527
 7821TIP3   OH247657   3.021   0.101  10.606 -0.2064  0.5982 -0.3402
 7821TIP3    H147658   3.088   0.078  10.542  1.2274  1.2644  0.8618
 7821TIP3    H247659   2.977   0.019  10.627 -0.1020  0.2337 -1.5057
 7822TIP3   OH247660   1.753   6.581  12.255  0.8453 -0.2858  0.0869
 7822TIP3    H147661   1.749   6.605  12.162  2.7199 -0.4093 -0.0648
 7822TIP3    H247662   1.795   6.655  12.298 -1.4061  0.4565  1.1613
 7823TIP3   OH247663   1.607   6.465  12.660 -0.4653 -0.0092 -0.0906
 7823TIP3    H147664   1.531   6.436  12.611  0.1360 -0.8920 -0.5128
 7823TIP3    H247665   1.623   6.395  12.724 -1.0178  0.9477  1.1570
 7824TIP3   OH247666   5.059   2.908   9.973 -0.2172  0.4743  0.6406
 7824TIP3    H147667   5.142   2.920   9.928  0.0119  0.0883  0.9487
 7824TIP3    H247668   5.073   2.947  10.060 -0.7794  1.5574  0.2580
 7825TIP3   OH247669   3.178   4.537  10.355 -0.7096 -0.0079 -0.3704
 7825TIP3    H147670   3.115   4.609  10.356  1.9101  2.4652 -0.0171
 7825TIP3    H247671   3.250   4.569  10.301  0.4709 -2.5141 -0.4244
 7826TIP3   OH247672   3.237   3.646  12.108  0.4123 -0.6290  0.1119
 7826TIP3    H147673   3.282   3.682  12.032 -0.9863  1.7211  0.3105
 7826TIP3    H247674   3.154   3.613  12.073  0.0838 -0.2192  0.4976
 7827TIP3   OH247675   6.717   2.883  11.838  0.2122  0.0981  0.1838
 7827TIP3    H147676   6.813   2.881  11.834  0.1619 -1.2278 -1.3819
 7827TIP3    H247677   6.692   2.790  11.847 -0.9678  0.2559 -1.1916
 7828TIP3   OH247678   1.716   3.220   9.679  0.0496  0.4484 -0.2036
 7828TIP3    H147679   1.683   3.159   9.612  0.6489 -0.2588  0.1205
 7828TIP3    H247680   1.650   3.217   9.748 -0.5168  1.0952 -0.6982
 7829TIP3   OH247681   0.224   6.446   9.865 -0.3535 -0.0811  0.4538
 7829TIP3    H147682   0.286   6.378   9.838 -0.0575  0.2073  0.3978
 7829TIP3    H247683   0.166   6.403   9.928 -0.2864 -0.4333  0.2757
 7830TIP3   OH247684   2.036   1.518  11.632  0.3509 -0.3267 -0.3828
 7830TIP3    H147685   2.021   1.572  11.710  2.2565 -1.1646  0.6390
 7830TIP3    H247686   1.966   1.543  11.572 -0.7683  0.8710  1.3128
 7831TIP3   OH247687   3.466   2.223  11.542 -0.2425  0.5585 -0.0830
 7831TIP3    H147688   3.436   2.313  11.529  0.4784  1.2371  2.5462
 7831TIP3    H247689   3.455   2.207  11.635 -0.0086 -1.9802 -0.4315
 7832TIP3   OH247690   6.542   2.676  11.498 -0.1623  0.2781  0.1836
 7832TIP3    H147691   6.553   2.581  11.504  1.3653  0.3805 -0.5547
 7832TIP3    H247692   6.462   2.694  11.546  1.3066 -0.9985  3.3749
 7833TIP3   OH247693   1.497   4.060  10.986 -0.3558  0.2156 -0.0745
 7833TIP3    H147694   1.436   3.997  10.950 -1.0404  0.7461  0.1399
 7833TIP3    H247695   1.520   4.026  11.073  1.0672 -0.9106 -0.8506
 7834TIP3   OH247696   3.198   1.068  11.901 -0.5321 -0.3721  0.1417
 7834TIP3    H147697   3.220   1.161  11.907 -2.5831  0.0744  1.9335
 7834TIP3    H247698   3.206   1.047  11.808 -1.5763  2.0331 -0.5584
 7835TIP3   OH247699   1.847   4.666  10.020 -0.2589  0.2132  0.9256
 7835TIP3    H147700   1.910   4.697   9.954 -0.6747 -0.2656  0.2903
 7835TIP3    H247701   1.899   4.609  10.078  0.3496  1.4845  1.6723
 7836TIP3   OH247702   2.455   2.006  10.995  0.6960 -0.3544 -0.5702
 7836TIP3    H147703   2.550   2.006  11.000  0.6436 -1.3041  1.6652
 7836TIP3    H247704   2.426   1.994  11.086 -1.5332 -1.7228 -1.3689
 7837TIP3   OH247705   1.846   5.536   9.428 -0.2070  0.0080 -0.3775
 7837TIP3    H147706   1.905   5.489   9.369  0.1290 -2.9830  2.0898
 7837TIP3    H247707   1.893   5.617   9.449  1.8877 -1.1074 -0.4902
 7838TIP3   OH247708   3.113   0.735  10.821  1.1016  0.2699 -0.0203
 7838TIP3    H147709   3.095   0.651  10.778  1.5264 -0.1323  0.5646
 7838TIP3    H247710   3.027   0.777  10.827  1.2115  1.0109 -2.5654
 7839TIP3   OH247711   2.658   2.190   9.473  0.2948  0.5011  0.1854
 7839TIP3    H147712   2.601   2.144   9.412  0.5828 -0.9344  0.9549
 7839TIP3    H247713   2.602   2.208   9.549  0.3323  0.9419  0.1118
 7840TIP3   OH247714   6.535   1.040  10.043  0.0320  0.0988  0.2961
 7840TIP3    H147715   6.550   0.998   9.959  1.9612 -0.1859  0.7522
 7840TIP3    H247716   6.481   1.117  10.022  0.4838  0.0283 -1.1866
 7841TIP3   OH247717   4.000   2.491  11.675 -0.8284 -0.2935 -0.3986
 7841TIP3    H147718   3.932   2.490  11.742 -2.5267  0.4217 -2.0227
 7841TIP3    H247719   4.065   2.554  11.707 -1.7698  0.2844  0.4192
 7842TIP3   OH247720   1.365   5.876  12.251 -0.8059 -0.2958 -0.5153
 7842TIP3    H147721   1.286   5.911  12.212 -1.0323  0.6388  0.7277
 7842TIP3    H247722   1.388   5.938  12.320  0.7393 -0.8017 -0.5250
 7843TIP3   OH247723   3.444   3.983  10.132  0.6837 -0.5542 -0.0670
 7843TIP3    H147724   3.436   3.911  10.070 -0.8566 -1.7326  1.3848
 7843TIP3    H247725   3.533   4.015  10.120  0.5595 -0.9366 -2.5941
 7844TIP3   OH247726   3.741   2.083   9.042  0.1743 -0.1204  0.2926
 7844TIP3    H147727   3.835   2.075   9.059  0.3050  1.8583  0.7086
 7844TIP3    H247728   3.732   2.166   8.996 -1.5167  0.3621  1.4211
 7845TIP3   OH247729   1.895   3.711  10.910 -0.5784  0.5017  0.3527
 7845TIP3    H147730   1.806   3.744  10.919 -0.6837  0.5124 -0.5978
 7845TIP3    H247731   1.937   3.770  10.847  0.5168  1.2791  1.7355
 7846TIP3   OH247732   5.279   0.969   9.577 -0.4137  0.4025 -0.5356
 7846TIP3    H147733   5.293   0.971   9.672  0.5159  2.6110 -0.6602
 7846TIP3    H247734   5.309   0.882   9.550  1.3674  0.4978  0.9259
 7847TIP3   OH247735   4.717   0.262  10.363 -0.5665  0.0522  0.2057
 7847TIP3    H147736   4.660   0.220  10.428 -0.4454  1.0334  0.9811
 7847TIP3    H247737   4.747   0.343  10.406 -0.6015  0.8106 -1.1305
 7848TIP3   OH247738   6.168   0.195   9.350 -0.5511  0.4465  0.4589
 7848TIP3    H147739   6.102   0.147   9.401  0.4797  0.3659  1.7702
 7848TIP3    H247740   6.157   0.163   9.261  0.0061 -2.1853  1.2340
 7849TIP3   OH247741   6.072   5.752  11.072  0.5124  0.0238 -0.5125
 7849TIP3    H147742   6.025   5.708  11.144 -0.1801  1.1778 -0.2259
 7849TIP3    H247743   6.164   5.731  11.087  0.5376  1.3302  1.5455
 7850TIP3   OH247744   0.422   2.925  11.072  0.0769 -0.1666  0.2199
 7850TIP3    H147745   0.455   2.898  11.158 -0.1721 -1.4223 -0.0690
 7850TIP3    H247746   0.393   3.016  11.085  1.1381  0.0573  1.1534
 7851TIP3   OH247747   4.244   6.602  10.491 -0.0394 -0.1170 -0.1214
 7851TIP3    H147748   4.188   6.601  10.413  1.2399  0.9166 -1.1098
 7851TIP3    H247749   4.283   6.689  10.491  1.0905 -0.5939  0.8801
 7852TIP3   OH247750   5.657   1.216   9.786  0.5819 -0.3144  0.5478
 7852TIP3    H147751   5.702   1.140   9.751  0.9990 -0.3542  1.1576
 7852TIP3    H247752   5.624   1.263   9.709  0.2751 -1.1313  0.1753
 7853TIP3   OH247753   3.708   1.073  12.791 -0.2431 -0.5101  0.1121
 7853TIP3    H147754   3.640   1.065  12.725  0.2857 -3.8947 -0.1762
 7853TIP3    H247755   3.663   1.109  12.868 -1.0766  2.4661 -1.6261
 7854TIP3   OH247756   3.038   4.964  11.096 -0.1348  0.0421  0.1965
 7854TIP3    H147757   3.108   5.007  11.046  0.2519 -0.0461  0.6535
 7854TIP3    H247758   3.082   4.929  11.173 -0.5142 -0.8626  0.0113
 7855TIP3   OH247759   5.265   2.580  10.348 -0.3005 -0.3677  0.0887
 7855TIP3    H147760   5.344   2.628  10.321  1.4665 -2.7211  0.7337
 7855TIP3    H247761   5.225   2.551  10.266  0.2365 -0.2377 -0.2249
 7856TIP3   OH247762   4.529   2.503  11.629  0.2389  0.0933 -0.0675
 7856TIP3    H147763   4.604   2.444  11.636 -0.4412 -0.8382 -0.3731
 7856TIP3    H247764   4.463   2.464  11.686 -0.7468 -0.2753 -1.4194
 7857TIP3   OH247765   2.558   1.598  11.029 -0.1057  0.2629  0.1797
 7857TIP3    H147766   2.486   1.627  10.972  0.0067  0.8308  0.3187
 7857TIP3    H247767   2.637   1.616  10.979 -0.0172  0.5490  0.4177
 7858TIP3   OH247768   2.238   4.959   8.925 -0.1904 -0.3683 -0.0705
 7858TIP3    H147769   2.214   4.893   8.990 -2.8171  1.9867  1.5935
 7858TIP3    H247770   2.168   4.954   8.859 -0.8174  1.0587  0.4247
 7859TIP3   OH247771   1.673   4.635  12.777 -0.2277 -0.6548  0.3517
 7859TIP3    H147772   1.606   4.701  12.797 -0.1282 -0.6829  0.7829
 7859TIP3    H247773   1.694   4.650  12.684 -2.0031 -1.7130 -0.2655
 7860TIP3   OH247774   5.908   1.638   9.814 -0.3408  0.1868 -0.1831
 7860TIP3    H147775   5.925   1.564   9.872  0.8287  0.6249  0.0798
 7860TIP3    H247776   5.820   1.668   9.838 -0.2772 -0.2690  0.6639
 7861TIP3   OH247777   5.183   5.553  10.945  0.4508 -0.4330  0.4543
 7861TIP3    H147778   5.110   5.606  10.915  0.7262  0.1348  0.7723
 7861TIP3    H247779   5.150   5.506  11.021  1.3530  2.4843  2.8676
 7862TIP3   OH247780   4.832   0.072   9.489 -0.3598  0.2448 -0.3665
 7862TIP3    H147781   4.770   0.075   9.416 -1.4384 -1.8071  0.3799
 7862TIP3    H247782   4.782   0.098   9.565  0.1379  0.1827 -0.0123
 7863TIP3   OH247783   4.102   5.262  12.231  0.0723 -0.4433 -0.3706
 7863TIP3    H147784   4.063   5.348  12.221 -0.7352 -0.6747  0.6068
 7863TIP3    H247785   4.152   5.267  12.313  0.0816 -0.8777 -0.3431
 7864TIP3   OH247786   0.288   3.092  12.415  0.3507  0.3646  0.2896
 7864TIP3    H147787   0.338   3.038  12.477 -1.9259 -1.8363  0.3482
 7864TIP3    H247788   0.319   3.063  12.329 -1.0184 -1.3367  0.3109
 7865TIP3   OH247789   0.468   6.240  10.378  0.1624 -0.3219 -0.2179
 7865TIP3    H147790   0.425   6.170  10.428 -0.8646 -0.5332 -1.3411
 7865TIP3    H247791   0.431   6.321  10.414  0.5489 -0.3936  0.3562
 7866TIP3   OH247792   6.544   4.573  12.063 -0.0220 -0.8680  0.0893
 7866TIP3    H147793   6.533   4.483  12.094  0.0036 -1.1779 -0.7723
 7866TIP3    H247794   6.524   4.568  11.970 -2.5697  0.4881  0.4708
 7867TIP3   OH247795   0.849   0.709  10.086  0.2792 -0.2842 -0.1438
 7867TIP3    H147796   0.882   0.776  10.026  3.3454 -0.0508  1.6317
 7867TIP3    H247797   0.810   0.643  10.028 -0.7103  1.8381 -2.0767
 7868TIP3   OH247798   3.135   0.363  10.191 -0.1840  0.4008 -0.2478
 7868TIP3    H147799   3.118   0.352  10.284 -3.9302 -0.0293 -0.8075
 7868TIP3    H247800   3.128   0.275  10.155  1.6773  0.4997 -0.9363
 7869TIP3   OH247801   0.296   0.846  12.718 -0.0045  0.2037 -0.5638
 7869TIP3    H147802   0.308   0.914  12.784  0.5146  0.2530 -0.7047
 7869TIP3    H247803   0.385   0.829  12.685 -0.1548 -0.4037 -0.6603
 7870TIP3   OH247804   4.673   0.507   9.978 -0.1178  0.1596 -0.5920
 7870TIP3    H147805   4.719   0.574  10.029 -0.8882  0.1035  0.2031
 7870TIP3    H247806   4.703   0.424  10.014 -1.2972  0.1277  0.3840
 7871TIP3   OH247807   0.286   2.383  10.639 -0.1241  0.1654 -0.1890
 7871TIP3    H147808   0.219   2.449  10.622 -0.7792 -0.7243 -1.1809
 7871TIP3    H247809   0.252   2.331  10.712 -0.8032 -0.6305 -1.0488
 7872TIP3   OH247810   0.987   1.188   9.771 -0.4070  0.4514 -0.3070
 7872TIP3    H147811   0.996   1.187   9.676  0.7233 -1.7784 -0.2559
 7872TIP3    H247812   1.033   1.267   9.798 -1.7047  1.7241 -1.6395
 7873TIP3   OH247813   0.344   2.926  12.679  0.1491 -0.4544  0.0878
 7873TIP3    H147814   0.285   2.996  12.706 -0.0443 -0.4151 -0.4236
 7873TIP3    H247815   0.423   2.939  12.730  0.0565  0.0479  0.1041
 7874TIP3   OH247816   3.771   3.717   9.683 -0.5077 -0.5729 -0.2575
 7874TIP3    H147817   3.711   3.660   9.732  1.4387 -1.3941  1.3168
 7874TIP3    H247818   3.814   3.658   9.621 -1.1793 -0.0161 -1.2807
 7875TIP3   OH247819   5.720   3.304  10.770 -0.1889 -0.3851  0.5146
 7875TIP3    H147820   5.732   3.369  10.701  0.4700 -0.9959  0.0462
 7875TIP3    H247821   5.729   3.220  10.726 -0.0633 -0.7907  1.2978
 7876TIP3   OH247822   3.703   5.972  11.159 -0.0267 -0.2125  0.3267
 7876TIP3    H147823   3.621   5.923  11.161  0.2493 -0.6862  2.0558
 7876TIP3    H247824   3.748   5.942  11.080 -2.3510  1.5565 -1.8253
 7877TIP3   OH247825   3.337   4.563   9.137 -0.0083  0.1087 -0.8883
 7877TIP3    H147826   3.284   4.591   9.063 -0.9789 -0.2927 -0.3761
 7877TIP3    H247827   3.419   4.534   9.099 -0.7579 -0.7694 -1.8896
 7878TIP3   OH247828   2.825   4.402   9.567 -0.1397  0.4186  0.3611
 7878TIP3    H147829   2.854   4.362   9.649  0.3484  1.6289  0.8057
 7878TIP3    H247830   2.751   4.349   9.539  0.2884 -0.5889  1.0827
 7879TIP3   OH247831   2.054   1.657  11.867  0.2637  0.2282  0.1860
 7879TIP3    H147832   2.075   1.738  11.822 -0.6238  0.7695  0.7277
 7879TIP3    H247833   2.140   1.621  11.892  0.7427  0.1864 -1.4091
 7880TIP3   OH247834   2.012   0.597  11.758 -0.0774  0.1357  0.0342
 7880TIP3    H147835   2.081   0.642  11.709 -0.4056  0.8178  0.1966
 7880TIP3    H247836   2.017   0.634  11.846 -1.6809  1.3342 -0.3515
 7881TIP3   OH247837   5.634   3.781  11.556 -0.3015 -0.8404  0.0213
 7881TIP3    H147838   5.679   3.702  11.527  0.0640 -0.2609 -1.0657
 7881TIP3    H247839   5.664   3.795  11.646  0.2292 -1.5031 -0.0530
 7882TIP3   OH247840   6.718   3.657  10.105 -0.3282  0.4120 -0.4848
 7882TIP3    H147841   6.702   3.737  10.054  0.0344 -0.4654 -2.0128
 7882TIP3    H247842   6.806   3.630  10.080  0.3892  0.6354  1.5996
 7883TIP3   OH247843   1.918   5.052  11.364  0.2342 -0.7161  0.1829
 7883TIP3    H147844   1.944   5.049  11.456  0.9558  1.6795  0.1264
 7883TIP3    H247845   1.999   5.071  11.317 -0.2279 -1.3164 -0.8990
 7884TIP3   OH247846   6.415   2.462  10.279  0.0456  0.1005 -0.4378
 7884TIP3    H147847   6.388   2.433  10.366  1.8285  0.9460  0.4511
 7884TIP3    H247848   6.483   2.400  10.252 -0.2823  0.0187 -1.1122
 7885TIP3   OH247849   2.711   3.198  12.052 -0.0566  0.4398  0.0499
 7885TIP3    H147850   2.722   3.244  11.968 -0.7756 -0.9482 -0.8436
 7885TIP3    H247851   2.617   3.190  12.064  0.0365 -0.8693  0.1126
 7886TIP3   OH247852   1.669   5.137  10.872 -0.3176 -0.4322 -0.1484
 7886TIP3    H147853   1.733   5.094  10.816 -0.4591  0.3267 -0.9108
 7886TIP3    H247854   1.637   5.211  10.820  0.1269  0.7724  1.2311
 7887TIP3   OH247855   2.533   4.168  11.853  0.1138 -0.3724 -0.1815
 7887TIP3    H147856   2.453   4.180  11.801 -0.2137 -4.2157 -0.8462
 7887TIP3    H247857   2.506   4.190  11.942 -1.3402 -0.3740 -0.5864
 7888TIP3   OH247858   4.897   4.269   9.281  0.0071  0.3441 -0.2553
 7888TIP3    H147859   4.858   4.186   9.308  1.4945  0.1858  1.5683
 7888TIP3    H247860   4.828   4.313   9.231 -0.8186 -1.9466 -1.2442
 7889TIP3   OH247861   2.668   2.292  10.202  0.2485 -0.6282 -0.0595
 7889TIP3    H147862   2.613   2.263  10.129  0.5206  0.1628 -0.5948
 7889TIP3    H247863   2.606   2.331  10.264  0.2213  0.5961 -0.8260
 7890TIP3   OH247864   5.762   2.554  10.389  0.0020  0.0249  0.0550
 7890TIP3    H147865   5.708   2.623  10.428  0.9329  0.2274  1.0142
 7890TIP3    H247866   5.701   2.504  10.334 -1.0524  0.5405  0.7380
 7891TIP3   OH247867   4.713   3.262  10.442 -0.1806 -0.0109 -0.1679
 7891TIP3    H147868   4.801   3.274  10.408 -0.4802  0.1864 -0.9114
 7891TIP3    H247869   4.656   3.298  10.374 -0.9291 -1.8702 -0.6034
 7892TIP3   OH247870   1.770   5.050  12.134  0.3642  0.6678 -0.1316
 7892TIP3    H147871   1.724   5.121  12.178  0.8919  0.9747 -0.0615
 7892TIP3    H247872   1.808   4.998  12.206 -2.0203 -1.1223 -0.0429
 7893TIP3   OH247873   3.105   6.659   9.051  0.0085 -0.3746  0.0376
 7893TIP3    H147874   3.196   6.680   9.031  0.1021 -0.5496  0.2735
 7893TIP3    H247875   3.057   6.683   8.971  0.2333 -0.1139 -0.0223
 7894TIP3   OH247876   4.500   5.043  11.282 -0.2894  0.3702  0.5988
 7894TIP3    H147877   4.471   5.025  11.372  0.0540 -1.2803  0.4244
 7894TIP3    H247878   4.593   5.064  11.291 -0.1704 -0.1361  0.6167
 7895TIP3   OH247879   3.488   3.030  11.344 -0.0841 -0.0610 -0.5151
 7895TIP3    H147880   3.450   3.045  11.431  0.5231 -0.6151 -0.1538
 7895TIP3    H247881   3.524   3.115  11.319  1.4447 -0.3324  0.6143
 7896TIP3   OH247882   2.390   2.928   9.792 -0.1974 -0.1566 -0.1556
 7896TIP3    H147883   2.324   2.978   9.745 -1.1569  0.4373  1.7408
 7896TIP3    H247884   2.473   2.968   9.766 -0.5333 -0.7661 -2.3922
 7897TIP3   OH247885   6.402   5.242  11.469 -0.0798  0.0856  0.2213
 7897TIP3    H147886   6.450   5.253  11.387 -1.3699  2.9098 -0.2611
 7897TIP3    H247887   6.353   5.161  11.457  0.4773 -0.0431 -1.4034
 7898TIP3   OH247888   5.281   1.663   9.591  0.8707 -0.1708  0.6894
 7898TIP3    H147889   5.285   1.604   9.666  2.3557  0.1064  0.8598
 7898TIP3    H247890   5.373   1.678   9.567  0.5212  1.6145  0.3082
 7899TIP3   OH247891   1.722   2.010  12.796 -0.2590  0.4858 -0.5622
 7899TIP3    H147892   1.773   1.932  12.818  0.8820  1.3512 -0.0656
 7899TIP3    H247893   1.639   1.975  12.763  1.2081 -1.0003 -2.9892
 7900TIP3   OH247894   1.070   3.886   9.537 -0.1110 -0.2349 -0.1934
 7900TIP3    H147895   1.019   3.942   9.595 -0.1764 -0.4969  0.0045
 7900TIP3    H247896   1.125   3.947   9.487  1.9573 -0.1289  2.0266
 7901TIP3   OH247897   4.000   0.543  11.792  0.2719 -0.5437  0.1555
 7901TIP3    H147898   3.985   0.499  11.876  0.2280 -1.6872 -0.4261
 7901TIP3    H247899   4.043   0.477  11.738  1.8955  0.7271 -0.1829
 7902TIP3   OH247900   2.755   4.352  11.412  0.1369  0.2481  0.7030
 7902TIP3    H147901   2.777   4.445  11.397  1.0140 -0.2052 -1.2255
 7902TIP3    H247902   2.680   4.336  11.354  1.9078 -0.9267 -1.4538
 7903TIP3   OH247903   3.269   0.533  11.506  0.6165 -0.3489 -0.1982
 7903TIP3    H147904   3.220   0.468  11.456 -0.3755  1.0491 -1.1248
 7903TIP3    H247905   3.319   0.581  11.440  1.5831 -0.3490  0.5071
 7904TIP3   OH247906   2.180   2.134  10.040  0.1270 -0.5031 -0.5468
 7904TIP3    H147907   2.172   2.177   9.956  0.5526  0.5905 -0.0416
 7904TIP3    H247908   2.200   2.043  10.019  0.3993 -0.2030 -1.6184
 7905TIP3   OH247909   0.048   5.427  10.806 -0.1649 -0.0921  0.5309
 7905TIP3    H147910  -0.014   5.431  10.733 -1.3088 -1.5321  1.3794
 7905TIP3    H247911   0.109   5.357  10.782  0.3631  0.4194  0.3235
 7906TIP3   OH247912   3.142   4.144  12.446  0.2393 -0.4891 -0.2289
 7906TIP3    H147913   3.229   4.122  12.478  1.0316  1.3976 -0.9315
 7906TIP3    H247914   3.158   4.203  12.372 -1.6038 -1.4754 -1.4820
 7907TIP3   OH247915   3.605   1.492  18.299 -0.6645  0.1738  0.2532
 7907TIP3    H147916   3.521   1.509  18.255 -0.6138 -1.0993 -0.3617
 7907TIP3    H247917   3.644   1.579  18.310 -2.1734  0.8269  0.7992
 7908TIP3   OH247918   4.923   3.262  11.365  0.0410 -0.0961 -0.2878
 7908TIP3    H147919   4.978   3.222  11.432 -0.8964 -0.1787  0.4542
 7908TIP3    H247920   4.842   3.283  11.410 -0.0184  1.3495 -1.0107
 7909TIP3   OH247921   1.781   1.736  11.681 -0.0197  0.2499  0.2427
 7909TIP3    H147922   1.712   1.800  11.662 -0.3343  0.2123  1.2111
 7909TIP3    H247923   1.863   1.781  11.660 -0.3489 -0.0290 -1.8434
 7910TIP3   OH247924   6.265   3.881   9.701  0.3534 -0.4590  0.2166
 7910TIP3    H147925   6.282   3.788   9.715  0.8956 -0.6082 -1.2596
 7910TIP3    H247926   6.351   3.919   9.688  0.1051  0.1973  0.4586
 7911TIP3   OH247927   3.766   2.452  10.054  0.2382 -0.0796  0.3046
 7911TIP3    H147928   3.830   2.492   9.994  0.5390  0.1043  0.7428
 7911TIP3    H247929   3.751   2.365  10.017  1.2520 -0.3821  0.5473
 7912TIP3   OH247930   6.449   5.892  10.904  0.6610 -0.1193 -0.2043
 7912TIP3    H147931   6.380   5.885  10.838  0.7654  0.4487 -0.3779
 7912TIP3    H247932   6.417   5.838  10.977  0.6183 -0.8703 -0.7684
 7913TIP3   OH247933   3.729   3.581  11.376 -0.8381  0.4348 -0.3095
 7913TIP3    H147934   3.665   3.533  11.323  1.3371 -2.0401 -0.9325
 7913TIP3    H247935   3.720   3.543  11.463 -1.6138  1.6233  0.1610
 7914TIP3   OH247936   3.943   2.727  10.266 -0.2861 -0.1310  0.4542
 7914TIP3    H147937   3.944   2.781  10.345 -0.8311 -0.8595  0.9797
 7914TIP3    H247938   3.965   2.639  10.297  1.3286 -0.0962 -0.5006
 7915TIP3   OH247939   2.595   5.680  11.933  0.6050  0.3248  0.0787
 7915TIP3    H147940   2.648   5.601  11.947 -1.7524 -1.3218  0.4706
 7915TIP3    H247941   2.533   5.655  11.864  0.6264  2.3094 -0.7081
 7916TIP3   OH247942   5.132   5.886  11.490 -0.4723 -0.7892  0.8706
 7916TIP3    H147943   5.131   5.819  11.559 -2.8530 -0.3082  1.3960
 7916TIP3    H247944   5.087   5.961  11.529 -0.0113  0.2519 -0.5252
 7917TIP3   OH247945   1.812   5.292  11.170  0.0354 -0.3699 -0.0436
 7917TIP3    H147946   1.723   5.300  11.136  0.5682 -0.8152 -1.5770
 7917TIP3    H247947   1.869   5.314  11.097  1.2404 -1.9549  0.3517
 7918TIP3   OH247948   4.911   6.071  11.545  0.1018 -0.0804  0.2491
 7918TIP3    H147949   4.921   6.165  11.561 -0.1947 -0.1132  0.6335
 7918TIP3    H247950   4.831   6.064  11.492 -0.4738 -0.1914  1.1021
 7919TIP3   OH247951   3.219   4.544  10.977 -0.2265 -0.1983 -0.5813
 7919TIP3    H147952   3.201   4.489  11.054  0.5027 -0.2094 -0.4090
 7919TIP3    H247953   3.144   4.530  10.919 -1.1755  0.3930  0.4471
 7920TIP3   OH247954   4.753   1.514  11.679 -0.7227 -0.2260 -0.1923
 7920TIP3    H147955   4.736   1.451  11.748 -0.4672 -2.5148 -2.0889
 7920TIP3    H247956   4.666   1.537  11.646 -0.7705 -1.3876 -0.9503
 7921TIP3   OH247957   1.791   5.890  12.156  0.0791 -0.7061 -0.2603
 7921TIP3    H147958   1.707   5.902  12.112  0.1953 -0.8039 -0.5170
 7921TIP3    H247959   1.842   5.837  12.094  0.2940 -0.7297 -0.0637
 7922TIP3   OH247960   6.493   4.572  11.815  0.2099 -0.3482  0.4657
 7922TIP3    H147961   6.561   4.541  11.755  0.0520 -0.7042  0.4690
 7922TIP3    H247962   6.462   4.653  11.775  0.4597 -0.3159  0.3322
 7923TIP3   OH247963   3.352   2.793  10.997  0.2929 -0.0613  0.5142
 7923TIP3    H147964   3.411   2.865  10.974  0.2361 -0.2260 -0.1657
 7923TIP3    H247965   3.373   2.773  11.088 -0.5347  1.6330  1.1139
 7924TIP3   OH247966   5.739   1.242  11.733  0.1937 -0.1468 -0.1196
 7924TIP3    H147967   5.657   1.286  11.759  1.1340  1.8789 -0.3990
 7924TIP3    H247968   5.712   1.154  11.708 -1.8736  0.3929  0.0258
 7925TIP3   OH247969   2.119   6.013  11.055 -0.1274 -0.6016 -0.0258
 7925TIP3    H147970   2.032   6.000  11.017 -0.1776 -0.3439 -0.0020
 7925TIP3    H247971   2.171   5.941  11.022 -0.2313 -0.5037 -0.4038
 7926TIP3   OH247972   5.811   2.458   9.651 -0.3395 -0.3930 -0.3100
 7926TIP3    H147973   5.788   2.388   9.711 -0.9113 -0.5444 -0.6962
 7926TIP3    H247974   5.745   2.453   9.581 -1.0395  1.1923  0.1844
 7927TIP3   OH247975   1.347   0.990  10.645 -0.2294 -0.3116 -0.3001
 7927TIP3    H147976   1.377   1.051  10.578  0.2406 -0.7752 -0.5198
 7927TIP3    H247977   1.339   1.043  10.724 -1.4153  0.3774 -0.8609
 7928TIP3   OH247978   0.464   3.256  11.406 -0.5143 -0.5041  0.1272
 7928TIP3    H147979   0.470   3.286  11.315 -0.7880  0.4038  0.3887
 7928TIP3    H247980   0.371   3.238  11.420 -0.8940  1.6327  0.8684
 7929TIP3   OH247981   1.614   0.964   9.933  0.0219  0.2249  0.2363
 7929TIP3    H147982   1.683   0.914   9.889 -0.9689 -0.4106 -0.6329
 7929TIP3    H247983   1.602   0.919  10.017  0.0524 -0.1939  0.0173
 7930TIP3   OH247984   0.856   1.134  11.754  0.2653  0.1583 -0.4642
 7930TIP3    H147985   0.836   1.043  11.778  0.8453 -0.1350 -1.0490
 7930TIP3    H247986   0.774   1.169  11.722  0.2946 -0.5306 -1.3319
 7931TIP3   OH247987   2.232   3.028  11.774 -0.0174 -0.7711 -0.1782
 7931TIP3    H147988   2.268   3.114  11.796  1.9215 -0.8313 -2.6123
 7931TIP3    H247989   2.154   3.048  11.723  0.4491 -0.4019 -0.7722
 7932TIP3   OH247990   4.417   0.313  12.057  0.0252  0.1056  0.0450
 7932TIP3    H147991   4.335   0.361  12.048 -0.0649  0.0027  0.3037
 7932TIP3    H247992   4.393   0.221  12.044  0.3715  0.2160 -1.5036
 7933TIP3   OH247993   0.082   3.150  12.224 -0.0273 -0.4409 -0.1151
 7933TIP3    H147994   0.127   3.114  12.300 -1.5221  1.2715  1.6852
 7933TIP3    H247995   0.028   3.078  12.191 -0.5087 -0.8104  1.4164
 7934TIP3   OH247996   5.747   6.040   9.592  0.9043  0.1961  0.8109
 7934TIP3    H147997   5.785   6.089   9.520 -2.4422 -0.7710 -1.8547
 7934TIP3    H247998   5.659   6.076   9.602 -0.1579 -2.4100  1.6064
 7935TIP3   OH247999   0.837   3.703  10.997 -0.4709  0.1905  0.1548
 7935TIP3    H148000   0.880   3.789  10.991 -0.1028  0.0709  0.9230
 7935TIP3    H248001   0.837   3.683  11.091 -1.7411 -0.0592  0.1151
 7936TIP3   OH248002   4.465   3.260   9.656 -0.2945  0.2489  0.1181
 7936TIP3    H148003   4.511   3.332   9.699  0.2846 -0.4597  0.7062
 7936TIP3    H248004   4.511   3.247   9.574  1.5104 -1.3672  1.2956
 7937TIP3   OH248005   5.534   2.021  11.201 -0.3174 -0.0713  0.1573
 7937TIP3    H148006   5.511   1.956  11.267  1.8637 -2.3333 -1.1343
 7937TIP3    H248007   5.457   2.024  11.143 -1.2763  0.1282  1.3936
 7938TIP3   OH248008   0.060   3.708  11.235  0.4485 -0.5187  0.0648
 7938TIP3    H148009   0.072   3.785  11.180 -0.6745 -0.7601 -0.5618
 7938TIP3    H248010   0.131   3.649  11.210  0.4595 -0.2702 -0.5119
 7939TIP3   OH248011   1.091   2.768  11.650 -0.3434 -0.3765 -0.0048
 7939TIP3    H148012   1.126   2.706  11.586 -1.6308 -1.4219  0.2688
 7939TIP3    H248013   1.002   2.785  11.622 -0.7105 -0.3131  1.1311
 7940TIP3   OH248014   4.539   4.332   9.380  0.2056  0.2327 -0.0311
 7940TIP3    H148015   4.551   4.414   9.429 -1.2861 -0.2702  1.2965
 7940TIP3    H248016   4.573   4.350   9.293  2.5610  1.3432  1.0462
 7941TIP3   OH248017   6.668   0.467  10.682 -0.3155 -0.3492 -0.4111
 7941TIP3    H148018   6.653   0.517  10.762 -0.4899 -0.0812 -0.6116
 7941TIP3    H248019   6.697   0.381  10.713  0.8518  0.1523 -0.0874
 7942TIP3   OH248020   4.578   4.647  10.216 -0.1715  0.3910  1.0416
 7942TIP3    H148021   4.663   4.607  10.198  0.6301  1.1455  2.8571
 7942TIP3    H248022   4.516   4.598  10.162  1.2924 -0.7590  0.3351
 7943TIP3   OH248023   2.204   3.877  11.422  0.3452  0.3343  0.0736
 7943TIP3    H148024   2.158   3.922  11.351  1.9383  2.0346  0.0607
 7943TIP3    H248025   2.192   3.934  11.498 -0.4342 -0.9347  0.9295
 7944TIP3   OH248026   5.888   6.544  12.403  0.2791 -0.5526 -0.4995
 7944TIP3    H148027   5.802   6.586  12.403  0.9708  0.9186 -0.4511
 7944TIP3    H248028   5.871   6.455  12.372 -1.2710 -0.3352 -0.3575
 7945TIP3   OH248029   2.652   6.737  10.450  0.3451  0.3435 -0.1999
 7945TIP3    H148030   2.666   6.719  10.543 -0.8352 -1.9906 -0.3970
 7945TIP3    H248031   2.655   6.832  10.444  2.1230  0.5264  1.9131
 7946TIP3   OH248032   5.604   6.211  10.931  0.1809  0.0011 -0.1565
 7946TIP3    H148033   5.663   6.282  10.955  1.0249 -0.2891 -1.2593
 7946TIP3    H248034   5.627   6.140  10.991  2.1039 -0.6459 -1.5396
 7947TIP3   OH248035   0.307   1.175  11.917 -0.8223  0.4918  0.6816
 7947TIP3    H148036   0.304   1.217  12.003 -2.0656 -1.3913  1.6169
 7947TIP3    H248037   0.362   1.097  11.930  0.1900  0.9422 -0.6341
 7948TIP3   OH248038   5.882   3.988   9.290 -0.0401 -0.2052  0.1276
 7948TIP3    H148039   5.969   3.977   9.253 -0.0351  1.6253 -0.4568
 7948TIP3    H248040   5.832   3.913   9.256  1.2975 -1.3177  0.5389
 7949TIP3   OH248041   1.981   3.743  11.856  0.0285 -0.4997 -0.1054
 7949TIP3    H148042   1.999   3.819  11.911 -0.7675  0.5048 -1.1899
 7949TIP3    H248043   2.043   3.676  11.887  0.5240  0.4640  1.0803
 7950TIP3   OH248044   2.503   4.937  11.017 -0.0663  0.5908  0.4261
 7950TIP3    H148045   2.508   5.002  11.087 -1.1398  0.4633  0.6339
 7950TIP3    H248046   2.584   4.949  10.968 -0.0049  1.7265  0.7774
 7951TIP3   OH248047   5.032   1.638  11.417 -0.4382  0.3685  0.1180
 7951TIP3    H148048   5.112   1.667  11.373 -0.6111 -0.2038 -0.6038
 7951TIP3    H248049   5.021   1.699  11.489 -0.5680  1.8527 -1.1082
 7952TIP3   OH248050   6.672   4.308   9.512  0.1729 -0.0734 -0.1913
 7952TIP3    H148051   6.766   4.293   9.497  0.3308  1.0220 -0.4399
 7952TIP3    H248052   6.645   4.363   9.438 -0.5833 -0.0682  0.0813
 7953TIP3   OH248053   1.219   1.083  12.119 -0.0153  0.6409  0.1568
 7953TIP3    H148054   1.279   1.017  12.084 -0.0663  0.8577 -0.3564
 7953TIP3    H248055   1.186   1.128  12.041  0.5495  1.7269  0.5351
 7954TIP3   OH248056   3.512   0.895  11.910 -1.0176 -0.1536 -0.2075
 7954TIP3    H148057   3.561   0.965  11.954 -0.3035 -0.3740 -0.6321
 7954TIP3    H248058   3.507   0.826  11.976 -0.9168 -0.0618 -0.1017
 7955TIP3   OH248059   5.900   6.055  10.734  0.0625  0.6552 -0.1070
 7955TIP3    H148060   5.910   5.967  10.770 -3.3354  0.0949 -0.1465
 7955TIP3    H248061   5.986   6.095  10.744  1.1295 -1.8588  2.0836
 7956TIP3   OH248062   1.331   2.843  12.704 -0.3896 -0.0915 -0.4714
 7956TIP3    H148063   1.401   2.788  12.740 -1.6608 -1.1328  0.4872
 7956TIP3    H248064   1.359   2.861  12.614  0.9711 -0.6956 -0.1956
 7957TIP3   OH248065   0.577   2.829  11.275  0.2210  0.4411  0.3255
 7957TIP3    H148066   0.606   2.906  11.324 -1.2750  0.6530  0.9114
 7957TIP3    H248067   0.658   2.793  11.237  1.2755  0.8337  2.1103
 7958TIP3   OH248068   2.948   0.993   9.472 -0.2728  0.6635  0.1840
 7958TIP3    H148069   2.901   0.930   9.418 -0.8080 -0.3648  1.7760
 7958TIP3    H248070   2.890   1.069   9.478 -0.0335  0.9639 -0.9581
 7959TIP3   OH248071   5.486   6.141   9.650 -0.5525  0.1192  0.2352
 7959TIP3    H148072   5.437   6.211   9.693 -0.7397  0.4956 -0.5589
 7959TIP3    H248073   5.454   6.142   9.559 -0.2120 -0.6814  0.0988
 7960TIP3   OH248074   2.357   6.364  11.435  0.1922  0.5670 -0.6208
 7960TIP3    H148075   2.305   6.343  11.512  0.7362  0.8972 -0.1547
 7960TIP3    H248076   2.319   6.311  11.365  0.0492 -0.1638  0.0023
 7961TIP3   OH248077   0.118   5.237  10.188 -0.1636 -0.1547 -0.2394
 7961TIP3    H148078   0.095   5.149  10.159  0.6770 -0.0494 -1.2733
 7961TIP3    H248079   0.034   5.280  10.203 -0.6483 -0.4425 -1.8936
 7962TIP3   OH248080   4.638   2.510  10.043  0.0312  0.3864  0.0666
 7962TIP3    H148081   4.675   2.430  10.081  3.2913  1.8757  0.3816
 7962TIP3    H248082   4.570   2.536  10.105  0.1524 -1.1617  0.9232
 7963TIP3   OH248083   4.607   6.617  10.013  0.3153  0.2391  0.6341
 7963TIP3    H148084   4.626   6.624   9.920  1.2914 -0.5285  0.7637
 7963TIP3    H248085   4.576   6.704  10.038 -0.5278  0.2894 -0.5218
 7964TIP3   OH248086   0.626   4.796  11.422 -0.6387 -0.0580 -0.3092
 7964TIP3    H148087   0.677   4.724  11.458  0.3463  1.6648  1.9694
 7964TIP3    H248088   0.535   4.773  11.442 -0.4761 -1.2317 -0.7936
 7965TIP3   OH248089   2.550   0.657   9.485 -0.6099  0.5715 -0.4345
 7965TIP3    H148090   2.554   0.666   9.580  1.9721  0.8504 -0.4721
 7965TIP3    H248091   2.509   0.572   9.470  1.3542 -0.7429  1.0847
 7966TIP3   OH248092   3.509   5.379  10.272 -0.2978  0.9320  0.2424
 7966TIP3    H148093   3.601   5.392  10.249  0.2763 -0.9984  1.2525
 7966TIP3    H248094   3.510   5.306  10.334 -2.3067  2.2690  1.9894
 7967TIP3   OH248095   4.803   1.058  12.048 -0.1025 -0.3851  0.5237
 7967TIP3    H148096   4.834   1.033  11.961 -1.0645  0.6875 -0.1535
 7967TIP3    H248097   4.818   1.153  12.053  0.9288 -0.5812  1.9615
 7968TIP3   OH248098   5.256   2.671  11.798 -0.0397 -0.4159  0.1654
 7968TIP3    H148099   5.340   2.666  11.753 -0.6682  3.1278 -1.8205
 7968TIP3    H248100   5.192   2.644  11.731 -0.6510 -0.3793  0.7253
 7969TIP3   OH248101   1.941   4.220  12.799  0.0919 -0.1162 -0.1827
 7969TIP3    H148102   1.891   4.138  12.798  0.8907 -0.6345 -1.6793
 7969TIP3    H248103   1.878   4.286  12.829 -1.0263 -1.0231 -0.4418
 7970TIP3   OH248104   1.936   5.665   9.813  0.3629 -0.4783  0.2852
 7970TIP3    H148105   1.869   5.731   9.832  0.8017 -0.4589  1.9293
 7970TIP3    H248106   1.902   5.584   9.851  1.3841 -0.3953  1.4616
 7971TIP3   OH248107   1.567   2.454  10.412 -0.3415 -0.4775  0.0014
 7971TIP3    H148108   1.547   2.391  10.481 -1.3245  0.7868  0.9254
 7971TIP3    H248109   1.638   2.507  10.447 -1.4719  0.7790  0.4960
 7972TIP3   OH248110   5.550   2.650  11.706  0.4252 -0.3597 -0.0632
 7972TIP3    H148111   5.639   2.686  11.700  0.2009  0.0360 -1.2353
 7972TIP3    H248112   5.506   2.684  11.628 -1.0819  0.3284  1.0456
 7973TIP3   OH248113   0.838   2.297   9.432  0.0085  0.2257 -0.1146
 7973TIP3    H148114   0.751   2.294   9.392  0.3832 -0.8640 -0.8956
 7973TIP3    H248115   0.883   2.368   9.387 -0.1263  0.0991 -0.4508
 7974TIP3   OH248116   4.347   1.611  11.846 -0.0345 -0.3732 -0.7506
 7974TIP3    H148117   4.348   1.605  11.941  1.2149 -0.2751 -0.7475
 7974TIP3    H248118   4.404   1.685  11.825 -0.9754  0.1618 -1.5502
 7975TIP3   OH248119   1.764   0.791  11.896 -0.1237  0.0595  0.2140
 7975TIP3    H148120   1.828   0.811  11.965 -0.7251 -0.0649  0.8138
 7975TIP3    H248121   1.787   0.852  11.826  1.9883 -1.3960 -0.4482
 7976TIP3   OH248122   2.554   3.807  10.779 -0.0626  0.3589  0.8283
 7976TIP3    H148123   2.646   3.794  10.757 -0.0027 -0.3664  1.4583
 7976TIP3    H248124   2.525   3.879  10.723 -0.5707 -2.6820 -3.2763
 7977TIP3   OH248125   0.136   3.287  10.649 -0.1536  0.2529 -0.4269
 7977TIP3    H148126   0.049   3.248  10.651 -0.3772  0.7296 -0.6828
 7977TIP3    H248127   0.148   3.315  10.558  0.4128 -0.1253 -0.4813
 7978TIP3   OH248128   3.682   0.230  11.817  0.4221  0.0254 -0.3251
 7978TIP3    H148129   3.613   0.259  11.878 -1.6433 -0.2429 -2.3720
 7978TIP3    H248130   3.637   0.169  11.758  2.7139 -0.9670 -1.1468
 7979TIP3   OH248131   5.737   3.039  11.140  0.1755  0.5520 -0.3143
 7979TIP3    H148132   5.763   2.947  11.140 -0.2943  0.4154  0.4716
 7979TIP3    H248133   5.819   3.086  11.159  0.5676  0.3517 -1.4645
 7980TIP3   OH248134   2.684   2.285  10.776  0.2163 -0.4400  0.4226
 7980TIP3    H148135   2.681   2.250  10.865 -1.4312 -0.4040  0.4055
 7980TIP3    H248136   2.617   2.353  10.774  1.4697  0.8221 -0.3494
 7981TIP3   OH248137   3.839   3.977  11.699 -0.7241 -0.5162 -0.1162
 7981TIP3    H148138   3.800   4.037  11.636 -2.1453  0.1331  1.3251
 7981TIP3    H248139   3.930   3.968  11.669 -0.4398  2.3234 -0.4227
 7982TIP3   OH248140   6.051   3.831  11.228 -0.0697  0.0785  0.1194
 7982TIP3    H148141   5.996   3.891  11.279 -0.0625  1.0183 -0.9318
 7982TIP3    H248142   6.083   3.884  11.154 -0.9920 -1.4945 -1.5063
 7983TIP3   OH248143   5.565   3.696  10.212 -0.6943 -0.0731  0.6480
 7983TIP3    H148144   5.559   3.792  10.212 -0.7201 -0.0697  1.4859
 7983TIP3    H248145   5.502   3.668  10.278 -0.0102 -0.6188  1.0828
 7984TIP3   OH248146   1.574   0.981  11.554 -0.3146 -0.1743 -0.3533
 7984TIP3    H148147   1.647   0.990  11.616 -0.0351 -0.0242 -0.6987
 7984TIP3    H248148   1.603   1.029  11.476 -0.8784  0.0809 -0.4114
 7985TIP3   OH248149   4.075   3.010  11.828 -0.6028  0.1019 -0.5471
 7985TIP3    H148150   4.086   3.089  11.774  1.1675 -0.5093 -1.1516
 7985TIP3    H248151   4.086   3.041  11.918 -1.8514  0.8446 -0.6268
 7986TIP3   OH248152   0.942   2.402  11.595 -0.1389 -0.0708  0.1816
 7986TIP3    H148153   0.880   2.334  11.567 -0.9423  0.8091 -0.2254
 7986TIP3    H248154   0.978   2.437  11.514 -0.8587  1.0045  0.2986
 7987TIP3   OH248155   3.716   1.053  12.446 -0.5633  0.3858  0.4756
 7987TIP3    H148156   3.683   0.986  12.507 -0.7954  0.4540  0.4265
 7987TIP3    H248157   3.810   1.057  12.464 -0.9676  2.1776  2.6159
 7988TIP3   OH248158   4.271   3.383   9.054  0.0217  0.2566 -0.1454
 7988TIP3    H148159   4.267   3.459   8.996  0.6398 -0.4865 -1.2002
 7988TIP3    H248160   4.192   3.333   9.033 -0.0704  0.2996  0.1010
 7989TIP3   OH248161   3.890   0.076   9.743  0.0645  0.3711 -0.1898
 7989TIP3    H148162   3.907   0.053   9.652  1.6707 -2.6840  0.7192
 7989TIP3    H248163   3.812   0.026   9.766 -0.8289  1.7757 -0.0666
 7990TIP3   OH248164   4.414   1.033  10.818 -0.5437 -0.1554  0.2178
 7990TIP3    H148165   4.422   0.938  10.828 -0.9363 -0.3525 -1.1764
 7990TIP3    H248166   4.483   1.057  10.756 -1.3956  0.2241 -0.6160
 7991TIP3   OH248167   3.219   3.184   9.586  0.0837  0.1528  0.1648
 7991TIP3    H148168   3.125   3.195   9.570 -0.3906  0.5440  2.7439
 7991TIP3    H248169   3.227   3.187   9.682  2.5844 -1.0702  0.0649
 7992TIP3   OH248170   4.623   2.313  12.648 -0.2984  0.0728  0.2485
 7992TIP3    H148171   4.681   2.237  12.652 -0.2792  0.1346  1.7950
 7992TIP3    H248172   4.668   2.376  12.592  0.9317 -0.0442  1.0734
 7993TIP3   OH248173   1.211   5.325  12.574 -0.0172 -0.1879 -0.4284
 7993TIP3    H148174   1.227   5.419  12.588 -0.0492 -0.3530  0.8969
 7993TIP3    H248175   1.252   5.306  12.490 -0.9177  1.2302 -1.2486
 7994TIP3   OH248176   4.173   6.656  11.956  0.3822  0.2641 -0.3856
 7994TIP3    H148177   4.176   6.576  11.903  1.5352  0.1922 -0.2305
 7994TIP3    H248178   4.118   6.634  12.030 -1.4272  0.4225 -1.6159
 7995TIP3   OH248179   2.501   2.955  10.038  0.0881  0.1141 -0.4334
 7995TIP3    H148180   2.472   2.925   9.952  0.3797 -1.2546 -0.0843
 7995TIP3    H248181   2.471   2.887  10.099  1.6591  0.0066  0.2762
 7996TIP3   OH248182   2.224   0.875  11.969  0.0950  0.1709 -0.0406
 7996TIP3    H148183   2.268   0.935  12.028  0.0502  0.2613 -0.0986
 7996TIP3    H248184   2.205   0.927  11.891  0.2324  0.0281 -0.1693
 7997TIP3   OH248185   1.602   5.282   9.384  0.7284 -0.6271 -0.0575
 7997TIP3    H148186   1.522   5.239   9.415  0.2904  0.0496 -0.2373
 7997TIP3    H248187   1.656   5.210   9.350  0.3991 -1.1451  0.4928
 7998TIP3   OH248188   3.961   4.030   9.707  0.4009  0.1529  0.1892
 7998TIP3    H148189   3.873   4.010   9.741  0.0072  1.0654 -0.2603
 7998TIP3    H248190   3.958   4.123   9.684 -0.2557 -0.7649 -4.6297
 7999TIP3   OH248191   3.261   2.464   9.834 -0.4823 -0.2833  0.2973
 7999TIP3    H148192   3.355   2.463   9.850 -0.4471  1.1889  0.3108
 7999TIP3    H248193   3.251   2.432   9.744 -0.0071 -0.7396  0.4043
 8000TIP3   OH248194   2.564   1.875  10.708  0.1926  0.0130 -0.0714
 8000TIP3    H148195   2.619   1.913  10.776 -0.4537  0.6648  0.1017
 8000TIP3    H248196   2.506   1.814  10.754 -0.4916  0.7236  0.0335
 8001TIP3   OH248197   3.810   3.805  10.049  0.0478  0.4124 -0.4623
 8001TIP3    H148198   3.749   3.864  10.003 -0.1420  0.3361 -0.3111
 8001TIP3    H248199   3.897   3.833  10.019 -0.1276 -0.8032 -2.2616
 8002TIP3   OH248200   4.902   4.089  11.377  0.1446 -0.1812 -0.0053
 8002TIP3    H148201   4.817   4.114  11.412  0.1928  0.0908 -0.0857
 8002TIP3    H248202   4.901   3.993  11.378 -1.0908 -0.2424 -2.2630
 8003TIP3   OH248203   5.759   6.023  11.506  0.4829  0.6305 -0.5824
 8003TIP3    H148204   5.836   5.968  11.518 -0.0002 -0.4462 -2.1109
 8003TIP3    H248205   5.686   5.961  11.503 -0.1600  1.4074 -1.5627
 8004TIP3   OH248206   4.516   3.493  11.314  0.4205 -0.2533 -0.1419
 8004TIP3    H148207   4.507   3.406  11.353 -0.5051  0.1202  0.5220
 8004TIP3    H248208   4.468   3.487  11.231  1.3130 -0.6811 -0.6457
 8005TIP3   OH248209   2.994   2.065  10.428 -0.4034  0.7326  0.3829
 8005TIP3    H148210   2.930   2.099  10.491 -0.7660  2.0788 -0.6668
 8005TIP3    H248211   3.060   2.133  10.421 -0.3239  0.5681 -0.6306
 8006TIP3   OH248212   0.782   5.837  10.871 -0.4534 -0.5120  0.4045
 8006TIP3    H148213   0.848   5.905  10.883 -0.4058 -0.4656 -0.1291
 8006TIP3    H248214   0.708   5.881  10.829 -0.1524 -0.9310 -0.5883
 8007TIP3   OH248215   4.415   2.101  11.062 -0.2265 -0.2318  0.0853
 8007TIP3    H148216   4.438   2.176  11.118  2.7978  0.1228 -1.4354
 8007TIP3    H248217   4.356   2.137  10.996 -1.5296 -0.0223  1.3194
 8008TIP3   OH248218   2.345   5.098   9.290 -0.2749 -0.6733 -0.6227
 8008TIP3    H148219   2.410   5.097   9.220 -1.0378 -0.0551 -1.3620
 8008TIP3    H248220   2.394   5.075   9.369  0.8930  0.0539 -1.1144
 8009TIP3   OH248221   0.948   6.709   9.299  0.0872 -1.0662  0.4083
 8009TIP3    H148222   0.893   6.638   9.333 -1.1437 -0.4203 -0.1915
 8009TIP3    H248223   0.961   6.767   9.374  0.6297 -1.6171  0.7538
 8010TIP3   OH248224   0.612   1.997  12.396  0.5635 -0.4386  0.1151
 8010TIP3    H148225   0.569   1.915  12.372  2.0354 -1.3220  0.3821
 8010TIP3    H248226   0.665   2.019  12.319  1.5718 -0.7162  0.7181
 8011TIP3   OH248227   0.455   1.787  10.003  0.2157 -0.4483  0.1342
 8011TIP3    H148228   0.407   1.704  10.002 -0.0181 -0.3524  1.6327
 8011TIP3    H248229   0.511   1.781  10.080  1.1992  0.2511 -0.5075
 8012TIP3   OH248230   6.120   1.349  11.928  0.0157  0.1042 -0.0788
 8012TIP3    H148231   6.130   1.286  12.000  0.0863  0.1483 -0.0495
 8012TIP3    H248232   6.208   1.384  11.916 -0.3082  1.3723  0.9751
 8013TIP3   OH248233   6.193   3.391  11.143 -0.0714  0.3397  0.4205
 8013TIP3    H148234   6.170   3.442  11.221  1.1654  1.2845  0.1882
 8013TIP3    H248235   6.119   3.403  11.084 -0.0916  1.3317  0.6310
 8014TIP3   OH248236   0.904   5.306  10.343  0.1984  0.0396  0.0010
 8014TIP3    H148237   0.816   5.331  10.373 -0.6177  1.3604 -3.0268
 8014TIP3    H248238   0.963   5.361  10.394 -0.8120 -0.0583  1.3245
 8015TIP3   OH248239   1.107   3.304  11.412  0.4213 -0.1866 -0.2259
 8015TIP3    H148240   1.022   3.335  11.443  1.2042  1.2125  0.6441
 8015TIP3    H248241   1.156   3.284  11.491 -0.2040 -4.4731 -0.6922
 8016TIP3   OH248242   2.335   1.298  12.053  0.1652  0.3937 -0.0865
 8016TIP3    H148243   2.285   1.349  11.989  1.0958 -0.8892 -1.8945
 8016TIP3    H248244   2.268   1.258  12.109 -0.7209  0.5708 -0.9933
 8017TIP3   OH248245   0.023   5.478  11.240 -0.3916  0.5323  0.0946
 8017TIP3    H148246   0.070   5.417  11.183  0.3983  1.1091  0.1183
 8017TIP3    H248247   0.010   5.556  11.187  2.6818  2.1249  1.3964
 8018TIP3   OH248248   3.202   5.038  10.282  0.5226 -0.1090 -0.2663
 8018TIP3    H148249   3.179   5.111  10.340 -0.3208 -0.2747 -0.3813
 8018TIP3    H248250   3.218   4.965  10.341  0.7804  0.0095 -0.1854
 8019TIP3   OH248251   5.215   3.808   9.967  0.0113 -0.6401  0.6346
 8019TIP3    H148252   5.267   3.730   9.987 -0.0901 -0.0785  3.4633
 8019TIP3    H248253   5.136   3.798  10.021 -2.1146 -0.6124 -2.2149
 8020TIP3   OH248254   6.255   4.444  12.021 -1.0081 -0.1263  0.1617
 8020TIP3    H148255   6.215   4.531  12.026 -0.3435  0.1852  0.1578
 8020TIP3    H248256   6.273   4.432  11.928  3.0981  1.7160  0.4965
 8021TIP3   OH248257   2.755   1.697  11.226 -0.2357  0.2270 -0.0139
 8021TIP3    H148258   2.849   1.682  11.234 -0.1359  0.9312  0.2356
 8021TIP3    H248259   2.723   1.626  11.169  0.6281  0.6133 -1.0135
 8022TIP3   OH248260   3.952   2.206  10.481  0.1385  0.4359  0.5458
 8022TIP3    H148261   3.942   2.237  10.391  1.1193 -3.1714 -0.9979
 8022TIP3    H248262   4.047   2.200  10.494  0.0119  1.1131  1.9213
 8023TIP3   OH248263   3.680   2.416  12.275  0.3259 -0.3578 -0.1623
 8023TIP3    H148264   3.759   2.417  12.221  0.6215  1.1365  0.2573
 8023TIP3    H248265   3.710   2.386  12.361  0.3546 -0.2053 -0.1197
 8024TIP3   OH248266   5.197   5.010   9.615 -0.1676  0.1294  0.2341
 8024TIP3    H148267   5.220   5.103   9.613  0.2750  0.0399  0.7859
 8024TIP3    H248268   5.150   4.995   9.533  1.7291  0.3263 -0.9474
 8025TIP3   OH248269   2.105   1.326   9.929 -0.1251  0.4721  0.2523
 8025TIP3    H148270   2.122   1.241   9.969 -0.3514  0.7223  0.8883
 8025TIP3    H248271   2.012   1.324   9.907 -0.5378  1.1864  1.8264
 8026TIP3   OH248272   0.544   2.956  11.883 -0.3715  0.2889  0.1623
 8026TIP3    H148273   0.590   2.873  11.887 -1.0365 -0.0289  1.8308
 8026TIP3    H248274   0.604   3.019  11.922 -1.0605 -0.0149  1.7820
 8027TIP3   OH248275   2.537   1.693  11.711  0.0482 -0.1271  0.1619
 8027TIP3    H148276   2.543   1.670  11.618 -0.3012 -1.9090  0.5503
 8027TIP3    H248277   2.605   1.760  11.723 -1.0705  1.4676 -1.7208
 8028TIP3   OH248278   5.615   2.277  11.374  0.1564  0.0785  0.0819
 8028TIP3    H148279   5.577   2.333  11.441 -1.4410  0.0503 -0.7644
 8028TIP3    H248280   5.662   2.337  11.316  0.2520  0.2716  0.3538
 8029TIP3   OH248281   0.139   4.821  12.177  0.2603 -0.1160  0.2439
 8029TIP3    H148282   0.153   4.806  12.083 -1.0665  0.2137 -0.0299
 8029TIP3    H248283   0.050   4.788  12.193  1.4980 -2.9228  2.0417
 8030TIP3   OH248284   1.449   3.653   9.441 -0.2045  0.3852  0.6654
 8030TIP3    H148285   1.415   3.574   9.482  0.9748 -0.0877  0.7688
 8030TIP3    H248286   1.410   3.725   9.491  0.4361 -0.1624  1.9900
 8031TIP3   OH248287   1.629   1.389  11.519 -0.2295  0.2643  0.2525
 8031TIP3    H148288   1.671   1.387  11.605  0.6805 -0.6777 -0.1961
 8031TIP3    H248289   1.701   1.408  11.458 -0.8077  0.5746 -0.3428
 8032TIP3   OH248290   4.317   1.651  10.640  0.2268  0.1775 -1.0730
 8032TIP3    H148291   4.396   1.679  10.687 -0.7024 -0.8886  1.2974
 8032TIP3    H248292   4.279   1.732  10.607  0.3906  1.1714  0.9999
 8033TIP3   OH248293   1.607   4.564  10.069  0.0514 -0.2913  0.5666
 8033TIP3    H148294   1.594   4.564  10.164  0.7288  2.0040  0.7292
 8033TIP3    H248295   1.700   4.581  10.058 -0.0507 -0.3852 -0.5257
 8034TIP3   OH248296   6.618   4.733  12.286 -0.6179  0.3831  0.4563
 8034TIP3    H148297   6.625   4.653  12.233 -0.1518  0.4479  0.4225
 8034TIP3    H248298   6.600   4.702  12.374 -0.2646  0.2316  0.4768
 8035TIP3   OH248299   1.911   3.592  11.477  0.5617 -0.4305 -0.4304
 8035TIP3    H148300   1.981   3.614  11.539 -0.6095  1.5471  0.2699
 8035TIP3    H248301   1.945   3.619  11.392  0.2382  1.7703  0.0687
 8036TIP3   OH248302   5.476   6.241  10.469 -0.5888 -0.1906  0.6837
 8036TIP3    H148303   5.507   6.307  10.407 -0.6515 -0.0464  0.8042
 8036TIP3    H248304   5.544   6.239  10.537 -1.2902  0.8247  1.4524
 8037TIP3   OH248305   0.822   4.107  10.185  0.2292  0.3997 -0.1404
 8037TIP3    H148306   0.896   4.128  10.242 -0.0848  0.8861  0.0936
 8037TIP3    H248307   0.831   4.013  10.168 -0.7237 -0.1987  2.2371
 8038TIP3   OH248308   2.043   0.425  12.540 -0.2556  0.4846 -0.5446
 8038TIP3    H148309   2.044   0.329  12.545 -3.4303  0.2870 -1.3031
 8038TIP3    H248310   1.986   0.452  12.612  1.3815  1.9362  0.2770
 8039TIP3   OH248311   0.642   3.835  12.144  0.0434 -0.5675 -0.2543
 8039TIP3    H148312   0.616   3.753  12.186  0.3365 -0.0325  1.0195
 8039TIP3    H248313   0.586   3.841  12.066 -1.2123 -1.1306  0.5630
 8040TIP3   OH248314   4.277   0.092   9.458 -0.2714 -0.4190 -0.0340
 8040TIP3    H148315   4.318   0.170   9.419 -2.1969  0.2946 -0.7865
 8040TIP3    H248316   4.238   0.125   9.540 -1.5440 -0.4291 -0.6139
 8041TIP3   OH248317   6.450   6.553  10.653 -0.2945 -0.2560 -0.1771
 8041TIP3    H148318   6.545   6.557  10.666 -0.3847 -2.0634  1.3126
 8041TIP3    H248319   6.432   6.462  10.630 -1.5710  0.3180 -1.7046
 8042TIP3   OH248320   1.808   6.073  11.183  0.1772  0.0118 -0.6113
 8042TIP3    H148321   1.852   6.157  11.168  0.9693 -0.6789 -2.4233
 8042TIP3    H248322   1.833   6.019  11.108 -2.2299 -1.0757 -0.7194
 8043TIP3   OH248323   0.867   1.482  11.770 -0.0096  0.3959  0.6087
 8043TIP3    H148324   0.948   1.519  11.806  0.3768 -0.6533  0.8386
 8043TIP3    H248325   0.852   1.403  11.821 -2.3218  1.6237  2.0248
 8044TIP3   OH248326   3.913   6.451  10.415  0.2562  0.1223 -0.5029
 8044TIP3    H148327   3.915   6.444  10.510 -1.1149 -0.0750 -0.4739
 8044TIP3    H248328   3.829   6.492  10.395  0.3977 -0.1067 -1.6393
 8045TIP3   OH248329   2.255   5.816  10.937  0.1798 -0.0336 -0.3212
 8045TIP3    H148330   2.248   5.771  10.853  1.0643  0.8648 -0.9018
 8045TIP3    H248331   2.334   5.779  10.978 -0.5236 -0.8318  0.3668
 8046TIP3   OH248332   0.718   1.073   9.346 -0.3882  0.0310 -0.4095
 8046TIP3    H148333   0.660   0.997   9.347 -0.1138 -0.1874  0.7165
 8046TIP3    H248334   0.714   1.105   9.256  0.6942 -2.2229 -1.3441
 8047TIP3   OH248335   6.531   2.521   9.739 -0.0928  0.5476  0.2645
 8047TIP3    H148336   6.532   2.456   9.809  0.5674 -2.1916 -2.1208
 8047TIP3    H248337   6.594   2.588   9.768 -0.2890 -0.1686  2.5151
 8048TIP3   OH248338   1.988   5.357  10.534 -0.1117 -0.9361 -0.2797
 8048TIP3    H148339   2.027   5.309  10.608 -0.4327 -0.3146  0.2983
 8048TIP3    H248340   2.032   5.320  10.457  2.1275  0.1723  0.3675
 8049TIP3   OH248341   1.999   6.151  11.452 -0.2412  0.6684  0.5525
 8049TIP3    H148342   1.970   6.182  11.366  0.9797  2.8371  0.8362
 8049TIP3    H248343   2.062   6.217  11.481 -0.6636  0.0517  3.1507
 8050TIP3   OH248344   4.317   5.452  10.513  0.9176  0.0342  0.2747
 8050TIP3    H148345   4.278   5.540  10.509 -0.1010 -0.3437  1.1498
 8050TIP3    H248346   4.327   5.436  10.607  0.3748 -1.0802  0.1508
 8051TIP3   OH248347   6.220   5.003   9.663  0.2554  0.3450 -0.4591
 8051TIP3    H148348   6.203   4.937   9.730  0.8347  0.1678 -0.4820
 8051TIP3    H248349   6.314   4.998   9.647  0.9563  3.3784  1.8741
 8052TIP3   OH248350   6.703   0.197  10.782  0.2329 -1.0195 -0.5971
 8052TIP3    H148351   6.730   0.111  10.814 -1.2153 -0.5543  2.1744
 8052TIP3    H248352   6.614   0.184  10.750 -1.8324  0.0404  3.9040
 8053TIP3   OH248353   0.850   5.021   9.718 -0.3414  0.0849 -0.2060
 8053TIP3    H148354   0.923   5.061   9.670 -0.3727 -0.0385 -0.3559
 8053TIP3    H248355   0.837   5.079   9.793 -0.2510  0.2446 -0.3113
 8054TIP3   OH248356   4.002   1.761   9.355 -0.4279  0.2971  0.5517
 8054TIP3    H148357   3.952   1.799   9.283  0.0418 -0.9530 -0.4917
 8054TIP3    H248358   4.075   1.821   9.367 -0.2852  0.3206 -0.3199
 8055TIP3   OH248359   0.194   0.046  10.224 -0.3368 -0.6483 -0.2097
 8055TIP3    H148360   0.234  -0.004  10.153  1.0549  0.6986 -0.4274
 8055TIP3    H248361   0.101   0.053  10.198  0.3217  0.7631 -2.5286
 8056TIP3   OH248362   1.006   1.419  10.565 -0.0807  0.6237  0.3017
 8056TIP3    H148363   0.973   1.485  10.503 -0.6871 -1.3704 -1.6309
 8056TIP3    H248364   0.934   1.357  10.574  0.4303  0.2384  2.1722
 8057TIP3   OH248365   3.756   0.783  10.024  0.3878  0.0055  0.1647
 8057TIP3    H148366   3.790   0.840  10.092  1.0536 -0.8707  0.5905
 8057TIP3    H248367   3.667   0.762  10.052  0.5771 -0.1603  0.6476
 8058TIP3   OH248368   3.148   2.626  10.882 -0.1340 -0.3981  0.0358
 8058TIP3    H148369   3.218   2.669  10.931  0.8822 -2.0300  0.0863
 8058TIP3    H248370   3.172   2.640  10.790  0.5769 -1.3907  0.0520
 8059TIP3   OH248371   0.921   2.303   9.687 -0.3548  0.1863  0.0374
 8059TIP3    H148372   1.015   2.289   9.676 -0.2994  0.0415  0.6475
 8059TIP3    H248373   0.886   2.306   9.598 -0.2075 -2.6610 -0.1905
 8060TIP3   OH248374   4.970   5.415  10.608  0.0952  0.1462  0.2930
 8060TIP3    H148375   4.890   5.373  10.577 -0.1233  0.7847 -0.0335
 8060TIP3    H248376   5.037   5.347  10.601 -0.3975 -0.3633  0.4782
 8061TIP3   OH248377   0.639   4.641  10.584 -0.7540  0.4410  0.1162
 8061TIP3    H148378   0.547   4.623  10.604 -0.4317 -2.1402 -0.3768
 8061TIP3    H248379   0.683   4.633  10.668 -0.8635  0.9465  0.2270
 8062TIP3   OH248380   5.606   4.157   9.167  0.6473  0.2070 -0.6361
 8062TIP3    H148381   5.597   4.064   9.150 -1.3570 -0.1465  1.7805
 8062TIP3    H248382   5.678   4.163   9.229 -0.9273 -0.1276  1.3225
 8063TIP3   OH248383   4.028   2.131   9.060  0.0277 -0.4061  0.1633
 8063TIP3    H148384   4.047   2.148   9.152 -0.9620  3.5322 -0.1889
 8063TIP3    H248385   4.105   2.164   9.013 -0.2306 -0.7378 -0.5072
 8064TIP3   OH248386   3.462   6.329   9.977 -0.1589  0.5610  0.0173
 8064TIP3    H148387   3.483   6.253  10.032 -1.5064  1.2375  1.5533
 8064TIP3    H248388   3.488   6.303   9.889 -0.5150 -1.6615  0.5109
 8065TIP3   OH248389   1.087   0.746   9.776  0.2134  0.1666 -0.1242
 8065TIP3    H148390   1.144   0.772   9.704 -0.0757  1.5302  0.1138
 8065TIP3    H248391   1.020   0.814   9.780  0.0102 -0.0781  1.1971
 8066TIP3   OH248392   2.964   2.230  12.273  0.0185  0.4387  0.2515
 8066TIP3    H148393   2.964   2.291  12.199 -2.1010  1.4035  0.9650
 8066TIP3    H248394   2.920   2.152  12.239  1.1264 -0.0465 -0.1337
 8067TIP3   OH248395   0.256   0.619  11.631 -0.1818 -0.4304  0.2360
 8067TIP3    H148396   0.316   0.576  11.569 -0.3559 -1.4634  0.7515
 8067TIP3    H248397   0.216   0.690  11.580  0.7878 -0.3129 -0.3834
 8068TIP3   OH248398   6.420   0.604  10.514 -0.5273 -0.0760  0.0222
 8068TIP3    H148399   6.345   0.617  10.456 -0.8431  1.3608  0.7011
 8068TIP3    H248400   6.383   0.567  10.594 -0.5598  0.8591  0.4475
 8069TIP3   OH248401   6.396   3.455  13.241 -0.0686 -0.2009  0.0843
 8069TIP3    H148402   6.324   3.437  13.181 -0.1256 -1.8423  0.6087
 8069TIP3    H248403   6.475   3.438  13.190  0.0042  1.7558 -0.5403
 8070TIP3   OH248404   5.470   0.309  11.927 -0.3311 -0.3786 -0.4390
 8070TIP3    H148405   5.394   0.351  11.886 -0.4456  0.0208  0.1612
 8070TIP3    H248406   5.434   0.268  12.007 -0.0798 -0.9722 -0.6296
 8071TIP3   OH248407   5.624   2.030  12.307  0.6374  0.6870 -0.5485
 8071TIP3    H148408   5.530   2.033  12.295  0.1667  1.7285  2.4692
 8071TIP3    H248409   5.643   1.941  12.336  0.6354  0.3876 -1.4662
 8072TIP3   OH248410   3.309   2.544  10.272  0.4420 -0.2626  0.0057
 8072TIP3    H148411   3.364   2.516  10.345  0.4232 -0.9079 -0.2133
 8072TIP3    H248412   3.367   2.539  10.195  0.0606 -1.0814 -0.2470
 8073TIP3   OH248413   1.874   4.671  11.852 -0.2639 -0.0355  0.0053
 8073TIP3    H148414   1.906   4.630  11.772  1.4633 -0.0982  0.6983
 8073TIP3    H248415   1.904   4.614  11.923 -1.7895  0.0023  0.7367
 8074TIP3   OH248416   5.380   4.835  11.664 -0.2963  0.5530  0.4482
 8074TIP3    H148417   5.475   4.841  11.655 -0.1204  1.2204  2.3240
 8074TIP3    H248418   5.366   4.781  11.741 -1.4457  0.5828  0.2814
 8075TIP3   OH248419   0.976   2.505  10.208 -0.2510 -0.5600  0.1956
 8075TIP3    H148420   1.057   2.557  10.210  0.1024 -1.0912  0.0425
 8075TIP3    H248421   0.908   2.567  10.183  0.3623 -0.4296 -1.2186
 8076TIP3   OH248422   0.897   0.225   9.991  0.1626 -0.3582 -0.3163
 8076TIP3    H148423   0.899   0.268  10.076  0.4938  0.5244 -0.7537
 8076TIP3    H248424   0.946   0.284   9.933 -3.5193  1.2375 -2.1002
 8077TIP3   OH248425   5.252   1.629  12.385  0.0648 -0.4096  0.2757
 8077TIP3    H148426   5.197   1.551  12.373  1.5845 -1.3133 -1.2354
 8077TIP3    H248427   5.196   1.702  12.356 -0.6098 -1.2070 -0.4809
 8078TIP3   OH248428   3.636   3.822  11.784 -0.2085  0.0472 -0.4025
 8078TIP3    H148429   3.553   3.856  11.751  0.0009 -0.2714 -1.2823
 8078TIP3    H248430   3.703   3.872  11.738  0.0909 -0.8070 -0.9117
 8079TIP3   OH248431   0.585   6.128  11.419 -0.4258  0.1845 -0.4120
 8079TIP3    H148432   0.674   6.121  11.453 -0.8418 -2.9414  0.3863
 8079TIP3    H248433   0.588   6.084  11.334 -1.2728 -0.5141 -0.1051
 8080TIP3   OH248434   5.060   2.550  11.226 -0.0682 -0.1264 -0.1072
 8080TIP3    H148435   5.097   2.469  11.190  1.5516  0.7583 -0.4872
 8080TIP3    H248436   4.976   2.559  11.180  0.4380 -0.7729 -1.2009
 8081TIP3   OH248437   1.309   6.209  12.039 -0.0170 -0.3929 -0.3803
 8081TIP3    H148438   1.292   6.253  12.122 -0.6430  0.0365 -0.7222
 8081TIP3    H248439   1.246   6.138  12.035 -1.4610  0.8573 -1.3982
 8082TIP3   OH248440   1.969   0.992  10.857 -0.0204 -0.1590 -0.1974
 8082TIP3    H148441   2.005   0.926  10.916 -1.7084 -0.1283  0.9269
 8082TIP3    H248442   1.927   0.942  10.788  0.7295 -0.2143 -0.6216
 8083TIP3   OH248443   4.189   2.412   9.277  0.3566  0.3152  0.1118
 8083TIP3    H148444   4.261   2.447   9.329  0.3943  0.8068 -0.2665
 8083TIP3    H248445   4.136   2.489   9.254  1.5271  0.4547 -2.4262
 8084TIP3   OH248446   1.032   3.913  11.578  0.6212  0.0151  0.2012
 8084TIP3    H148447   1.072   3.827  11.591  0.6199  0.0773  0.6479
 8084TIP3    H248448   1.097   3.975  11.610  0.0563  0.0977  1.2220
 8085TIP3   OH248449   6.700   1.925  12.423  0.2190 -0.6513 -0.1290
 8085TIP3    H148450   6.779   1.934  12.477 -0.1610 -0.5360  0.4017
 8085TIP3    H248451   6.668   2.014  12.412 -0.4368 -0.7941  0.5464
 8086TIP3   OH248452   3.772   3.797  10.330  0.0618 -0.3382  0.2174
 8086TIP3    H148453   3.785   3.793  10.235  0.8156  0.8591  0.2577
 8086TIP3    H248454   3.795   3.886  10.354 -0.3265 -0.5641  1.5091
 8087TIP3   OH248455   2.665   3.001   9.703 -0.1182  0.4825 -0.3242
 8087TIP3    H148456   2.738   3.051   9.740 -0.5949  0.4560  0.6984
 8087TIP3    H248457   2.706   2.927   9.659  0.4415 -0.4957  1.6938
 8088TIP3   OH248458   1.306   5.005  10.529 -0.4353  0.1931  0.5133
 8088TIP3    H148459   1.311   5.046  10.442  1.1571 -0.9499  0.0282
 8088TIP3    H248460   1.394   4.972  10.546 -0.7134  0.3667  2.5854
 8089TIP3   OH248461   5.066   5.687  12.411  0.1845  0.6925  1.1815
 8089TIP3    H148462   5.025   5.685  12.497  2.6723  0.3526  2.4725
 8089TIP3    H248463   5.066   5.595  12.383 -0.7343  0.8190  0.7369
 8090TIP3   OH248464   5.798   0.784  10.505  0.2080  0.6346 -0.4340
 8090TIP3    H148465   5.721   0.798  10.449 -0.8883  0.0902  0.8741
 8090TIP3    H248466   5.867   0.755  10.445 -0.6695  0.9075 -1.6071
 8091TIP3   OH248467   6.176   1.456  10.382 -0.5251 -0.2671  0.9233
 8091TIP3    H148468   6.186   1.434  10.475 -0.2485  0.8115  1.1624
 8091TIP3    H248469   6.184   1.372  10.336  0.5559 -0.6584  1.7854
 8092TIP3   OH248470   1.506   6.663  10.250 -0.4492 -0.2995 -0.2959
 8092TIP3    H148471   1.444   6.693  10.184 -0.2048  0.4045 -0.2141
 8092TIP3    H248472   1.452   6.634  10.323 -0.7350 -1.3767 -0.9062
 8093TIP3   OH248473   4.119   6.679  11.178  0.4331 -0.0240  0.1679
 8093TIP3    H148474   4.124   6.716  11.266  1.8078  0.1146  0.0593
 8093TIP3    H248475   4.042   6.720  11.138  0.8817  1.3476  0.6685
 8094TIP3   OH248476   6.304   0.569  11.580  0.9890 -0.6103  0.5721
 8094TIP3    H148477   6.398   0.587  11.578  1.0541 -0.7597 -2.2297
 8094TIP3    H248478   6.282   0.548  11.489 -1.8960  0.1404  1.0003
 8095TIP3   OH248479   5.960   4.330   9.542  0.1298 -0.1363 -0.2473
 8095TIP3    H148480   5.988   4.252   9.590 -0.2339 -0.4432 -0.5199
 8095TIP3    H248481   5.885   4.300   9.490 -0.4688  0.5726  0.1910
 8096TIP3   OH248482   4.650   1.342   9.442  0.1062  0.2726  0.3202
 8096TIP3    H148483   4.624   1.396   9.517  0.3585 -0.4716  0.9611
 8096TIP3    H248484   4.573   1.290   9.422  0.3697 -0.3220  0.7892
 8097TIP3   OH248485   1.799   2.575  10.980 -0.3456  0.2168 -0.4051
 8097TIP3    H148486   1.836   2.543  10.897  0.6047  1.3224 -0.4245
 8097TIP3    H248487   1.791   2.496  11.034 -0.3955 -0.4280 -1.3266
 8098TIP3   OH248488   0.426   1.544   9.661  0.0925  0.3858 -0.3645
 8098TIP3    H148489   0.469   1.628   9.677 -0.0151  0.1994  1.0911
 8098TIP3    H248490   0.336   1.568   9.638 -0.3568  0.6781  1.5127
 8099TIP3   OH248491   2.896   5.446  10.041  0.2067 -0.6713 -0.3714
 8099TIP3    H148492   2.917   5.539  10.029  0.5878 -0.5831  0.8147
 8099TIP3    H248493   2.937   5.402   9.967  0.1340  0.0819 -0.8792
 8100TIP3   OH248494   4.347   6.630  12.290  0.1639 -0.5307  0.4333
 8100TIP3    H148495   4.388   6.544  12.295  1.4273  0.1205  2.4949
 8100TIP3    H248496   4.253   6.612  12.294  0.4213 -1.7760  3.0880
 8101TIP3   OH248497   1.621   6.378  11.275  0.3529  0.3718  0.2726
 8101TIP3    H148498   1.651   6.419  11.194 -0.8823  0.5570 -0.1120
 8101TIP3    H248499   1.694   6.389  11.336  0.6883  1.6546 -0.3300
 8102TIP3   OH248500   1.658   3.636   9.671 -0.0946  0.2887 -0.0117
 8102TIP3    H148501   1.640   3.695   9.597  0.5971  2.0612  1.1656
 8102TIP3    H248502   1.579   3.639   9.724  0.2216  0.7809  0.4399
 8103TIP3   OH248503   3.238   5.071  11.285  0.0611  0.7011  0.0032
 8103TIP3    H148504   3.224   4.977  11.300  2.4348  0.1616 -0.6348
 8103TIP3    H248505   3.216   5.112  11.368 -0.1486 -0.5386  0.5873
 8104TIP3   OH248506   1.906   5.728  12.846 -0.1585  0.0435 -0.3923
 8104TIP3    H148507   1.840   5.795  12.865  0.1535  0.2445  0.0009
 8104TIP3    H248508   1.869   5.648  12.884 -0.3033  0.0967 -0.4183
 8105TIP3   OH248509   1.182   0.977  12.761 -0.0694  0.1876 -0.2504
 8105TIP3    H148510   1.173   0.908  12.826  1.0509  0.5883  0.3579
 8105TIP3    H248511   1.261   1.024  12.787  0.3804  0.3897 -1.8691
 8106TIP3   OH248512   3.187   1.650  11.715  0.4297  0.2255 -0.0814
 8106TIP3    H148513   3.199   1.714  11.645  2.1310  0.2141  0.1589
 8106TIP3    H248514   3.107   1.603  11.691 -0.6984  2.1947 -0.4304
 8107TIP3   OH248515   2.990   2.238   9.711  0.1380  0.3300  0.4524
 8107TIP3    H148516   2.914   2.207   9.760 -1.0548 -1.1319 -2.1080
 8107TIP3    H248517   3.037   2.159   9.686  0.9268  1.0391 -0.3980
 8108TIP3   OH248518   6.231   2.082  11.319  0.0166  0.5091 -0.2615
 8108TIP3    H148519   6.173   2.007  11.304  0.8081  0.0195 -0.9522
 8108TIP3    H248520   6.176   2.145  11.364 -0.4900 -0.7301  0.9346
 8109TIP3   OH248521   5.154   6.408  11.790  0.3057  0.1461  0.1242
 8109TIP3    H148522   5.080   6.428  11.847  0.1664 -0.0257  0.0074
 8109TIP3    H248523   5.168   6.314  11.800 -0.7163 -0.2007 -1.2698
 8110TIP3   OH248524   5.757   0.935  12.454 -0.0261  0.1340  0.1367
 8110TIP3    H148525   5.777   0.924  12.547 -0.3016  1.0365  0.3110
 8110TIP3    H248526   5.664   0.958  12.452 -0.3771 -1.2270 -0.4690
 8111TIP3   OH248527   6.497   0.371  11.862  0.1673 -0.4666  0.4697
 8111TIP3    H148528   6.572   0.331  11.904 -0.1438  0.6663  2.2230
 8111TIP3    H248529   6.449   0.298  11.823  1.2388 -1.3949  0.8301
 8112TIP3   OH248530   4.863   2.527  10.426  0.2911  0.8157  0.3428
 8112TIP3    H148531   4.885   2.602  10.482 -2.5249  2.1545 -0.1736
 8112TIP3    H248532   4.892   2.554  10.339  0.7295  0.5992  0.4195
 8113TIP3   OH248533   5.023   4.287  10.543 -0.1604  0.1436 -0.5160
 8113TIP3    H148534   5.099   4.285  10.602 -0.8591 -0.4404  0.3818
 8113TIP3    H248535   4.973   4.364  10.571  0.7951  1.4005 -2.0490
 8114TIP3   OH248536   5.526   0.876  11.076 -0.4767  0.1564 -0.4001
 8114TIP3    H148537   5.494   0.834  11.156  0.5547 -2.3483 -1.2212
 8114TIP3    H248538   5.453   0.869  11.014  0.0765 -1.6777 -0.9168
 8115TIP3   OH248539   5.746   4.208   9.403  0.0866 -0.1185 -0.0381
 8115TIP3    H148540   5.681   4.171   9.463 -0.8924 -0.2044 -1.1125
 8115TIP3    H248541   5.802   4.134   9.380  0.1267 -0.2051  0.3202
 8116TIP3   OH248542   4.545   2.488  12.332 -0.2256  0.6779 -0.5519
 8116TIP3    H148543   4.622   2.473  12.387 -0.3064 -2.1367 -1.0879
 8116TIP3    H248544   4.488   2.542  12.387  1.5611  1.8032  0.3193
 8117TIP3   OH248545   5.837   1.999   9.935  0.1713 -0.2508 -0.3776
 8117TIP3    H148546   5.823   2.038  10.022  0.4890  0.2764 -0.5573
 8117TIP3    H248547   5.831   1.905   9.950 -5.1422 -0.2662 -0.6227
 8118TIP3   OH248548   5.055   4.676   9.966 -0.2158 -0.1895 -0.2115
 8118TIP3    H148549   5.086   4.609   9.905 -2.4670 -1.0043 -0.5621
 8118TIP3    H248550   5.071   4.759   9.920  0.2473 -0.6496 -0.9055
 8119TIP3   OH248551   1.117   0.001  11.412  0.2036  0.0324  0.5070
 8119TIP3    H148552   1.188   0.045  11.366 -0.6850  0.1352 -0.8264
 8119TIP3    H248553   1.056   0.071  11.435 -0.2809 -0.2503  0.1100
 8120TIP3   OH248554   4.080   5.215  11.519  0.4042 -0.0875  0.2633
 8120TIP3    H148555   4.149   5.280  11.507  2.2456 -1.8336  0.8221
 8120TIP3    H248556   4.121   5.131  11.497 -0.6257 -1.5627  3.2598
 8121TIP3   OH248557   3.867   4.684  10.793 -0.4526  0.3302  0.1884
 8121TIP3    H148558   3.886   4.739  10.869  0.1839  1.7386 -0.9230
 8121TIP3    H248559   3.771   4.680  10.790 -0.4932  0.6602  0.7932
 8122TIP3   OH248560   0.284   0.892  19.303  0.3713 -0.1679  0.1673
 8122TIP3    H148561   0.254   0.918  19.216 -1.6137 -3.1148 -0.1604
 8122TIP3    H248562   0.223   0.935  19.363 -0.8580 -1.3432 -0.1874
 8123TIP3   OH248563   2.328   3.851  10.141 -0.6947  0.4120 -0.2103
 8123TIP3    H148564   2.323   3.756  10.138 -0.0689  0.3900 -1.0099
 8123TIP3    H248565   2.310   3.878  10.051  1.6336  0.8963 -0.5966
 8124TIP3   OH248566   6.202   2.702   9.335 -0.6843 -0.0881 -0.1812
 8124TIP3    H148567   6.210   2.651   9.254 -1.4741 -2.6714  1.2702
 8124TIP3    H248568   6.263   2.661   9.396 -0.3310  1.6159  0.6680
 8125TIP3   OH248569   4.490   0.065  11.173 -0.0069 -0.0840 -0.0955
 8125TIP3    H148570   4.512  -0.026  11.156  0.1124  0.0357 -0.6160
 8125TIP3    H248571   4.502   0.076  11.267 -1.5456 -1.0209  0.2448
 8126TIP3   OH248572   4.330   4.885  12.186 -0.2061 -0.0039  0.2828
 8126TIP3    H148573   4.274   4.892  12.263 -1.8996 -3.5473 -0.4142
 8126TIP3    H248574   4.274   4.844  12.120  1.7521  1.1302 -2.2372
 8127TIP3   OH248575   2.844   5.058  10.080 -0.5651 -0.0757 -0.0980
 8127TIP3    H148576   2.818   5.061   9.988 -1.7177  0.8311  0.2291
 8127TIP3    H248577   2.872   4.967  10.094  0.5988  0.0214 -1.5786
 8128TIP3   OH248578   1.480   4.134  12.212 -0.1057 -0.1476 -0.2024
 8128TIP3    H148579   1.571   4.162  12.200 -0.8205  2.4226 -0.3456
 8128TIP3    H248580   1.463   4.147  12.305 -0.7381  0.9040 -0.4445
 8129TIP3   OH248581   4.085   6.483  10.867  0.6725 -0.0175 -0.3611
 8129TIP3    H148582   4.154   6.525  10.814  0.9544 -1.0967 -0.8767
 8129TIP3    H248583   4.130   6.454  10.946  0.7987 -0.6195 -0.6464
 8130TIP3   OH248584   1.996   2.370  12.244 -0.5984 -0.1862  0.1708
 8130TIP3    H148585   1.923   2.311  12.262 -1.3688  0.8808  0.6544
 8130TIP3    H248586   1.968   2.420  12.167 -0.1674 -0.0949  0.0704
 8131TIP3   OH248587   4.734   4.160   9.951  0.5796  0.5055 -0.5589
 8131TIP3    H148588   4.755   4.155  10.044  0.2616 -0.4383 -0.5286
 8131TIP3    H248589   4.800   4.105   9.909 -0.4193 -0.6074 -0.6959
 8132TIP3   OH248590   2.577   2.648  10.309 -0.0119 -0.5327 -0.2545
 8132TIP3    H148591   2.637   2.573  10.297  1.5774  0.2974  1.9864
 8132TIP3    H248592   2.627   2.723  10.278 -0.4464 -0.0123  0.2932
 8133TIP3   OH248593   3.580   1.120  12.099 -0.0213  0.0753  0.3699
 8133TIP3    H148594   3.583   1.196  12.041  1.0615  0.9666  1.5245
 8133TIP3    H248595   3.553   1.155  12.184 -0.6209 -1.0259  0.6540
 8134TIP3   OH248596   5.750   3.685  19.300  0.4015  0.4482  0.0506
 8134TIP3    H148597   5.816   3.622  19.328 -0.0659 -0.6994 -1.2742
 8134TIP3    H248598   5.755   3.684  19.204 -0.2869  1.7283 -0.0316
 8135TIP3   OH248599   4.529   5.600  10.908 -0.4077 -0.5484  0.2145
 8135TIP3    H148600   4.561   5.583  10.997 -2.1108 -0.2965  0.9077
 8135TIP3    H248601   4.577   5.538  10.853  0.9905 -0.4151  1.2336
 8136TIP3   OH248602   4.008   1.001   9.452  0.5173  0.0226 -0.4238
 8136TIP3    H148603   4.061   1.056   9.394  1.2822  0.2500  0.4628
 8136TIP3    H248604   4.067   0.981   9.525 -0.5048 -0.0360  0.3997
 8137TIP3   OH248605   0.707   4.793  10.904  0.3059  0.1844  0.1191
 8137TIP3    H148606   0.737   4.827  10.988 -0.9507 -1.6258  1.3599
 8137TIP3    H248607   0.612   4.785  10.913  0.1278  0.0664 -1.5294
 8138TIP3   OH248608   6.466   4.527  10.858 -0.3300 -0.7135  0.3380
 8138TIP3    H148609   6.529   4.461  10.886  1.8517  0.5832 -1.1997
 8138TIP3    H248610   6.414   4.546  10.937  0.3459 -2.7119  1.3280
 8139TIP3   OH248611   1.050   6.314   9.522 -0.0064 -0.4570  0.3057
 8139TIP3    H148612   1.013   6.343   9.606 -0.4436 -0.4229  0.1047
 8139TIP3    H248613   1.127   6.369   9.509 -0.4473  0.1560  0.2527
 8140TIP3   OH248614   4.913   0.647   9.729  0.1019  0.2896 -0.1090
 8140TIP3    H148615   4.989   0.642   9.787  0.0004  0.1528  0.0161
 8140TIP3    H248616   4.902   0.740   9.711 -0.5588  0.4509  1.0286
 8141TIP3   OH248617   0.721   2.214  11.762  0.0027 -0.8050 -0.4400
 8141TIP3    H148618   0.723   2.223  11.667 -0.9509  0.9622 -0.3409
 8141TIP3    H248619   0.639   2.170  11.781  1.4779 -3.8601 -0.5173
 8142TIP3   OH248620   0.423   0.987  12.369 -0.0787  0.4269 -0.4712
 8142TIP3    H148621   0.422   1.028  12.455 -0.8149 -0.5852  0.0234
 8142TIP3    H248622   0.516   0.977  12.348  0.1859 -1.8243  1.4513
 8143TIP3   OH248623   4.275   0.247  11.239 -0.3481 -0.5663  0.1991
 8143TIP3    H148624   4.342   0.197  11.193  0.0125 -1.2516  1.4270
 8143TIP3    H248625   4.231   0.182  11.294 -0.9100  0.1888  0.6502
 8144TIP3   OH248626   5.161   1.953   9.780 -0.3566  0.1715 -0.5651
 8144TIP3    H148627   5.155   1.865   9.743 -2.2679 -0.0093  0.0796
 8144TIP3    H248628   5.135   1.943   9.872  1.1725  1.1422  0.0287
 8145TIP3   OH248629   2.839   1.673  10.099  0.4715 -0.6528 -0.3426
 8145TIP3    H148630   2.904   1.610  10.131  1.0083 -0.9871 -2.0044
 8145TIP3    H248631   2.865   1.756  10.139  1.6040 -0.8961 -0.5285
 8146TIP3   OH248632   3.170   0.826   9.343  0.2554  0.2523 -0.5691
 8146TIP3    H148633   3.164   0.735   9.372  2.2426  0.1917 -0.2330
 8146TIP3    H248634   3.096   0.869   9.385  1.3110 -0.4676  2.2943
 8147TIP3   OH248635   4.620   0.805  12.096  0.0046 -0.0567 -0.5052
 8147TIP3    H148636   4.581   0.879  12.142 -1.0012 -0.9130  0.0831
 8147TIP3    H248637   4.682   0.844  12.035 -1.3837  1.3496 -1.0993
 8148TIP3   OH248638   6.000   5.720   9.886 -0.5795 -0.3124 -0.3053
 8148TIP3    H148639   5.921   5.753   9.844 -1.0577  0.7143  1.3315
 8148TIP3    H248640   5.992   5.624   9.880 -1.8619 -0.2149 -0.3131
 8149TIP3   OH248641   3.111   1.755  11.052  0.0192 -0.3734  0.4283
 8149TIP3    H148642   3.173   1.769  11.124 -2.0593  0.6022  2.1751
 8149TIP3    H248643   3.082   1.843  11.028  1.3486 -0.5959 -2.3624
 8150TIP3   OH248644   0.399   5.140  12.122  0.3580  0.2511  0.1202
 8150TIP3    H148645   0.427   5.053  12.150 -0.7071  0.2786  1.3118
 8150TIP3    H248646   0.469   5.169  12.063  1.1026 -1.0906  0.3035
 8151TIP3   OH248647   5.609   1.620  10.784 -0.1573 -0.0742 -0.1470
 8151TIP3    H148648   5.647   1.535  10.805 -0.3085 -0.1306 -0.1064
 8151TIP3    H248649   5.586   1.614  10.691  0.6090  0.2116 -0.3689
 8152TIP3   OH248650   1.352   5.604  10.009 -0.2973  0.0191 -0.1069
 8152TIP3    H148651   1.350   5.663  10.085 -1.0801  0.9125 -0.7890
 8152TIP3    H248652   1.275   5.629   9.958  0.2906 -0.4685 -1.2696
 8153TIP3   OH248653   0.763   2.231  11.470 -0.5533  0.5196 -0.2431
 8153TIP3    H148654   0.819   2.213  11.394 -0.7504 -4.4226  0.4426
 8153TIP3    H248655   0.675   2.210  11.439 -1.1639  1.9529  0.4541
 8154TIP3   OH248656   1.230   5.232  11.036  0.2190 -0.0038  0.3757
 8154TIP3    H148657   1.212   5.154  10.984 -0.0490 -0.3701  0.9934
 8154TIP3    H248658   1.197   5.305  10.984 -1.0419 -0.4584  0.4963
 8155TIP3   OH248659   0.711   3.249   8.946  0.1953  0.0761 -0.1976
 8155TIP3    H148660   0.766   3.274   9.020  0.6036 -0.9628 -0.1312
 8155TIP3    H248661   0.737   3.159   8.926 -0.8079 -0.0965 -0.7920
 8156TIP3   OH248662   0.592   1.235  11.730 -0.0779  0.2207 -0.0465
 8156TIP3    H148663   0.499   1.215  11.738  0.3825 -1.7412  1.0792
 8156TIP3    H248664   0.614   1.281  11.811  0.1213 -0.1706  0.1226
 8157TIP3   OH248665   6.269   2.612  10.789 -0.1884 -0.1293  0.4899
 8157TIP3    H148666   6.260   2.654  10.875  1.1518  0.1023  0.5465
 8157TIP3    H248667   6.312   2.678  10.735  0.1378 -0.7242  0.0094
 8158TIP3   OH248668   3.865   0.025   9.480 -0.4385 -0.1120  1.0927
 8158TIP3    H148669   3.884  -0.068   9.474 -0.3682 -0.1983  2.4582
 8158TIP3    H248670   3.914   0.064   9.407 -1.1123 -1.2137  0.0197
 8159TIP3   OH248671   6.286   6.664  10.312 -0.2385  0.1365  0.1642
 8159TIP3    H148672   6.288   6.738  10.252  1.8481  1.2485  1.4958
 8159TIP3    H248673   6.222   6.604  10.274 -0.1146  1.4595 -2.3297
 8160TIP3   OH248674   6.045   0.676  11.676 -0.2662 -0.2118  0.6146
 8160TIP3    H148675   6.138   0.691  11.694  0.1539  0.3395 -1.6574
 8160TIP3    H248676   5.999   0.729  11.741  0.9961 -0.3221  1.6397
 8161TIP3   OH248677   0.228   6.582   9.624 -0.1481  0.1552  0.3930
 8161TIP3    H148678   0.137   6.575   9.597 -0.4604  1.4499  1.0234
 8161TIP3    H248679   0.232   6.537   9.708  0.2678 -1.6656 -0.5571
 8162TIP3   OH248680   5.820   1.390  11.257  0.0358  0.2446  0.1356
 8162TIP3    H148681   5.878   1.352  11.323  1.1537 -0.4412 -1.1959
 8162TIP3    H248682   5.873   1.456  11.214 -0.5998  0.5103 -0.2480
 8163TIP3   OH248683   2.229   0.411  10.802  0.0487  0.1778 -0.0934
 8163TIP3    H148684   2.198   0.498  10.779 -1.3491 -0.2025  0.2655
 8163TIP3    H248685   2.239   0.366  10.718 -1.8890 -0.1652 -0.1881
 8164TIP3   OH248686   6.309   6.556  11.091 -0.3937 -0.7613  0.6143
 8164TIP3    H148687   6.244   6.585  11.154 -1.2241 -1.5040  0.1219
 8164TIP3    H248688   6.302   6.460  11.090 -0.2042 -0.7818 -0.3874
 8165TIP3   OH248689   1.425   6.088  12.434  0.3601 -0.4935 -0.4679
 8165TIP3    H148690   1.413   6.165  12.377  2.4213 -0.2812 -0.6876
 8165TIP3    H248691   1.520   6.082  12.446  0.1932 -2.5815  0.1524
 8166TIP3   OH248692   0.395   1.444  11.546 -0.3554  0.2760  0.5282
 8166TIP3    H148693   0.367   1.524  11.501 -0.4859 -1.2976 -2.3999
 8166TIP3    H248694   0.490   1.451  11.550 -0.4409  1.1804  1.6144
 8167TIP3   OH248695   2.958   2.718  11.506  0.2482 -0.1251 -0.5730
 8167TIP3    H148696   2.912   2.637  11.489  1.7096 -1.1517  0.1620
 8167TIP3    H248697   3.014   2.731  11.428  0.2233  0.0236 -0.5673
 8168TIP3   OH248698   1.523   0.475  10.603 -0.3645  0.0496 -0.4709
 8168TIP3    H148699   1.457   0.504  10.540 -0.8818 -3.5158 -1.7908
 8168TIP3    H248700   1.593   0.439  10.550  0.6768 -0.1933  0.9949
 8169TIP3   OH248701   0.463   1.350   9.179 -0.2264  0.4191  0.2096
 8169TIP3    H148702   0.478   1.442   9.160  0.6522  0.3656  0.6032
 8169TIP3    H248703   0.534   1.304   9.134 -0.9674 -0.1224 -0.4443
 8170TIP3   OH248704   2.282   2.953  12.101  0.0176  0.0034  0.0143
 8170TIP3    H148705   2.246   2.868  12.078 -0.2530 -0.0151  0.4906
 8170TIP3    H248706   2.215   2.992  12.158  0.7562 -0.0278  0.9158
 8171TIP3   OH248707   1.209   2.218  11.316 -0.7342 -0.4452 -0.2258
 8171TIP3    H148708   1.239   2.302  11.283 -0.0454 -1.2189 -1.6555
 8171TIP3    H248709   1.215   2.226  11.411 -2.3770  1.7204 -0.2041
 8172TIP3   OH248710   3.862   2.090  11.940 -0.6738  0.1888 -0.1869
 8172TIP3    H148711   3.888   2.047  12.022 -1.4210 -0.8849 -0.4904
 8172TIP3    H248712   3.833   2.177  11.967 -0.2061  0.1169  0.5886
 8173TIP3   OH248713   5.680   4.493   9.404 -0.7408 -0.1062  0.3504
 8173TIP3    H148714   5.709   4.402   9.410 -0.4437  0.0800  2.1302
 8173TIP3    H248715   5.636   4.498   9.319 -0.0055 -1.6804 -0.1638
 8174TIP3   OH248716   0.294   4.366  12.113 -0.6357  0.5377 -0.2380
 8174TIP3    H148717   0.277   4.376  12.019 -1.8359  0.7927 -0.0170
 8174TIP3    H248718   0.207   4.356  12.152 -0.1136 -0.3060  0.7709
 8175TIP3   OH248719   2.424   4.405  10.538 -0.0215 -0.2132  0.3624
 8175TIP3    H148720   2.387   4.358  10.463 -1.3479  0.1751  0.7479
 8175TIP3    H248721   2.389   4.494  10.531  0.7604  0.1378  0.8162
 8176TIP3   OH248722   6.601   0.839  10.819 -0.2986  0.4702  0.3380
 8176TIP3    H148723   6.639   0.753  10.837  0.3076  0.6259 -0.1675
 8176TIP3    H248724   6.676   0.898  10.814 -0.7640  1.1833  1.4469
 8177TIP3   OH248725   3.948   1.548  11.847 -0.0807  0.3950 -0.5500
 8177TIP3    H148726   3.971   1.523  11.758  1.1485 -0.4080 -0.0254
 8177TIP3    H248727   3.854   1.531  11.853 -0.1067  0.1153 -1.5728
 8178TIP3   OH248728   3.662   1.834  10.057 -0.0092  0.3111 -0.1493
 8178TIP3    H148729   3.717   1.764  10.021 -1.4728  0.1261 -2.1929
 8178TIP3    H248730   3.724   1.906  10.073  1.3674 -1.0583  1.1041
 8179TIP3   OH248731   5.267   4.212  11.979  0.3557 -0.2114  0.2376
 8179TIP3    H148732   5.264   4.174  12.066  1.0680 -0.4650  0.1552
 8179TIP3    H248733   5.345   4.268  11.980  0.4299 -0.3021 -0.2684
 8180TIP3   OH248734   2.706   0.223  10.591 -0.4085  0.6518  0.2793
 8180TIP3    H148735   2.695   0.311  10.554  0.1841  0.7156  0.2451
 8180TIP3    H248736   2.640   0.218  10.660  1.4100  2.2401  2.2944
 8181TIP3   OH248737   4.921   3.140  11.882  0.0601 -0.5438 -0.3097
 8181TIP3    H148738   4.921   3.089  11.962  0.3584 -1.9687 -1.1859
 8181TIP3    H248739   5.009   3.178  11.877  0.7530 -2.1576 -0.9807
 8182TIP3   OH248740   1.136   4.994  12.587  0.4614  0.0831 -0.1624
 8182TIP3    H148741   1.136   5.068  12.648  2.0243  0.1331 -0.2031
 8182TIP3    H248742   1.212   4.941  12.612 -1.0757 -2.0037  0.4162
 8183TIP3   OH248743   1.350   6.587  13.050  0.2866  0.1635 -0.2910
 8183TIP3    H148744   1.314   6.665  13.010 -0.1796 -0.3569 -0.9039
 8183TIP3    H248745   1.445   6.594  13.036  0.4316  1.4118  1.1102
 8184TIP3   OH248746   3.189   3.463   8.915  0.0767  0.0050  0.0945
 8184TIP3    H148747   3.181   3.403   8.989 -1.4260  1.0574  0.8446
 8184TIP3    H248748   3.263   3.520   8.938  0.7957 -0.8378 -0.1035
 8185TIP3   OH248749   5.640   2.998   9.362  0.1453  0.7208  0.2779
 8185TIP3    H148750   5.661   3.043   9.444  0.3447  1.2869 -0.0835
 8185TIP3    H248751   5.687   2.915   9.368 -0.0075  0.6691  0.8263
 8186TIP3   OH248752   2.579   3.659  10.188 -0.1234 -0.4488 -0.0103
 8186TIP3    H148753   2.625   3.695  10.112 -1.0405  1.1576  0.1528
 8186TIP3    H248754   2.494   3.632  10.154  0.0704 -1.2840  0.1380
 8187TIP3   OH248755   3.981   4.080  11.275 -0.1512  0.1660  0.2515
 8187TIP3    H148756   3.922   4.147  11.240 -0.7817  0.0146  1.0009
 8187TIP3    H248757   3.948   3.998  11.237  1.6784  0.4146 -2.0818
 8188TIP3   OH248758   5.218   3.344  10.634 -0.5808 -0.3721  0.2815
 8188TIP3    H148759   5.293   3.310  10.683 -1.3156 -1.5537  0.6377
 8188TIP3    H248760   5.243   3.433  10.610  1.3212 -1.0339 -0.4200
 8189TIP3   OH248761   2.002   1.317   9.614  0.5891  0.1756  1.0214
 8189TIP3    H148762   2.084   1.303   9.662  1.4012  1.5708  0.1363
 8189TIP3    H248763   2.015   1.402   9.571 -1.9107  1.1559  2.0358
 8190TIP3   OH248764   6.464   3.172  10.351 -0.0297  0.6895  0.5145
 8190TIP3    H148765   6.527   3.122  10.299 -0.8471  0.6930 -0.5070
 8190TIP3    H248766   6.379   3.133  10.330 -0.5511  1.7167  0.6345
 8191TIP3   OH248767   6.207   6.692  10.601 -0.2633 -0.8721  0.2851
 8191TIP3    H148768   6.279   6.656  10.652 -0.7828 -2.8546 -0.2882
 8191TIP3    H248769   6.238   6.690  10.510 -0.6887 -0.8928  0.1378
 8192TIP3   OH248770   0.088   3.713  11.508 -0.3779 -0.2199 -0.2234
 8192TIP3    H148771   0.015   3.757  11.551  0.1752  0.6789 -0.1865
 8192TIP3    H248772   0.071   3.725  11.414  2.0007  4.1061 -0.3577
 8193TIP3   OH248773   0.878   2.022  11.910  0.1446 -0.1660 -0.2750
 8193TIP3    H148774   0.827   1.946  11.881  0.1512  0.1399 -1.0943
 8193TIP3    H248775   0.884   2.078  11.833  1.6922 -0.1826 -0.1963
 8194TIP3   OH248776   3.890   0.164  12.911 -0.8471  0.0448  0.9373
 8194TIP3    H148777   3.980   0.181  12.939  0.0897 -0.8951 -1.2458
 8194TIP3    H248778   3.870   0.234  12.849 -1.3309 -0.1880  0.8257
 8195TIP3   OH248779   4.076   2.603  10.845  0.4213 -0.0479 -0.2281
 8195TIP3    H148780   4.002   2.643  10.799 -1.1939 -2.4376  0.1129
 8195TIP3    H248781   4.036   2.543  10.908  2.6571 -0.2852  1.0827
 8196TIP3   OH248782   0.873   2.026  11.085 -0.2123  0.1438 -0.0890
 8196TIP3    H148783   0.957   1.996  11.052 -0.4397 -0.2214 -0.3493
 8196TIP3    H248784   0.816   1.948  11.081 -0.4180  0.2515  0.5765
 8197TIP3   OH248785   0.654   6.104  10.763  0.3023  0.1979 -0.0682
 8197TIP3    H148786   0.646   6.169  10.693  1.2426 -0.5797 -0.9152
 8197TIP3    H248787   0.566   6.099  10.801 -0.2291  0.6234 -1.2001
 8198TIP3   OH248788   6.263   5.679  11.415  0.1042 -0.2550 -0.9102
 8198TIP3    H148789   6.348   5.686  11.372 -0.1584 -2.4628 -1.9662
 8198TIP3    H248790   6.264   5.593  11.457 -0.6296  0.7913  1.3885
 8199TIP3   OH248791   2.178   5.514  10.164 -0.1351 -0.2289 -0.1916
 8199TIP3    H148792   2.272   5.518  10.150 -0.1027  0.3360  0.1470
 8199TIP3    H248793   2.156   5.421  10.153  0.4042 -0.3120 -0.5951
 8200TIP3   OH248794   5.977   6.422  10.387  0.0023 -0.1597  0.1367
 8200TIP3    H148795   5.947   6.479  10.316 -0.0898  0.4664  0.6624
 8200TIP3    H248796   5.947   6.466  10.467 -0.9129 -1.4347  0.5326
 8201TIP3   OH248797   0.459   0.916  10.499  0.6340 -0.0246  0.5015
 8201TIP3    H148798   0.467   0.970  10.421  2.3224 -0.0813  0.5980
 8201TIP3    H248799   0.466   0.826  10.467  1.4169 -0.0451  0.7045
 8202TIP3   OH248800   0.102   4.723   9.808 -0.4775 -0.0388  0.6346
 8202TIP3    H148801   0.165   4.738   9.879 -1.0436  2.7111  0.7006
 8202TIP3    H248802   0.017   4.743   9.848 -0.9058  0.6301 -0.5534
 8203TIP3   OH248803   1.142   2.718  10.662 -0.6064 -0.0647  0.0779
 8203TIP3    H148804   1.206   2.770  10.614 -0.3328  0.2137  0.7314
 8203TIP3    H248805   1.191   2.641  10.691 -0.2371  0.6861  1.5566
 8204TIP3   OH248806   3.679   2.411  11.091  0.1601  0.0379  0.2076
 8204TIP3    H148807   3.638   2.336  11.048  0.1766  0.6977 -0.9793
 8204TIP3    H248808   3.690   2.383  11.182 -0.6302 -1.0692 -0.0236
 8205TIP3   OH248809   3.996   1.095  12.490 -0.5774  0.4654 -0.3396
 8205TIP3    H148810   4.044   1.075  12.409  0.0589  1.4556 -0.2229
 8205TIP3    H248811   4.050   1.160  12.534 -1.8090  1.2695  0.0202
 8206TIP3   OH248812   4.151   1.053  11.280 -0.4987  0.0068 -0.5591
 8206TIP3    H148813   4.140   1.147  11.266 -0.6756  0.2797  1.2290
 8206TIP3    H248814   4.064   1.021  11.301 -0.7438 -0.8892 -2.6838
 8207TIP3   OH248815   5.787   4.131  12.234  0.0687  0.1851  0.4005
 8207TIP3    H148816   5.860   4.130  12.295  0.9880  0.8583 -0.6578
 8207TIP3    H248817   5.774   4.040  12.209  0.6289  0.0810  0.4927
 8208TIP3   OH248818   5.911   2.356  11.663 -0.3100  0.2995 -0.4698
 8208TIP3    H148819   5.873   2.423  11.606 -0.7488  1.0565  0.6688
 8208TIP3    H248820   5.928   2.402  11.745 -1.0953 -1.0943  0.5147
 8209TIP3   OH248821   5.645   4.852   9.483 -0.0875  0.3046 -0.0931
 8209TIP3    H148822   5.731   4.883   9.452  0.5122  0.1146  1.2855
 8209TIP3    H248823   5.589   4.929   9.476  0.2771  0.5297 -0.6857
 8210TIP3   OH248824   4.307   2.550  11.796  0.1634 -0.5190 -0.3395
 8210TIP3    H148825   4.328   2.580  11.884  3.2292  0.7972 -1.3992
 8210TIP3    H248826   4.304   2.629  11.743 -1.4763 -1.3021 -1.4964
 8211TIP3   OH248827   4.234   5.381  11.317 -0.0917  0.2416 -0.1337
 8211TIP3    H148828   4.307   5.397  11.257  0.0380 -3.0413 -1.0376
 8211TIP3    H248829   4.156   5.396  11.264  0.0248 -2.1662 -1.1106
 8212TIP3   OH248830   6.114   5.060  11.976  0.2826 -0.8018 -0.4878
 8212TIP3    H148831   6.100   5.048  12.070 -0.5619  0.3100 -0.4552
 8212TIP3    H248832   6.147   4.975  11.946 -1.3939 -1.8322  0.4347
 8213TIP3   OH248833   2.531   4.410  11.668 -0.0058  0.4014  0.8808
 8213TIP3    H148834   2.594   4.456  11.613  0.8704  0.1240  1.6272
 8213TIP3    H248835   2.493   4.343  11.611 -1.4030  2.0624 -0.2724
 8214TIP3   OH248836   2.108   4.350  10.358 -0.1137 -0.4826 -0.2361
 8214TIP3    H148837   2.054   4.272  10.366 -0.0778 -0.4175  0.8161
 8214TIP3    H248838   2.196   4.317  10.345 -0.2741 -0.5977 -1.0720
 8215TIP3   OH248839   1.480   2.715   9.128  0.2376  0.2493  0.5018
 8215TIP3    H148840   1.564   2.761   9.134  1.3528 -1.5015 -0.6520
 8215TIP3    H248841   1.425   2.773   9.076  0.5198  1.6672  1.7144
 8216TIP3   OH248842   5.774   3.003  10.762  0.0872 -0.0467  0.2858
 8216TIP3    H148843   5.818   3.003  10.847 -2.0471 -0.6194  1.4647
 8216TIP3    H248844   5.836   2.957  10.704  0.9235 -1.0990  1.9133
 8217TIP3   OH248845   5.645   2.189  10.604  0.1240 -0.8827  0.3812
 8217TIP3    H148846   5.571   2.128  10.605  0.2532 -1.0483  0.0872
 8217TIP3    H248847   5.609   2.271  10.636 -0.5020 -0.6051 -0.9285
 8218TIP3   OH248848   0.132   5.152  12.055 -0.0385  0.2902 -0.3600
 8218TIP3    H148849   0.217   5.160  12.099 -0.5701 -1.2468  1.0777
 8218TIP3    H248850   0.094   5.071  12.091 -1.2661 -0.1333 -2.4478
 8219TIP3   OH248851   3.346   6.461  12.000  0.0681 -0.1999  0.1510
 8219TIP3    H148852   3.417   6.400  12.018  0.8079  1.1982  2.4661
 8219TIP3    H248853   3.276   6.434  12.060 -0.0843  0.4308  0.2629
 8220TIP3   OH248854   1.425   1.908  10.698 -0.6180 -0.3509  0.5944
 8220TIP3    H148855   1.473   1.890  10.618 -0.8802  0.9029  0.1365
 8220TIP3    H248856   1.480   1.871  10.768  0.5270  0.1842  0.0027
 8221TIP3   OH248857   0.411   2.764   9.480  0.3702 -0.6491  0.4972
 8221TIP3    H148858   0.344   2.719   9.430  1.3242  0.3950 -1.8543
 8221TIP3    H248859   0.390   2.857   9.471  1.9754 -0.3066 -0.1168
 8222TIP3   OH248860   4.760   4.753  10.654  0.1222 -0.0069  0.0022
 8222TIP3    H148861   4.681   4.756  10.708  0.5859 -4.0407  1.1826
 8222TIP3    H248862   4.727   4.765  10.564 -1.6373 -0.2476  0.5674
 8223TIP3   OH248863   0.326   4.031  10.542  0.3883  0.0494  0.3209
 8223TIP3    H148864   0.392   4.101  10.541 -0.2021  0.6178  0.4675
 8223TIP3    H248865   0.249   4.070  10.501  0.1999 -0.6706 -0.0223
 8224TIP3   OH248866   0.434   3.482  12.843 -0.0544 -0.2292  0.2047
 8224TIP3    H148867   0.507   3.456  12.898  0.2438 -0.3538 -0.2424
 8224TIP3    H248868   0.356   3.472  12.898  0.4403  1.9573  1.4061
 8225TIP3   OH248869   5.902   5.633  11.525 -0.0197  0.1039 -0.0257
 8225TIP3    H148870   5.818   5.611  11.563 -0.4822  0.4545 -0.8182
 8225TIP3    H248871   5.933   5.708  11.576  0.6885 -1.1359  1.4550
 8226TIP3   OH248872   2.834   2.852  10.954  0.1708 -0.1097  0.1686
 8226TIP3    H148873   2.832   2.759  10.929 -0.0559  0.0378 -0.3824
 8226TIP3    H248874   2.908   2.888  10.905 -1.2109  0.5173 -1.5556
 8227TIP3   OH248875   2.093   2.022  10.940  0.1236 -0.1786 -0.3339
 8227TIP3    H148876   2.181   2.059  10.931 -0.3842  0.7256 -1.9496
 8227TIP3    H248877   2.070   1.994  10.852 -0.7026 -1.6312  0.3224
 8228TIP3   OH248878   6.085   3.490  11.798  0.2543  0.1486  0.0090
 8228TIP3    H148879   6.151   3.496  11.867  1.6153  1.6363 -1.3450
 8228TIP3    H248880   6.128   3.439  11.728 -0.4160  0.2261 -0.4656
 8229TIP3   OH248881   5.943   2.792  11.432 -0.0248 -0.4039 -0.0072
 8229TIP3    H148882   5.943   2.885  11.408  2.1747 -0.6116 -1.1456
 8229TIP3    H248883   6.036   2.768  11.432 -0.4760 -2.3643  1.2999
 8230TIP3   OH248884   0.627   1.243  12.469 -0.3967  0.2203  0.1589
 8230TIP3    H148885   0.644   1.153  12.497 -0.1672  0.6049  1.3244
 8230TIP3    H248886   0.555   1.236  12.407  0.9495 -0.9785 -1.3476
 8231TIP3   OH248887   2.087   4.829  12.151 -0.0778  0.2883 -0.2369
 8231TIP3    H148888   2.060   4.743  12.119  1.0674  0.1667 -0.9673
 8231TIP3    H248889   2.120   4.874  12.072 -0.5270  1.3364  0.1610
 8232TIP3   OH248890   6.162   0.698   9.765  0.3864 -0.0979  0.1761
 8232TIP3    H148891   6.166   0.768   9.701  1.5360 -0.6427 -0.3791
 8232TIP3    H248892   6.250   0.659   9.764 -0.0255 -1.1018  0.9586
 8233TIP3   OH248893   1.191   1.367   9.671 -0.1224  0.2846 -0.4332
 8233TIP3    H148894   1.267   1.310   9.655  0.3122  0.6273  0.3629
 8233TIP3    H248895   1.188   1.425   9.595  0.2149  0.0579 -0.6220
 8234TIP3   OH248896   1.298   1.695  10.018 -0.3612 -0.0162 -0.1033
 8234TIP3    H148897   1.306   1.680   9.924  1.6052  0.8354 -0.1121
 8234TIP3    H248898   1.237   1.768  10.026 -1.5495 -0.9171 -0.6147
 8235TIP3   OH248899   4.759   6.344  10.451  0.2244 -0.3530 -0.0879
 8235TIP3    H148900   4.794   6.280  10.513  0.3667  1.0995  1.4079
 8235TIP3    H248901   4.837   6.387  10.416  0.0863 -0.0611 -0.0361
 8236TIP3   OH248902   2.434   6.477   9.658  0.5890 -0.5587  0.0883
 8236TIP3    H148903   2.495   6.476   9.584  0.6855 -1.7570  0.1661
 8236TIP3    H248904   2.411   6.569   9.668  1.1077 -0.2882 -0.9942
 8237TIP3   OH248905   3.569   4.989   9.222  0.1388  0.2556 -0.3849
 8237TIP3    H148906   3.490   5.043   9.218 -0.3041 -0.3833 -0.4929
 8237TIP3    H248907   3.592   4.973   9.130  0.3187  0.3401 -0.3548
 8238TIP3   OH248908   3.646   2.696  11.005 -0.1397 -0.2634  0.4950
 8238TIP3    H148909   3.676   2.744  11.082 -2.0779 -0.2702  1.3242
 8238TIP3    H248910   3.681   2.607  11.017  0.5965  0.0481  0.7139
 8239TIP3   OH248911   2.924   2.357  10.596 -0.2435  0.0634  0.4149
 8239TIP3    H148912   2.885   2.284  10.643 -0.0148 -0.2901  0.0641
 8239TIP3    H248913   2.852   2.420  10.586 -0.8612 -0.7590 -0.5837
 8240TIP3   OH248914   5.803   2.764  11.687 -0.0451  0.5364 -0.3881
 8240TIP3    H148915   5.826   2.817  11.611  0.2829 -1.0453 -1.4389
 8240TIP3    H248916   5.878   2.707  11.701  0.2046  1.2914  1.6167
 8241TIP3   OH248917   0.455   3.037  13.366  0.2572  0.5364 -0.1510
 8241TIP3    H148918   0.414   2.951  13.362 -2.2236  1.6129  0.1151
 8241TIP3    H248919   0.549   3.019  13.370 -0.2134 -2.2579  2.2852
 8242TIP3   OH248920   2.775   3.424  11.083 -0.1136 -0.5687 -0.6703
 8242TIP3    H148921   2.817   3.471  11.011 -0.2855 -1.4557 -1.3715
 8242TIP3    H248922   2.831   3.349  11.099  0.0783 -0.2198  0.3357
 8243TIP3   OH248923   1.136   4.303   9.934  0.6261 -0.3254 -0.0003
 8243TIP3    H148924   1.119   4.313  10.028  1.6647  0.0164  0.1596
 8243TIP3    H248925   1.204   4.367   9.914  1.2953 -1.2225 -0.7271
 8244TIP3   OH248926   1.253   1.692  10.687 -0.1442 -0.7489 -0.8029
 8244TIP3    H148927   1.199   1.704  10.766  0.8955 -1.3880  0.0380
 8244TIP3    H248928   1.300   1.775  10.678  0.8597 -1.1908  0.1552
 8245TIP3   OH248929   6.632   5.979  11.265 -0.0423  0.1945  0.4731
 8245TIP3    H148930   6.600   6.034  11.194 -0.3710 -0.5642  0.0250
 8245TIP3    H248931   6.722   6.008  11.279 -0.1560  0.7302  0.1382
 8246TIP3   OH248932   6.656   5.820   9.965 -0.5524 -0.0382 -0.7036
 8246TIP3    H148933   6.700   5.821   9.880 -0.3434 -1.4750 -0.6324
 8246TIP3    H248934   6.682   5.902  10.007 -0.9275  0.8533 -2.1494
 8247TIP3   OH248935   5.328   0.381   9.427  0.0759 -0.5020 -0.0237
 8247TIP3    H148936   5.252   0.391   9.484 -0.8281  0.4637 -1.3347
 8247TIP3    H248937   5.403   0.405   9.482 -0.4866 -1.8238  1.3979
 8248TIP3   OH248938   0.233   5.648  10.803  0.1618  0.4264  0.2549
 8248TIP3    H148939   0.255   5.621  10.714  0.0746  0.7637  0.1294
 8248TIP3    H248940   0.167   5.584  10.832 -0.1994  0.6243 -0.1148
 8249TIP3   OH248941   5.575   6.732  11.968 -0.5466  0.3232  0.1195
 8249TIP3    H148942   5.535   6.786  12.036  0.8171 -0.7748  1.8857
 8249TIP3    H248943   5.648   6.784  11.935 -0.7378  0.5503  0.0566
 8250TIP3   OH248944   5.760   4.736  11.447  0.5426 -0.6798  0.2806
 8250TIP3    H148945   5.824   4.702  11.385  2.2444  0.6570  1.2153
 8250TIP3    H248946   5.688   4.767  11.392  1.4759 -0.6321 -0.9556
 8251TIP3   OH248947   0.539   5.741  11.266 -0.0570  0.0285  0.1173
 8251TIP3    H148948   0.493   5.767  11.186  0.0311  0.4483  0.2011
 8251TIP3    H248949   0.470   5.720  11.328 -0.1486 -2.0870 -0.6234
 8252TIP3   OH248950   4.090   2.649   9.303  0.7453  0.1526  0.1365
 8252TIP3    H148951   4.153   2.719   9.284  1.0501 -0.1242  0.1164
 8252TIP3    H248952   4.005   2.693   9.303  0.9793  0.6311  0.6734
 8253TIP3   OH248953   3.077   6.363   9.425 -0.0104 -0.8168  0.5967
 8253TIP3    H148954   3.032   6.381   9.507 -0.9527 -0.7978  0.0914
 8253TIP3    H248955   3.022   6.297   9.381 -0.0159 -0.1774 -0.4045
 8254TIP3   OH248956   2.152   1.361   9.318  0.5988 -0.0124 -0.4983
 8254TIP3    H148957   2.139   1.402   9.404 -0.4658 -1.7325  0.2036
 8254TIP3    H248958   2.072   1.382   9.270  1.9952  2.6644 -1.8919
 8255TIP3   OH248959   6.301   0.568  11.876 -0.1603  0.4038 -0.4906
 8255TIP3    H148960   6.296   0.542  11.784  1.1448  1.2528 -0.8389
 8255TIP3    H248961   6.376   0.521  11.911 -1.4185 -0.9415  0.5492
 8256TIP3   OH248962   2.449   5.176   9.966 -0.5654  0.1644  0.4786
 8256TIP3    H148963   2.515   5.242   9.988 -0.9567  0.5683  0.4464
 8256TIP3    H248964   2.494   5.093   9.980  0.3290  0.4306 -0.6986
 8257TIP3   OH248965   4.500   2.510  10.483  0.1435 -0.2005  0.6917
 8257TIP3    H148966   4.523   2.513  10.390 -0.3056 -2.6307  0.4301
 8257TIP3    H248967   4.584   2.513  10.528  0.3474  1.4740  0.2707
 8258TIP3   OH248968   1.436   2.406   9.144  0.6297  0.0089  0.1316
 8258TIP3    H148969   1.502   2.393   9.212  1.8087  0.5562 -0.8656
 8258TIP3    H248970   1.473   2.472   9.086 -0.9112  0.5120 -0.3383
 8259TIP3   OH248971   3.238   3.998   9.768  0.2509  0.2025 -0.0056
 8259TIP3    H148972   3.247   3.964   9.679  0.6617  1.1652 -0.3505
 8259TIP3    H248973   3.172   3.942   9.809 -0.0538 -0.1555 -0.9661
 8260TIP3   OH248974   3.194   0.978  11.610  0.5114 -0.1144  0.8004
 8260TIP3    H148975   3.212   0.981  11.516 -0.6800 -1.4958  0.5032
 8260TIP3    H248976   3.264   0.924  11.646  0.4394 -0.3530  0.5799
 8261TIP3   OH248977   2.647   3.897   9.262  0.5786 -0.2800  0.4091
 8261TIP3    H148978   2.672   3.889   9.170  1.4662  0.3949  0.5738
 8261TIP3    H248979   2.708   3.839   9.308  1.4649  0.9008  0.7565
 8262TIP3   OH248980   3.411   0.566  11.933  0.0414  0.1794 -0.7275
 8262TIP3    H148981   3.495   0.556  11.889  0.4297  2.1523 -0.5456
 8262TIP3    H248982   3.391   0.480  11.969  2.2253 -0.2167 -0.3629
 8263TIP3   OH248983   2.615   5.187  10.222 -0.0954  0.2565  0.0225
 8263TIP3    H148984   2.640   5.265  10.273 -0.0684 -0.8435  1.8034
 8263TIP3    H248985   2.696   5.158  10.181  0.1124  0.6042  0.1808
 8264TIP3   OH248986   4.692   5.705  10.068 -0.0096  0.5904  0.0804
 8264TIP3    H148987   4.704   5.654   9.987 -0.7397  0.1773  0.2287
 8264TIP3    H248988   4.673   5.640  10.135 -2.5103  1.1377 -0.0290
 8265TIP3   OH248989   5.356   2.234  13.107 -0.6199 -0.0777 -0.5675
 8265TIP3    H148990   5.392   2.229  13.195 -3.1342 -2.4137  0.4700
 8265TIP3    H248991   5.428   2.208  13.049  1.8515  3.8104  0.3721
 8266TIP3   OH248992   2.172   5.278  10.716 -0.9040 -0.9261  0.0697
 8266TIP3    H148993   2.232   5.226  10.770 -1.6798  0.0029  1.9219
 8266TIP3    H248994   2.228   5.317  10.648  0.2180 -1.6566  0.5459
 8267TIP3   OH248995   0.981   5.041  11.384  0.1395  0.1750 -0.3044
 8267TIP3    H148996   0.993   5.074  11.474 -0.4313  1.7082 -0.7626
 8267TIP3    H248997   1.042   5.093  11.332 -0.7517  0.5000 -1.0477
 8268TIP3   OH248998   1.524   4.557  10.368 -0.2749 -0.5620 -0.1365
 8268TIP3    H148999   1.433   4.548  10.340  0.4713 -0.0646 -2.9973
 8268TIP3    H249000   1.531   4.647  10.400 -0.5060 -0.1947 -1.1066
 8269TIP3   OH249001   4.620   5.844  11.941  0.0326 -0.0480  0.3926
 8269TIP3    H149002   4.558   5.890  11.999 -0.0388 -0.7733  0.9048
 8269TIP3    H249003   4.580   5.850  11.854  0.3654  1.4639  0.3205
 8270TIP3   OH249004   1.987   5.093   9.525 -0.6449  0.3989  0.5659
 8270TIP3    H149005   1.912   5.142   9.491 -0.8678  0.2428  0.8262
 8270TIP3    H249006   1.949   5.010   9.556 -0.3745  0.3428  0.7470
 8271TIP3   OH249007   5.509   5.732  11.884 -0.7162  0.0043 -0.2833
 8271TIP3    H149008   5.604   5.718  11.875 -0.3112  2.2230 -0.0940
 8271TIP3    H249009   5.477   5.652  11.925  0.9149 -1.1967 -1.2005
 8272TIP3   OH249010   4.975   1.061  10.842 -0.2537 -0.5439  0.1444
 8272TIP3    H149011   4.889   1.061  10.801  0.8232 -0.8951 -2.3220
 8272TIP3    H249012   4.990   1.152  10.867 -0.2622  0.1115 -2.0240
 8273TIP3   OH249013   1.792   0.052  10.594  0.5003 -0.6913 -0.4795
 8273TIP3    H149014   1.741   0.116  10.644 -0.0128 -1.2974 -0.2048
 8273TIP3    H249015   1.748   0.048  10.509  1.1229  0.0331 -0.8449
 8274TIP3   OH249016   2.157   0.360  11.097 -0.3805  0.1202  0.1945
 8274TIP3    H149017   2.209   0.304  11.038  0.0262 -0.5343  1.1552
 8274TIP3    H249018   2.164   0.447  11.058  0.4143 -0.1837 -0.3817
 8275TIP3   OH249019   6.098   1.254  11.678 -0.6706 -0.0686 -0.8398
 8275TIP3    H149020   6.145   1.327  11.638  0.3602  0.2792  0.8736
 8275TIP3    H249021   6.099   1.274  11.772  0.3827 -2.6404 -0.2037
 8276TIP3   OH249022   5.897   5.472  11.882 -0.1453 -0.5731 -0.0997
 8276TIP3    H149023   5.878   5.564  11.903  1.8092 -0.0842 -0.2446
 8276TIP3    H249024   5.816   5.426  11.900 -1.4830  1.3299 -0.9217
 8277TIP3   OH249025   4.747   5.129  11.378  0.0475 -0.1112  0.1514
 8277TIP3    H149026   4.748   5.167  11.466 -1.6142 -1.6715  0.9219
 8277TIP3    H249027   4.818   5.065  11.378 -0.3956 -0.6154  0.6347
 8278TIP3   OH249028   4.092   4.861  10.035 -0.2735 -0.2113 -0.1581
 8278TIP3    H149029   4.084   4.902  10.121 -1.6446  1.0125 -0.8207
 8278TIP3    H249030   4.144   4.782  10.050 -1.8216 -0.8964  2.0979
 8279TIP3   OH249031   6.502   3.407  11.787 -0.6312  0.3156  0.1723
 8279TIP3    H149032   6.571   3.428  11.850  0.6868  0.2739 -1.1892
 8279TIP3    H249033   6.535   3.441  11.703 -2.4671  0.6564 -0.4546
 8280TIP3   OH249034   4.940   5.642  12.638  0.1491  0.0957  0.4778
 8280TIP3    H149035   4.963   5.555  12.668  0.9712 -0.1514 -0.7806
 8280TIP3    H249036   4.846   5.650  12.655  0.5733  0.0841  3.2208
 8281TIP3   OH249037   3.856   4.647  11.136  0.3237  0.4141  0.0186
 8281TIP3    H149038   3.788   4.636  11.069  0.6577 -1.3324 -0.0740
 8281TIP3    H249039   3.861   4.562  11.179  1.7620  0.8179  0.6913
 8282TIP3   OH249040   6.199   4.883   9.405 -0.3494 -0.0233 -0.0293
 8282TIP3    H149041   6.156   4.911   9.485 -1.7690 -2.5427  0.1876
 8282TIP3    H249042   6.275   4.833   9.434 -1.7358 -2.3056 -0.1009
 8283TIP3   OH249043   2.625   0.996  10.747 -0.0199  0.1506  0.3174
 8283TIP3    H149044   2.544   1.017  10.792  0.4014  2.2577  0.1724
 8283TIP3    H249045   2.598   0.951  10.667 -0.9730  0.1319  0.6429
 8284TIP3   OH249046   3.017   5.297   9.839  0.0416  0.1606 -0.3315
 8284TIP3    H149047   2.951   5.236   9.807  0.0187  0.4375 -0.8074
 8284TIP3    H249048   3.096   5.276   9.788  0.5562 -0.6936  0.7599
 8285TIP3   OH249049   3.783   5.779  12.217 -0.3808 -0.6184  0.1436
 8285TIP3    H149050   3.746   5.777  12.129 -0.3263  1.6796  0.0060
 8285TIP3    H249051   3.737   5.709  12.264 -1.4889 -0.9010 -1.2958
 8286TIP3   OH249052   4.460   0.153  11.664 -0.0935 -0.0559  0.0713
 8286TIP3    H149053   4.372   0.150  11.701  0.7093 -1.2258  2.0187
 8286TIP3    H249054   4.486   0.245  11.671 -0.7798  0.1157  0.4212
 8287TIP3   OH249055   6.558   0.765   9.544 -0.0705  0.5429  0.3431
 8287TIP3    H149056   6.646   0.781   9.511 -1.0623  0.5201 -2.5855
 8287TIP3    H249057   6.521   0.852   9.559 -0.6814  0.7093 -1.8538
 8288TIP3   OH249058   3.104   1.771  11.341 -0.4872 -0.1379  0.0249
 8288TIP3    H149059   3.186   1.777  11.292 -0.1794 -0.0787  0.5461
 8288TIP3    H249060   3.104   1.847  11.399 -1.1670  0.1606 -0.3495
 8289TIP3   OH249061   3.593   5.447  11.098 -0.2592  0.1721 -0.1755
 8289TIP3    H149062   3.586   5.542  11.093 -0.7406  0.3857  2.6625
 8289TIP3    H249063   3.503   5.417  11.115  0.2290 -0.4675  1.5747
 8290TIP3   OH249064   0.574   4.211   9.209 -0.0823  0.0646 -0.2642
 8290TIP3    H149065   0.641   4.182   9.146 -0.3897  1.4728 -1.2871
 8290TIP3    H249066   0.623   4.261   9.274  0.3604 -2.0842  1.1640
 8291TIP3   OH249067   4.602   2.427   9.755 -0.0251  0.3732 -0.2260
 8291TIP3    H149068   4.650   2.509   9.740 -0.4910  0.6598 -0.1720
 8291TIP3    H249069   4.585   2.426   9.849 -0.5088  0.4923 -0.3093
 8292TIP3   OH249070   2.238   1.807   9.931 -0.1473 -0.2139 -0.1211
 8292TIP3    H149071   2.215   1.723   9.970  0.5806 -0.3168  0.1037
 8292TIP3    H249072   2.186   1.812   9.851 -0.9916 -0.4039  0.3960
 8293TIP3   OH249073   2.858   0.859  10.828  1.1175  0.8271  0.4945
 8293TIP3    H149074   2.771   0.882  10.796  0.7607 -0.0830  0.7648
 8293TIP3    H249075   2.855   0.875  10.922  0.6156 -0.9225  0.8219
 8294TIP3   OH249076   3.316   1.965  11.849  0.0921  0.3040  0.3387
 8294TIP3    H149077   3.231   1.997  11.879  0.4451  1.3173  0.3026
 8294TIP3    H249078   3.305   1.952  11.755 -0.2979 -0.5176  0.4872
 8295TIP3   OH249079   4.119   4.892  10.738 -0.1838 -0.1197  0.1918
 8295TIP3    H149080   4.081   4.838  10.807 -0.2554  0.4784  0.6289
 8295TIP3    H249081   4.065   4.971  10.736 -1.5255 -1.0045 -2.0174
 8296TIP3   OH249082   2.495   6.265  10.238 -0.2213  0.0394 -0.0848
 8296TIP3    H149083   2.564   6.199  10.242  0.3384  0.5060 -1.4556
 8296TIP3    H249084   2.537   6.342  10.199 -1.5876  0.2204 -1.2962
 8297TIP3   OH249085   3.305   6.079   9.798  0.5172 -0.5605  0.3716
 8297TIP3    H149086   3.246   6.062   9.724  0.6507 -0.6933  0.2935
 8297TIP3    H249087   3.392   6.057   9.764  0.6284 -0.2249  0.4414
 8298TIP3   OH249088   5.857   4.609  10.725  0.2828  0.0047  0.0922
 8298TIP3    H149089   5.932   4.664  10.747  0.2371  0.0505  0.1342
 8298TIP3    H249090   5.894   4.535  10.677  0.2299  0.6300 -0.9414
 8299TIP3   OH249091   6.687   0.689  11.837 -0.4450 -0.3103  0.2404
 8299TIP3    H149092   6.780   0.668  11.840 -0.2850  0.1042 -1.0216
 8299TIP3    H249093   6.651   0.653  11.918  0.9338  0.1405  1.0880
 8300TIP3   OH249094   0.988   3.850  10.228 -0.7320  0.3462  0.4082
 8300TIP3    H149095   1.058   3.820  10.286  0.7823 -0.0382 -1.4960
 8300TIP3    H249096   0.921   3.782  10.233  1.3694 -2.0938 -1.6108
 8301TIP3   OH249097   1.757   2.734   9.302  0.3320  0.5021 -0.8651
 8301TIP3    H149098   1.716   2.817   9.328 -3.9415 -0.9953 -1.9886
 8301TIP3    H249099   1.817   2.758   9.232  0.3324  2.7644 -0.1824
 8302TIP3   OH249100   1.507   6.113  11.078 -0.1014  0.3191 -0.4574
 8302TIP3    H149101   1.546   6.034  11.042  1.2149  1.7405 -2.3960
 8302TIP3    H249102   1.535   6.183  11.018 -1.1321  2.2665  1.1945
 8303TIP3   OH249103   2.606   4.678  10.409  0.6257  0.3420  0.0750
 8303TIP3    H149104   2.666   4.665  10.483 -0.6864 -1.6911  0.8929
 8303TIP3    H249105   2.521   4.649  10.443 -0.2842  0.6078 -1.8571
 8304TIP3   OH249106   5.456   5.720  10.030  0.4591 -0.2338  0.8997
 8304TIP3    H149107   5.478   5.813  10.036 -1.7270  0.2444  4.2695
 8304TIP3    H249108   5.395   5.714   9.956  1.0347  0.8739  0.3097
 8305TIP3   OH249109   0.332   0.626  11.321  0.3708 -0.4158  0.2179
 8305TIP3    H149110   0.402   0.576  11.362  0.8670 -0.4148 -0.6002
 8305TIP3    H249111   0.350   0.620  11.227  0.4497  1.3046  0.0863
 8306TIP3   OH249112   0.652   6.106   9.936  0.3569  0.3931 -0.1803
 8306TIP3    H149113   0.708   6.087  10.011 -1.1740  0.4432  1.0185
 8306TIP3    H249114   0.711   6.102   9.861  1.8176 -0.2628  0.9496
 8307TIP3   OH249115   1.721   5.293   8.987 -0.1694 -0.0513  0.0170
 8307TIP3    H149116   1.791   5.231   9.004  0.2781  0.5583  0.4659
 8307TIP3    H249117   1.727   5.311   8.893 -1.1367 -1.6497 -0.3811
 8308TIP3   OH249118   4.780   6.205  11.252 -1.0062  0.4204  0.7466
 8308TIP3    H149119   4.756   6.184  11.161 -0.9847 -2.2139  1.2525
 8308TIP3    H249120   4.871   6.232  11.247 -0.7006 -0.6440  0.0512
 8309TIP3   OH249121   1.314   4.473   9.484 -0.6524  0.2161  0.0486
 8309TIP3    H149122   1.394   4.512   9.519 -0.6158  1.5970 -1.4428
 8309TIP3    H249123   1.297   4.398   9.540  1.2622  0.3442  0.8669
 8310TIP3   OH249124   2.778   2.157   9.868  0.0263  0.3068 -0.8610
 8310TIP3    H149125   2.689   2.170   9.900  0.0391 -0.4622 -0.5012
 8310TIP3    H249126   2.790   2.062   9.866  0.8804  0.3996 -0.7905
 8311TIP3   OH249127   3.493   5.883  11.697 -0.4639  0.1710 -0.2320
 8311TIP3    H149128   3.429   5.899  11.766  1.2497 -0.8799  1.7205
 8311TIP3    H249129   3.442   5.882  11.616 -2.8835 -0.5535  1.2070
 8312TIP3   OH249130   4.190   4.586  10.039  0.2256 -0.5781  0.4505
 8312TIP3    H149131   4.263   4.552  10.091  1.6569  0.6192 -0.7151
 8312TIP3    H249132   4.128   4.513  10.035  1.3026 -1.6031  1.5264
 8313TIP3   OH249133   4.969   3.195  11.102  0.2783 -0.0931 -0.4422
 8313TIP3    H149134   4.916   3.242  11.037  0.7570 -0.6814 -1.2688
 8313TIP3    H249135   4.929   3.219  11.186  0.2556  1.4557 -0.8613
 8314TIP3   OH249136   6.321   3.758  11.191  0.5211 -0.0571  0.7471
 8314TIP3    H149137   6.348   3.847  11.169  0.7487 -0.1964  0.4496
 8314TIP3    H249138   6.226   3.764  11.202  0.3320 -0.0485 -0.6621
 8315TIP3   OH249139   5.868   1.454  11.845 -0.2316 -0.1598 -0.0992
 8315TIP3    H149140   5.962   1.441  11.853  0.0262  1.6645  0.2732
 8315TIP3    H249141   5.833   1.367  11.824  1.3092 -1.2484  1.5201
 8316TIP3   OH249142   2.856   1.855   9.804  0.0825  0.1064 -0.3863
 8316TIP3    H149143   2.843   1.817   9.718 -1.0805  0.7218 -0.5046
 8316TIP3    H249144   2.933   1.809   9.840 -0.8660 -1.8638 -0.7669
 8317TIP3   OH249145   1.355   4.818  12.572 -0.0428 -0.3767 -0.6292
 8317TIP3    H149146   1.419   4.830  12.503  2.9342  0.3203  2.0400
 8317TIP3    H249147   1.391   4.749  12.628 -2.1028 -0.6532  0.4822
 8318TIP3   OH249148   1.094   0.369  11.502  0.2381  0.4946  0.4517
 8318TIP3    H149149   1.073   0.389  11.411 -1.3890 -2.7620 -0.0210
 8318TIP3    H249150   1.032   0.301  11.527  2.7016 -1.0712  2.9543
 8319TIP3   OH249151   0.006   0.330  11.491 -0.0841 -0.5378  0.0039
 8319TIP3    H149152  -0.055   0.398  11.521  0.3725 -0.7648  1.5599
 8319TIP3    H249153   0.081   0.338  11.550  0.4915 -1.6179 -0.5509
 8320TIP3   OH249154   5.764   6.350   9.487  0.3394 -0.1597 -0.3516
 8320TIP3    H149155   5.672   6.374   9.490  0.5046  0.3655  0.7739
 8320TIP3    H249156   5.809   6.420   9.533  1.3612 -0.1914 -1.2568
 8321TIP3   OH249157   0.637   4.210  10.610 -0.0211  0.4982 -0.5275
 8321TIP3    H149158   0.661   4.133  10.661  0.7153 -0.4160 -2.1943
 8321TIP3    H249159   0.628   4.280  10.675 -1.1743 -1.0660  1.0861
 8322TIP3   OH249160   3.478   3.251  11.604  0.0352 -0.1861 -0.0521
 8322TIP3    H149161   3.571   3.240  11.626  0.2280  0.8570 -0.2935
 8322TIP3    H249162   3.443   3.304  11.675 -0.1035  0.3965 -0.5451
 8323TIP3   OH249163   2.479   3.500  12.687 -0.0855  0.3731  0.3220
 8323TIP3    H149164   2.512   3.589  12.689 -1.5411  1.1959 -3.3584
 8323TIP3    H249165   2.384   3.509  12.698 -0.2651 -0.6893 -0.2282
 8324TIP3   OH249166   0.082   0.015  10.951 -0.1590 -1.0882  0.2025
 8324TIP3    H149167   0.007   0.045  11.003  0.2980 -0.4875  0.5231
 8324TIP3    H249168   0.065  -0.077  10.936  0.1880 -1.5446  2.2962
 8325TIP3   OH249169   2.771   4.131   9.091 -0.1820  0.7503  0.0845
 8325TIP3    H149170   2.812   4.088   9.016 -3.0557 -1.3494 -0.4769
 8325TIP3    H249171   2.826   4.106   9.166  1.1946  0.5537 -0.9598
 8326TIP3   OH249172   5.879   0.346  11.015  0.1583 -0.0617 -0.1891
 8326TIP3    H149173   5.793   0.302  11.012  0.2437 -0.2976  0.5575
 8326TIP3    H249174   5.860   0.437  10.992 -0.2174 -0.2149 -0.5086
 8327TIP3   OH249175   1.570   2.003  11.872  0.3709  0.3732 -0.1340
 8327TIP3    H149176   1.610   1.983  11.787  0.2416  0.2366 -0.1641
 8327TIP3    H249177   1.594   2.094  11.889 -1.1823  1.0098 -1.1963
 8328TIP3   OH249178   5.845   2.780  11.140  0.7009  0.4938  0.4859
 8328TIP3    H149179   5.929   2.819  11.165  1.9592 -2.0523  0.5694
 8328TIP3    H249180   5.828   2.714  11.207 -0.4186 -0.2910 -0.5327
 8329TIP3   OH249181   5.213   3.919   9.166  0.0036 -0.2312  0.7479
 8329TIP3    H149182   5.178   3.986   9.225  0.5056 -0.1430  0.9595
 8329TIP3    H249183   5.256   3.969   9.096 -0.5202 -0.3356  0.3444
 8330TIP3   OH249184   2.378   0.378  10.325  0.6568  0.0977 -0.4663
 8330TIP3    H149185   2.427   0.404  10.403  1.3812  0.5223 -1.0522
 8330TIP3    H249186   2.353   0.461  10.284  0.2529 -0.1255 -0.6789
 8331TIP3   OH249187   1.798   6.395  12.461  0.6710  0.1781 -0.2170
 8331TIP3    H149188   1.735   6.455  12.501 -0.1274 -1.2248  0.7395
 8331TIP3    H249189   1.798   6.417  12.368  1.9412  2.9882  0.3550
 8332TIP3   OH249190   5.729   0.611  10.981 -0.4009 -0.0396  0.1205
 8332TIP3    H149191   5.702   0.638  11.068  0.3748 -0.6412  0.5618
 8332TIP3    H249192   5.796   0.674  10.955  1.6286 -1.5911  1.2743
 8333TIP3   OH249193   4.991   2.050  11.760 -0.2456 -0.0901 -0.1476
 8333TIP3    H149194   5.004   2.122  11.698  0.8307 -0.5071 -0.4182
 8333TIP3    H249195   5.055   2.065  11.829 -0.7195 -0.2260  0.3324
 8334TIP3   OH249196   3.938   4.716  12.380 -0.1096  0.8196 -0.0410
 8334TIP3    H149197   3.917   4.622  12.379 -1.9815  1.1957 -1.3517
 8334TIP3    H249198   4.029   4.720  12.411 -0.2913 -1.3417  0.9439
 8335TIP3   OH249199   3.309   0.662  10.434  0.4046 -0.0297  0.0284
 8335TIP3    H149200   3.349   0.596  10.378 -0.9609  0.7374 -1.9376
 8335TIP3    H249201   3.223   0.626  10.457 -0.0776  0.7553 -0.5059
 8336TIP3   OH249202   3.275   4.612  20.521 -0.3681  0.0091  0.6079
 8336TIP3    H149203   3.296   4.525  20.556 -0.9538 -0.1942  0.4739
 8336TIP3    H249204   3.188   4.631  20.557 -0.4622  0.3164  0.2210
 8337TIP3   OH249205   6.166   0.227  10.566  0.2921 -0.2329 -0.2205
 8337TIP3    H149206   6.151   0.242  10.472  0.3548 -0.0028 -0.1957
 8337TIP3    H249207   6.165   0.132  10.576 -0.5871 -0.2392 -0.3161
 8338TIP3   OH249208   4.383   3.292  11.517  0.5176  0.4415  0.1293
 8338TIP3    H149209   4.296   3.255  11.501  0.6013 -0.1124  0.8997
 8338TIP3    H249210   4.400   3.276  11.610  0.8986  1.7349  0.3007
 8339TIP3   OH249211   1.126   3.866  12.783 -0.5001  0.1026 -0.5863
 8339TIP3    H149212   1.211   3.909  12.794 -0.8604  0.3444  1.5497
 8339TIP3    H249213   1.081   3.879  12.866 -2.4713 -0.4209 -1.5090
 8340TIP3   OH249214   5.389   0.053  12.435 -0.1327  0.0908  0.0130
 8340TIP3    H149215   5.415   0.136  12.474 -1.2559 -0.1542  1.3643
 8340TIP3    H249216   5.307   0.030  12.479 -1.3130 -0.3876 -2.2749
 8341TIP3   OH249217   1.775   1.937   9.591  0.6724 -0.3929 -0.6027
 8341TIP3    H149218   1.699   1.927   9.649  0.7507  0.3429 -0.3650
 8341TIP3    H249219   1.742   1.987   9.517  1.3747  1.8020  0.4726
 8342TIP3   OH249220   2.924   3.998   9.497  0.1753 -0.3995 -0.9116
 8342TIP3    H149221   2.966   4.084   9.490  2.1319 -1.3216 -1.3834
 8342TIP3    H249222   2.955   3.950   9.420 -0.1594 -1.7977 -0.2095
 8343TIP3   OH249223   5.798   2.404   9.032 -0.6016  0.2448 -0.1558
 8343TIP3    H149224   5.708   2.387   9.058 -0.4389  0.5034  0.6199
 8343TIP3    H249225   5.846   2.326   9.061 -0.1831  1.1150  1.6348
 8344TIP3   OH249226   5.623   3.310   9.362  0.0680 -0.3327  0.3283
 8344TIP3    H149227   5.689   3.260   9.315 -0.3352  0.2363 -0.8858
 8344TIP3    H249228   5.586   3.369   9.296  0.2546  1.2865  1.5958
 8345TIP3   OH249229   5.171   0.397  11.101 -0.3174 -0.3126  0.3423
 8345TIP3    H149230   5.163   0.406  11.196 -0.8307 -0.9189  0.3594
 8345TIP3    H249231   5.244   0.336  11.088 -0.3609 -0.3660  0.3494
 8346TIP3   OH249232   4.111   1.840  10.463  0.5002  0.3981 -0.1980
 8346TIP3    H149233   4.022   1.841  10.499  0.7220 -1.7188  0.5656
 8346TIP3    H249234   4.099   1.826  10.369  0.0165 -1.3003  0.0914
 8347TIP3   OH249235   1.328   2.067  11.104  0.1645  0.0989  0.6486
 8347TIP3    H149236   1.292   2.123  11.173  0.9543  2.3932 -0.7007
 8347TIP3    H249237   1.420   2.057  11.127 -0.0067 -0.8629  0.9767
 8348TIP3   OH249238   3.790   0.276  19.386 -0.2054  0.1612 -0.2631
 8348TIP3    H149239   3.705   0.316  19.402  0.5367  1.2060  1.3731
 8348TIP3    H249240   3.834   0.277  19.471  1.3425 -0.6156 -0.9968
 8349TIP3   OH249241   3.674   0.793  10.544 -0.0498  0.5015  0.0172
 8349TIP3    H149242   3.695   0.712  10.498 -0.0545 -0.0936  1.0418
 8349TIP3    H249243   3.580   0.804  10.529 -0.2274 -0.1507  0.5746
 8350TIP3   OH249244   6.587   1.197   9.390  0.2095  0.1770 -0.0247
 8350TIP3    H149245   6.546   1.134   9.330 -0.1204 -0.1441  0.5369
 8350TIP3    H249246   6.623   1.265   9.332  1.3603 -0.9681 -0.7070
 8351TIP3   OH249247   0.946   2.528  11.320 -0.0216  0.4254  0.3644
 8351TIP3    H149248   0.933   2.448  11.270 -0.9952 -0.6096  2.1608
 8351TIP3    H249249   0.887   2.591  11.280 -0.2096 -0.1354 -0.2610
 8352TIP3   OH249250   5.696   2.200  11.012  0.0012  0.4626 -0.8116
 8352TIP3    H149251   5.668   2.137  11.078  0.3096  1.4105  0.2625
 8352TIP3    H249252   5.708   2.282  11.060  0.5573  1.1075 -1.9873
 8353TIP3   OH249253   4.006   1.230  10.002  0.5961 -0.3203  0.2249
 8353TIP3    H149254   4.091   1.272   9.991  1.5664 -2.0599  0.7716
 8353TIP3    H249255   4.008   1.191  10.089 -2.1745  2.5543  1.8202
 8354TIP3   OH249256   5.994   0.547   9.927  0.6370  0.6105  0.0457
 8354TIP3    H149257   6.026   0.623   9.879 -0.8038  1.3295  0.1744
 8354TIP3    H249258   5.912   0.576   9.966  0.0631 -1.0042  0.1135
 8355TIP3   OH249259   1.212   6.368   9.866  0.7063  0.4117 -0.7808
 8355TIP3    H149260   1.283   6.305   9.852  0.8060  0.2359  0.4492
 8355TIP3    H249261   1.191   6.361   9.959 -0.3406  1.0905 -0.9520
 8356TIP3   OH249262   0.365   2.644  10.999  0.5722  0.3087  0.1767
 8356TIP3    H149263   0.426   2.685  10.937 -0.3935  0.4520 -0.7090
 8356TIP3    H249264   0.285   2.696  10.992 -0.0462 -0.5844  0.4491
 8357TIP3   OH249265   6.425   5.919  11.576  0.2345 -0.0181  0.4119
 8357TIP3    H149266   6.432   6.014  11.570 -0.9026  0.1152  0.8837
 8357TIP3    H249267   6.331   5.901  11.567  0.4274 -1.0907  0.3724
 8358TIP3   OH249268   4.483   1.845  11.804 -0.4712  0.1887 -0.1280
 8358TIP3    H149269   4.421   1.905  11.762 -0.1124 -1.2043 -2.8334
 8358TIP3    H249270   4.552   1.832  11.740  0.1671 -2.0356  0.9031
 8359TIP3   OH249271   4.182   0.258  10.058 -0.2541  0.0880  0.1191
 8359TIP3    H149272   4.103   0.291  10.015 -1.4877  1.7231  3.3219
 8359TIP3    H249273   4.254   0.300  10.009 -1.4822  1.0795 -0.9194
 8360TIP3   OH249274   4.387   5.594  11.758 -0.5477 -0.3651  0.2072
 8360TIP3    H149275   4.445   5.645  11.701 -1.1206 -1.9231 -1.9154
 8360TIP3    H249276   4.443   5.568  11.832  0.3679  1.3163  0.1538
 8361TIP3   OH249277   5.563   6.250  10.169 -0.5838  0.6164 -0.2227
 8361TIP3    H149278   5.634   6.312  10.150 -0.4489  0.8376  0.9058
 8361TIP3    H249279   5.601   6.189  10.232 -1.5058  0.9707  0.6969
 8362TIP3   OH249280   0.289   2.667   9.063 -0.4762 -0.2471  0.7411
 8362TIP3    H149281   0.374   2.679   9.020 -1.4560 -0.5128 -1.3935
 8362TIP3    H249282   0.256   2.756   9.077 -0.1370 -0.1564  0.9733
 8363TIP3   OH249283   1.820   3.825   9.775  0.1607 -0.2633 -0.6407
 8363TIP3    H149284   1.750   3.890   9.774  1.2165  0.8854 -1.2563
 8363TIP3    H249285   1.777   3.744   9.747 -0.9635  0.3644 -0.7893
 8364TIP3   OH249286   2.517   4.980   9.502 -0.2088  0.6088 -0.4017
 8364TIP3    H149287   2.612   4.988   9.509 -0.0328 -0.1194 -1.5992
 8364TIP3    H249288   2.484   5.014   9.585  1.0812  1.0332 -0.0301
 8365TIP3   OH249289   1.874   4.306  10.672 -0.2602  0.4030 -0.2087
 8365TIP3    H149290   1.861   4.347  10.586 -0.2165 -1.5929 -1.2180
 8365TIP3    H249291   1.789   4.268  10.694 -0.4595  1.4929  0.9900
 8366TIP3   OH249292   6.691   2.261  12.212 -0.1348 -0.7941  0.0434
 8366TIP3    H149293   6.677   2.260  12.307 -2.5810 -0.7195 -0.2409
 8366TIP3    H249294   6.687   2.169  12.186  1.1458 -0.8671  0.0599
 8367TIP3   OH249295   0.163   3.875  11.045  0.4787 -0.3139 -0.0981
 8367TIP3    H149296   0.123   3.937  10.984 -0.3099  0.2034  0.9238
 8367TIP3    H249297   0.212   3.930  11.107 -2.1888 -0.4259  2.2875
 8368TIP3   OH249298   5.666   4.102  11.391 -0.1518 -0.7609  0.7492
 8368TIP3    H149299   5.691   4.113  11.483 -1.1139 -1.3234  1.0847
 8368TIP3    H249300   5.571   4.107  11.391 -0.1108  1.0767 -0.4852
 8369TIP3   OH249301   2.176   4.726  10.844 -0.2561 -0.7440 -0.2267
 8369TIP3    H149302   2.161   4.815  10.811  0.9292 -0.3128  0.3535
 8369TIP3    H249303   2.088   4.694  10.865 -0.7682  0.0308 -1.0845
 8370TIP3   OH249304   5.002   5.129  10.224 -0.5906 -0.0447 -0.0784
 8370TIP3    H149305   5.032   5.062  10.287 -1.6638  1.1579  1.8150
 8370TIP3    H249306   5.046   5.209  10.252 -2.2176  0.8257  0.0942
 8371TIP3   OH249307   2.459   4.227   9.951 -0.0579  0.3770  0.2198
 8371TIP3    H149308   2.466   4.318   9.921 -0.3778  0.0066 -1.0158
 8371TIP3    H249309   2.543   4.188   9.929 -0.1681  0.1939  0.1187
 8372TIP3   OH249310   3.003   0.302  11.077 -0.0649 -0.1754  0.2123
 8372TIP3    H149311   3.097   0.319  11.089  0.3880  0.1446 -2.8508
 8372TIP3    H249312   2.997   0.269  10.987 -2.9095 -0.2584  0.3616
 8373TIP3   OH249313   6.348   6.178  11.583  0.3956 -0.3014  0.3712
 8373TIP3    H149314   6.253   6.172  11.593  0.4153  0.4373  1.0714
 8373TIP3    H249315   6.369   6.270  11.599  1.3302 -0.6368  1.1842
 8374TIP3   OH249316   0.699   3.103  11.462  0.5258  0.1858 -0.2354
 8374TIP3    H149317   0.612   3.140  11.451  0.2724 -0.3759 -0.1721
 8374TIP3    H249318   0.758   3.167  11.423  0.1389  0.8431  0.2445
 8375TIP3   OH249319   0.129   2.049  10.126  0.3217  0.2080  0.0902
 8375TIP3    H149320   0.219   2.079  10.137  0.0227  1.4109 -0.4851
 8375TIP3    H249321   0.091   2.111  10.063 -0.3695 -1.4006 -1.1511
 8376TIP3   OH249322   0.476   6.011  10.143 -0.3530  0.2428  0.2729
 8376TIP3    H149323   0.496   5.921  10.169 -0.4418  0.3254  0.6239
 8376TIP3    H249324   0.534   6.027  10.068 -0.8555 -0.3496 -0.2506
 8377TIP3   OH249325   2.489   4.200   9.075  0.5009 -0.2092  0.0217
 8377TIP3    H149326   2.573   4.175   9.111  0.0194 -0.0771  1.2735
 8377TIP3    H249327   2.510   4.262   9.004  1.4284  0.2063  0.6459
 8378TIP3   OH249328   2.665   1.711  12.257 -0.2867  0.0198 -0.0290
 8378TIP3    H149329   2.741   1.754  12.298 -0.3755 -1.3222  1.6672
 8378TIP3    H249330   2.662   1.625  12.298 -1.7601 -0.5634 -1.3020
 8379TIP3   OH249331   4.302   5.704  11.255  0.3500  0.1141  0.0640
 8379TIP3    H149332   4.350   5.632  11.214 -0.2530  0.3846 -1.1470
 8379TIP3    H249333   4.211   5.673  11.258 -0.0470  1.1219 -1.1817
 8380TIP3   OH249334   4.855   4.096  10.723 -0.9881 -0.0904 -0.0656
 8380TIP3    H149335   4.794   4.023  10.710 -1.3006 -0.2426  1.9177
 8380TIP3    H249336   4.891   4.082  10.811  1.1754  0.5604 -0.7650
 8381TIP3   OH249337   2.285   5.530  11.446  0.3564  0.2009  0.3254
 8381TIP3    H149338   2.304   5.568  11.361  1.0168  1.0304  0.8274
 8381TIP3    H249339   2.316   5.440  11.440  2.9031  1.0040  0.5266
 8382TIP3   OH249340   0.506   2.233  10.969 -0.3378 -0.1331 -0.0523
 8382TIP3    H149341   0.546   2.274  10.892 -0.6762  1.0268  0.3737
 8382TIP3    H249342   0.417   2.268  10.971 -0.5736 -0.7405  0.4570
 8383TIP3   OH249343   1.250   4.742  10.108 -0.3237 -0.4581 -0.9366
 8383TIP3    H149344   1.311   4.795  10.160 -1.6928 -1.1357  1.4891
 8383TIP3    H249345   1.181   4.803  10.083  1.1092  0.2679 -3.5408
 8384TIP3   OH249346   3.503   2.591  12.142 -0.3008 -0.4780  0.4220
 8384TIP3    H149347   3.549   2.519  12.185 -0.8191 -0.5323  0.8968
 8384TIP3    H249348   3.450   2.631  12.211 -0.5497 -0.0722  0.0076
 8385TIP3   OH249349   0.786   6.330   9.436  0.2575 -0.4307  0.3057
 8385TIP3    H149350   0.876   6.300   9.419 -0.1293 -1.4676 -0.0264
 8385TIP3    H249351   0.743   6.325   9.350 -1.2011 -3.8540  1.0748
 8386TIP3   OH249352   0.421   6.679  10.365 -0.3106  0.6825 -0.3337
 8386TIP3    H149353   0.336   6.713  10.337  0.0238  0.6085 -1.4719
 8386TIP3    H249354   0.481   6.754  10.356  0.2257  0.0950 -1.8888
 8387TIP3   OH249355   0.283   0.787  12.241  0.0130 -0.3940 -0.0583
 8387TIP3    H149356   0.194   0.819  12.260 -0.0183  0.2233 -1.1744
 8387TIP3    H249357   0.340   0.848  12.288 -0.1429 -0.7454  0.5983
 8388TIP3   OH249358   4.790   5.856  11.135  0.1517 -0.3109  0.0609
 8388TIP3    H149359   4.770   5.916  11.064  0.8537  0.6357  0.6406
 8388TIP3    H249360   4.738   5.888  11.209 -0.2433 -1.0255  0.1059
 8389TIP3   OH249361   1.718   5.788  11.813  0.5060  0.4276  0.3046
 8389TIP3    H149362   1.672   5.853  11.865  0.7587  1.2882 -0.5108
 8389TIP3    H249363   1.731   5.831  11.728  0.4547 -0.7819 -0.3325
 8390TIP3   OH249364   2.171   2.565   9.945  0.6365 -0.0242  0.5259
 8390TIP3    H149365   2.134   2.489   9.991 -0.1010 -0.8990 -1.4144
 8390TIP3    H249366   2.251   2.586   9.994  0.7133 -1.8723  1.2628
 8391TIP3   OH249367   1.018   2.429  12.122  0.4043  0.3626  0.3018
 8391TIP3    H149368   1.111   2.445  12.136  0.5644  0.1683 -0.4827
 8391TIP3    H249369   0.987   2.392  12.204  1.4784 -1.5913 -0.1110
 8392TIP3   OH249370   2.840   2.864  11.729  0.0496 -0.2941 -0.2093
 8392TIP3    H149371   2.888   2.868  11.812  2.0453  0.3533 -1.3311
 8392TIP3    H249372   2.883   2.793  11.681  0.9198  1.2567 -1.8213
 8393TIP3   OH249373   0.476   2.419  11.839 -0.0071  0.1219  0.0419
 8393TIP3    H149374   0.571   2.429  11.844 -0.0288 -0.2639  1.9303
 8393TIP3    H249375   0.454   2.440  11.748  1.7786  1.0381 -0.2114
 8394TIP3   OH249376   2.897   1.871  10.752  0.2947  0.1698 -0.3394
 8394TIP3    H149377   2.869   1.957  10.723 -0.1655  0.5895  1.2568
 8394TIP3    H249378   2.985   1.860  10.717 -0.2616  0.5938 -1.9092
 8395TIP3   OH249379   2.224   3.706   9.672 -0.1741  0.3354  0.2417
 8395TIP3    H149380   2.208   3.626   9.722  2.2633 -0.3821  0.0099
 8395TIP3    H249381   2.317   3.724   9.685 -0.4270  2.5301 -0.6102
 8396TIP3   OH249382   4.342   5.838   9.944  0.6539 -0.8741  0.1696
 8396TIP3    H149383   4.411   5.885   9.896 -0.1865 -0.7288 -0.9395
 8396TIP3    H249384   4.348   5.871  10.033 -0.0533  1.5412 -0.5971
 8397TIP3   OH249385   4.546   2.807  10.447  0.0609 -0.7281 -0.4009
 8397TIP3    H149386   4.568   2.883  10.502  1.4974 -0.5647 -1.1632
 8397TIP3    H249387   4.615   2.804  10.381 -1.3795 -1.1922 -1.9553
 8398TIP3   OH249388   0.691   4.377  12.428 -0.1895  0.0164 -0.0921
 8398TIP3    H149389   0.627   4.448  12.424 -0.6996 -0.2255  2.3599
 8398TIP3    H249390   0.639   4.297  12.433  0.3261 -0.3026  0.2687
 8399TIP3   OH249391   4.598   3.607  10.747 -0.1374  0.1343 -0.1006
 8399TIP3    H149392   4.667   3.573  10.690 -0.8823 -0.2666 -0.7897
 8399TIP3    H249393   4.528   3.541  10.741 -0.6394  0.6111  0.4508
 8400TIP3   OH249394   3.401   6.712  12.052 -0.3505  0.1331 -0.5874
 8400TIP3    H149395   3.348   6.723  12.132  0.3659 -3.0240  0.4826
 8400TIP3    H249396   3.390   6.620  12.029  2.5995 -0.0090 -1.8456
 8401TIP3   OH249397   4.545   1.572  11.499 -0.2661 -0.1469 -0.4155
 8401TIP3    H149398   4.579   1.497  11.449  1.5901  0.0833  0.4061
 8401TIP3    H249399   4.538   1.642  11.434 -0.4953 -0.5937 -0.8788
 8402TIP3   OH249400   3.376   4.018  12.450 -0.0404 -0.0885  0.0932
 8402TIP3    H149401   3.420   3.937  12.423 -0.7402  0.4847 -3.1824
 8402TIP3    H249402   3.445   4.084  12.450 -0.2708  0.2470 -2.2842
 8403TIP3   OH249403   3.397   2.738  11.280 -0.2126 -0.4581 -0.1945
 8403TIP3    H149404   3.337   2.752  11.353 -1.0612 -1.6084 -0.6299
 8403TIP3    H249405   3.445   2.659  11.304  1.4034  0.6207  0.2918
 8404TIP3   OH249406   3.173   2.264  11.944  0.9505 -0.3884  0.3776
 8404TIP3    H149407   3.113   2.189  11.935  0.8421 -0.1413 -1.0703
 8404TIP3    H249408   3.160   2.315  11.865  1.8763  0.5630  0.8210
 8405TIP3   OH249409   2.875   0.476   9.669 -0.1680  0.2966  0.2177
 8405TIP3    H149410   2.845   0.563   9.644 -1.1156  0.4857  1.8791
 8405TIP3    H249411   2.890   0.482   9.763  1.0715 -0.9830  0.1318
 8406TIP3   OH249412   2.017   1.020  10.429  0.4309  0.1372  0.3202
 8406TIP3    H149413   2.064   1.077  10.489  2.5658 -0.7452 -0.4129
 8406TIP3    H249414   1.963   0.965  10.485  0.1189  1.2899  1.1871
 8407TIP3   OH249415   4.742   1.057   9.567 -0.1277 -0.1472 -0.4866
 8407TIP3    H149416   4.830   1.060   9.605 -0.3332  1.3956 -0.0685
 8407TIP3    H249417   4.736   1.138   9.515 -0.8149 -0.9111 -1.6507
 8408TIP3   OH249418   1.750   6.428   9.441  0.2967  0.1893 -0.1105
 8408TIP3    H149419   1.786   6.475   9.517 -1.0759  0.1056  0.6325
 8408TIP3    H249420   1.791   6.341   9.445  1.1344  0.5726 -0.1698
 8409TIP3   OH249421   4.012   6.238  10.273  0.0665  0.0839 -0.0735
 8409TIP3    H149422   3.962   6.287  10.339 -1.1929 -2.3343  0.8836
 8409TIP3    H249423   3.946   6.186  10.227  1.2663 -0.2428 -1.5098
 8410TIP3   OH249424   5.823   4.279   9.993 -0.7231  0.3696 -0.6129
 8410TIP3    H149425   5.827   4.204   9.933  0.4694 -0.1962  0.1290
 8410TIP3    H249426   5.838   4.355   9.937  2.8393 -0.3109 -0.7924
 8411TIP3   OH249427   2.131   3.954   9.394 -0.0074 -0.0430  0.0265
 8411TIP3    H149428   2.186   3.912   9.461 -1.1056 -1.4091  0.1024
 8411TIP3    H249429   2.069   3.887   9.368 -0.3895  0.8618 -1.5032
 8412TIP3   OH249430   3.918   3.510   9.520 -0.1748 -0.0712  0.3579
 8412TIP3    H149431   3.942   3.576   9.456  1.1050 -2.2831 -1.6300
 8412TIP3    H249432   3.844   3.465   9.481  0.7542 -1.5877  0.2484
 8413TIP3   OH249433   1.336   5.177  10.012 -0.2742 -0.0419 -0.0489
 8413TIP3    H149434   1.270   5.159   9.945  0.4251  0.5457 -0.9396
 8413TIP3    H249435   1.420   5.165   9.966  0.2261  0.9415  0.5581
 8414TIP3   OH249436   4.677   3.988  11.185 -0.5341 -0.2882 -0.5884
 8414TIP3    H149437   4.632   3.949  11.260 -0.1498 -0.1727 -0.2927
 8414TIP3    H249438   4.654   3.931  11.112  0.0577 -1.1247 -0.1576
 8415TIP3   OH249439   4.487   5.073  11.882  0.2290  0.2132 -0.1040
 8415TIP3    H149440   4.535   5.122  11.816  1.3915  0.7746  1.1115
 8415TIP3    H249441   4.520   4.984  11.875  0.9619  0.4469  0.2453
 8416TIP3   OH249442   0.117   5.553  10.287  0.2000 -0.0424 -0.0677
 8416TIP3    H149443   0.150   5.484  10.230  1.6582  1.5431 -1.2547
 8416TIP3    H249444   0.051   5.597  10.235  0.7158  0.6939 -0.1147
 8417TIP3   OH249445   1.713   4.878  10.166  0.1113  0.4153 -0.6260
 8417TIP3    H149446   1.778   4.830  10.218 -0.1174  0.4419 -0.3120
 8417TIP3    H249447   1.723   4.843  10.077  0.2429  0.0921 -0.4875
 8418TIP3   OH249448   5.905   1.748  10.095  0.1049  0.0222  0.3217
 8418TIP3    H149449   5.985   1.795  10.120 -0.2091  0.9683 -0.3979
 8418TIP3    H249450   5.900   1.675  10.157  0.7106  0.8185  1.3417
 8419TIP3   OH249451   5.335   1.997  10.968 -0.1638 -0.0436 -0.2400
 8419TIP3    H149452   5.241   1.994  10.948  0.0370 -1.0259 -1.1283
 8419TIP3    H249453   5.374   2.041  10.892  0.1872 -0.4262 -0.2834
 8420TIP3   OH249454   5.520   1.667  10.483  0.2809 -0.5636 -0.4273
 8420TIP3    H149455   5.564   1.622  10.410  2.7000 -0.7171  1.0182
 8420TIP3    H249456   5.464   1.599  10.522  1.9490 -1.6669  0.1717
 8421TIP3   OH249457   5.655   4.757  11.702  0.2741  0.2636 -0.7817
 8421TIP3    H149458   5.630   4.668  11.726  0.9069  0.4391  0.6262
 8421TIP3    H249459   5.719   4.745  11.631  0.2352 -0.3893 -0.7126
 8422TIP3   OH249460   0.392   0.912  10.770 -0.3480  0.0407  0.0312
 8422TIP3    H149461   0.385   0.963  10.689 -1.0075 -0.5900 -0.3298
 8422TIP3    H249462   0.485   0.889  10.776 -0.2832  0.1349 -0.5305
 8423TIP3   OH249463   0.808   5.250   9.917  0.4373 -0.2681  0.0772
 8423TIP3    H149464   0.767   5.221   9.998 -0.5953 -1.2079 -0.7550
 8423TIP3    H249465   0.734   5.276   9.861  1.1167  0.1065 -0.6650
 8424TIP3   OH249466   4.771   6.099  10.976  0.6924 -0.3120 -0.4049
 8424TIP3    H149467   4.736   6.048  10.903 -1.0541  0.9669 -0.5246
 8424TIP3    H249468   4.821   6.169  10.935 -1.6530  1.3998 -0.5509
 8425TIP3   OH249469   1.395   4.580  11.374  0.2378  0.2604  0.0295
 8425TIP3    H149470   1.459   4.651  11.371 -0.1303  0.5802 -1.5506
 8425TIP3    H249471   1.376   4.568  11.467  0.4585  2.1068  0.3572
 8426TIP3   OH249472   5.024   0.149   9.752 -0.4495 -0.1088  0.3551
 8426TIP3    H149473   5.080   0.154   9.829 -0.4118 -0.4914  0.3543
 8426TIP3    H249474   4.945   0.197   9.777  0.1433  0.9963  0.1168
 8427TIP3   OH249475   1.482   2.030  12.459  0.1254 -0.6904  0.0670
 8427TIP3    H149476   1.479   1.974  12.537 -1.6125  0.0221  0.5670
 8427TIP3    H249477   1.524   2.110  12.489 -0.0996 -0.6049  0.1617
 8428TIP3   OH249478   5.268   0.110  10.301  0.1229  0.0078 -0.1340
 8428TIP3    H149479   5.356   0.148  10.309  0.5753 -1.1665  0.6854
 8428TIP3    H249480   5.209   0.185  10.303  1.0173  0.7017  1.0376
 8429TIP3   OH249481   2.535   3.598   9.194  0.0534 -0.1333  0.8543
 8429TIP3    H149482   2.481   3.659   9.143 -0.3448 -1.2100 -0.0701
 8429TIP3    H249483   2.474   3.557   9.255 -0.4332 -1.9850 -0.7774
 8430TIP3   OH249484   2.111   1.154  12.158 -0.5148 -0.6717 -0.0536
 8430TIP3    H149485   2.104   1.064  12.192 -1.9448 -1.0960 -1.3635
 8430TIP3    H249486   2.064   1.207  12.223  0.7776 -0.7478  0.9962
 8431TIP3   OH249487   2.327   5.593  11.790  0.2311 -0.0669  0.3533
 8431TIP3    H149488   2.380   5.623  11.717  0.3861  0.1314  0.5487
 8431TIP3    H249489   2.314   5.499  11.774 -1.6039  0.3804 -1.1249
 8432TIP3   OH249490   0.333   2.190  12.324  0.1000 -0.1212  0.0774
 8432TIP3    H149491   0.336   2.274  12.278  1.5594 -1.1085 -1.7752
 8432TIP3    H249492   0.388   2.204  12.401  0.2851  0.6337 -0.1794
 8433TIP3   OH249493   1.847   0.550  10.875 -0.3271  0.6003 -0.4219
 8433TIP3    H149494   1.788   0.618  10.843 -2.8882 -0.1866  2.1873
 8433TIP3    H249495   1.906   0.595  10.935 -0.3861  0.8840 -0.5741
 8434TIP3   OH249496   5.394   3.062  10.504 -0.1801  0.0904  0.5028
 8434TIP3    H149497   5.453   3.017  10.565  1.8184 -2.6952 -3.1243
 8434TIP3    H249498   5.323   3.000  10.489 -1.1911  1.1711  0.7457
 8435TIP3   OH249499   1.728   3.190  10.720 -0.3576  0.6038  0.3432
 8435TIP3    H149500   1.780   3.267  10.695 -0.6253  0.6670 -0.0277
 8435TIP3    H249501   1.654   3.225  10.769  0.8068  0.3991  2.3975
 8436TIP3   OH249502   4.749   0.732  10.635  0.2545 -0.2788  0.1144
 8436TIP3    H149503   4.839   0.753  10.661 -0.1858  0.2946  1.2552
 8436TIP3    H249504   4.735   0.784  10.556  1.1955 -1.0199 -0.5565
 8437TIP3   OH249505   6.186   5.732   9.648 -0.5683 -0.5152  0.6345
 8437TIP3    H149506   6.115   5.758   9.589  1.0834  3.8242  0.1913
 8437TIP3    H249507   6.164   5.774   9.731  1.1942  0.5149  0.6094
 8438TIP3   OH249508   4.740   5.421  11.302 -0.5583  0.5076  0.4071
 8438TIP3    H149509   4.822   5.414  11.253 -1.4774  3.2107 -1.7757
 8438TIP3    H249510   4.704   5.332  11.301  0.8935 -0.1178 -1.2712
 8439TIP3   OH249511   5.683   5.697  10.911 -0.1432  0.0720  0.0161
 8439TIP3    H149512   5.697   5.604  10.893  1.0788  0.3096 -0.3430
 8439TIP3    H249513   5.634   5.729  10.835  0.7028  0.0157 -0.5652
 8440TIP3   OH249514   6.212   6.349  12.220  0.4252 -0.1986  0.1485
 8440TIP3    H149515   6.211   6.261  12.181  0.5905 -0.1901  0.1208
 8440TIP3    H249516   6.195   6.334  12.313 -0.4861 -0.1715 -0.0074
 8441TIP3   OH249517   5.048   1.707  12.148  0.2100 -0.6009 -0.4402
 8441TIP3    H149518   4.982   1.754  12.096  0.0132 -1.7605 -1.2626
 8441TIP3    H249519   5.088   1.775  12.202 -0.5744  0.3922 -1.0675
 8442TIP3   OH249520   2.918   1.139   9.734  0.5268  0.1281  0.0477
 8442TIP3    H149521   2.970   1.200   9.681  1.7557 -0.8076  0.1383
 8442TIP3    H249522   2.960   1.140   9.820  0.4904 -0.7626  0.0832
 8443TIP3   OH249523   1.984   4.966  10.960  0.1341  1.3261  0.4219
 8443TIP3    H149524   1.909   4.906  10.964  2.1447 -1.3143  1.1559
 8443TIP3    H249525   2.001   4.977  10.866 -0.3960  0.9259  0.2735
 8444TIP3   OH249526   3.139   4.075  12.047 -0.2893  0.3180 -0.5953
 8444TIP3    H149527   3.153   4.001  12.105  0.8806 -0.1676 -1.4517
 8444TIP3    H249528   3.177   4.150  12.093  0.0387  0.0638 -0.4524
 8445TIP3   OH249529   5.990   5.182  10.935 -0.5816  0.4362 -0.6075
 8445TIP3    H149530   5.927   5.145  10.997 -0.1087  0.2282 -0.2492
 8445TIP3    H249531   5.993   5.275  10.958  1.3136 -0.0182  1.2377
 8446TIP3   OH249532   3.832   5.562  10.636  0.0111  0.2125 -0.1351
 8446TIP3    H149533   3.869   5.518  10.560  1.9311  1.2040  0.1529
 8446TIP3    H249534   3.862   5.511  10.711  1.1219  1.1950  0.1216
 8447TIP3   OH249535   6.587   4.076   9.072 -0.7571  0.1553  0.1338
 8447TIP3    H149536   6.615   4.053   9.160 -0.6657 -0.3036 -0.0153
 8447TIP3    H249537   6.651   4.141   9.043 -1.6118  1.4062  0.9408
 8448TIP3   OH249538   2.932   6.111  11.614  0.2604  0.8595  0.4507
 8448TIP3    H149539   2.934   6.111  11.518  2.3379 -1.1143  0.3878
 8448TIP3    H249540   2.841   6.094  11.636  0.2082 -2.0029 -1.3397
 8449TIP3   OH249541   2.936   3.639   8.954  0.3604 -0.6934  0.3782
 8449TIP3    H149542   2.995   3.598   8.890 -1.7649 -3.0572 -0.2382
 8449TIP3    H249543   2.919   3.571   9.019 -1.3932  0.0135  0.7288
 8450TIP3   OH249544   2.981   4.769  10.372  0.4792 -0.2899  0.0685
 8450TIP3    H149545   3.019   4.856  10.362  1.0565 -0.4523  0.7548
 8450TIP3    H249546   2.919   4.778  10.445 -0.9817  0.0218 -1.1669
 8451TIP3   OH249547   0.140   0.346   9.743  0.4333 -0.1846 -0.4259
 8451TIP3    H149548   0.205   0.399   9.697  0.4829  0.0035 -0.1424
 8451TIP3    H249549   0.191   0.278   9.787  0.3423 -0.6552 -1.0374
 8452TIP3   OH249550   4.703   6.445  11.392  0.1002 -0.0519  0.4568
 8452TIP3    H149551   4.734   6.363  11.354  0.8676  0.9301 -1.1296
 8452TIP3    H249552   4.698   6.427  11.486  3.0549 -1.0785  0.5288
 8453TIP3   OH249553   3.541   5.090  10.253  0.1804 -0.3030  0.2669
 8453TIP3    H149554   3.586   5.011  10.223  0.3860  0.6206 -2.0321
 8453TIP3    H249555   3.482   5.112  10.181  1.1765  2.4316  0.1845
 8454TIP3   OH249556   2.596   3.046  10.591 -0.2033 -0.2430  0.5062
 8454TIP3    H149557   2.547   3.015  10.515  0.6803 -0.8362  0.1636
 8454TIP3    H249558   2.572   2.985  10.661  0.1405 -0.6139  0.3048
 8455TIP3   OH249559   4.364   1.405  12.059  0.0037  0.3284 -0.2411
 8455TIP3    H149560   4.450   1.368  12.078  1.6432  2.5005 -2.6801
 8455TIP3    H249561   4.333   1.356  11.982  0.4965  1.4598 -1.1985
 8456TIP3   OH249562   0.125   3.356   9.577  0.7133 -0.7982  0.3634
 8456TIP3    H149563   0.080   3.425   9.529  0.2139 -1.1034  0.3762
 8456TIP3    H249564   0.205   3.339   9.527 -0.8612 -2.7136 -1.7404
 8457TIP3   OH249565   3.569   4.585   9.343 -0.0487 -0.4406 -0.1682
 8457TIP3    H149566   3.524   4.563   9.261  0.0187  0.3803 -0.4386
 8457TIP3    H249567   3.646   4.529   9.344  0.8514  0.6905 -1.5101
 8458TIP3   OH249568   1.653   5.715   9.440 -0.2603 -0.2927 -0.0252
 8458TIP3    H149569   1.568   5.675   9.459  0.4334 -1.2214  1.2827
 8458TIP3    H249570   1.704   5.645   9.400 -0.6493  0.7664 -2.5224
 8459TIP3   OH249571   6.135   1.699  10.713  0.3956 -0.0524 -0.1029
 8459TIP3    H149572   6.122   1.610  10.682 -0.9044  0.4243 -0.9956
 8459TIP3    H249573   6.048   1.738  10.712  0.8251  0.9952  1.0308
 8460TIP3   OH249574   1.480   5.492   9.247  0.2665  0.4351  0.0878
 8460TIP3    H149575   1.526   5.421   9.292  1.5368  0.2169 -1.4434
 8460TIP3    H249576   1.550   5.544   9.208 -0.7131  1.6868 -0.0525
 8461TIP3   OH249577   5.448   2.222   9.982  0.0080 -0.4416  0.4106
 8461TIP3    H149578   5.482   2.143   9.940  2.9566  0.1771  1.4677
 8461TIP3    H249579   5.408   2.191  10.063 -0.5600 -1.0052 -0.0679
 8462TIP3   OH249580   0.660   6.084   9.222  0.4033  0.0317  0.7198
 8462TIP3    H149581   0.754   6.065   9.217  0.5311  0.9355 -1.3476
 8462TIP3    H249582   0.647   6.153   9.158 -1.9688 -1.2131 -0.2460
 8463TIP3   OH249583   5.620   0.250  11.090 -0.4863 -0.3677 -0.4025
 8463TIP3    H149584   5.583   0.314  11.030  2.6609  1.8361 -0.2063
 8463TIP3    H249585   5.557   0.177  11.088 -0.7202 -0.5364 -6.3147
 8464TIP3   OH249586   1.172   0.660  11.602  0.4777 -0.2018  0.0611
 8464TIP3    H149587   1.125   0.581  11.576 -0.4873  0.3374  0.1130
 8464TIP3    H249588   1.256   0.654  11.556 -0.3394 -0.3337 -1.5002
 8465TIP3   OH249589   1.811   4.098   9.531  0.6288  0.4075  0.3412
 8465TIP3    H149590   1.881   4.053   9.579  0.8253 -0.0721 -0.3850
 8465TIP3    H249591   1.849   4.116   9.445 -0.9843 -2.3017 -1.0590
 8466TIP3   OH249592   3.160   5.802   9.352  0.4204  0.2372  0.2706
 8466TIP3    H149593   3.168   5.849   9.435  2.3627  1.1307 -0.3583
 8466TIP3    H249594   3.250   5.796   9.319 -0.2125 -0.7385 -1.4327
 8467TIP3   OH249595   2.297   3.576  10.124 -0.1747  0.1063  0.1267
 8467TIP3    H149596   2.229   3.571  10.057  1.5326 -0.4093 -1.6560
 8467TIP3    H249597   2.278   3.503  10.182 -0.9969 -0.1871 -0.4920
 8468TIP3   OH249598   2.425   5.898  10.331 -0.5663 -0.0807  0.3414
 8468TIP3    H149599   2.510   5.940  10.320 -1.0999  0.8935 -0.1468
 8468TIP3    H249600   2.438   5.837  10.404  0.1089  1.2635  1.4030
 8469TIP3   OH249601   6.366   2.809  12.573  0.1238  0.0608  0.5288
 8469TIP3    H149602   6.434   2.750  12.605  0.1915  0.1515  0.5508
 8469TIP3    H249603   6.320   2.838  12.652  1.8798  2.2816  0.8335
 8470TIP3   OH249604   3.776   3.310  11.521  0.2766 -0.3171  0.5164
 8470TIP3    H149605   3.803   3.226  11.486  2.1956  0.7188 -0.6739
 8470TIP3    H249606   3.834   3.326  11.595  1.9219  1.1423 -0.9814
 8471TIP3   OH249607   4.045   5.137  11.029 -0.0083  0.3908  0.3796
 8471TIP3    H149608   4.010   5.172  11.111 -0.0658 -0.8128  0.8935
 8471TIP3    H249609   4.126   5.092  11.054 -1.0438 -1.7240  0.1476
 8472TIP3   OH249610   5.967   3.599  10.480 -0.2147 -0.3375  0.5729
 8472TIP3    H149611   5.974   3.519  10.533  2.1506 -0.8256 -0.3620
 8472TIP3    H249612   5.923   3.570  10.400  0.7754 -0.7776  0.1707
 8473TIP3   OH249613   5.203   5.703  11.676 -0.3897 -0.5232  0.0811
 8473TIP3    H149614   5.218   5.656  11.594  1.0561  0.2700 -0.1403
 8473TIP3    H249615   5.195   5.634  11.742 -1.2732 -1.1590 -0.6598
 8474TIP3   OH249616   0.598   1.532   9.879 -0.3427 -0.2023  0.1271
 8474TIP3    H149617   0.625   1.610   9.830  1.9451 -0.6168  0.5919
 8474TIP3    H249618   0.522   1.499   9.832  1.5915 -0.4896 -3.1463
 8475TIP3   OH249619   1.409   5.541  11.539  0.6390 -0.1371  0.1746
 8475TIP3    H149620   1.487   5.494  11.509  0.3049 -0.2104 -0.6018
 8475TIP3    H249621   1.335   5.489  11.506  0.2468 -0.2427  1.1695
 8476TIP3   OH249622   3.789   0.920  10.279 -0.6808 -0.1737  0.4985
 8476TIP3    H149623   3.719   0.976  10.312 -0.1422 -0.1078  1.5858
 8476TIP3    H249624   3.777   0.836  10.325 -2.2106 -1.4305 -1.9883
 8477TIP3   OH249625   5.199   1.390  11.760 -0.1626 -0.1352 -0.1057
 8477TIP3    H149626   5.228   1.316  11.706  0.0836  1.0582 -1.6720
 8477TIP3    H249627   5.111   1.410  11.727  0.5025  1.4430 -1.0114
 8478TIP3   OH249628   5.868   5.573  12.538 -0.3227 -0.0818 -0.3113
 8478TIP3    H149629   5.942   5.625  12.569  0.3112 -0.5350 -1.0379
 8478TIP3    H249630   5.796   5.636  12.532 -0.4939  0.0393  2.0341
 8479TIP3   OH249631   6.655   3.490  10.427  0.9377  0.2084  0.4578
 8479TIP3    H149632   6.632   3.463  10.516 -0.6546 -0.6755 -0.1681
 8479TIP3    H249633   6.671   3.584  10.433 -0.5836  0.4319  1.4275
 8480TIP3   OH249634   2.359   5.084  12.326 -0.2274  0.3149  0.1859
 8480TIP3    H149635   2.364   5.002  12.277  0.4222 -0.3310  1.3043
 8480TIP3    H249636   2.450   5.111  12.336 -0.4524  1.4076 -0.5227
 8481TIP3   OH249637   5.216   5.896  10.601 -0.2378 -0.7905  0.5019
 8481TIP3    H149638   5.162   5.819  10.616  0.1970 -0.8898  1.6782
 8481TIP3    H249639   5.196   5.953  10.675 -1.0786  0.5624 -0.6945
 8482TIP3   OH249640   2.227   3.745  10.794  0.1406 -0.6858  0.0115
 8482TIP3    H149641   2.233   3.824  10.849  1.2143 -0.7213 -0.0317
 8482TIP3    H249642   2.309   3.745  10.744 -0.9063 -0.5405 -1.7597
 8483TIP3   OH249643   6.661   2.028  11.577 -0.2950 -0.1967 -0.0827
 8483TIP3    H149644   6.592   2.011  11.512 -0.7776  1.3567 -0.0047
 8483TIP3    H249645   6.683   1.941  11.611 -1.6237 -0.8043 -0.7005
 8484TIP3   OH249646   1.621   5.540  11.705  0.1951  0.2369  0.1648
 8484TIP3    H149647   1.534   5.548  11.667  0.4777  0.6061 -0.4051
 8484TIP3    H249648   1.636   5.623  11.750 -0.4871 -0.5044  1.8538
 8485TIP3   OH249649   1.906   2.544  12.061 -0.9180 -0.3317  0.0329
 8485TIP3    H149650   1.894   2.593  11.979 -0.0505 -1.6905 -0.9486
 8485TIP3    H249651   1.830   2.567  12.114 -0.4462  2.2319 -0.2821
 8486TIP3   OH249652   2.401   3.201  10.117  0.1554  0.0999  0.4173
 8486TIP3    H149653   2.431   3.112  10.102  0.3151  0.4322 -1.4679
 8486TIP3    H249654   2.442   3.227  10.199  1.0789 -1.1383  0.3653
 8487TIP3   OH249655   3.732   1.685  12.797  0.1484 -0.1269 -0.6972
 8487TIP3    H149656   3.745   1.646  12.711  1.7224  0.3533 -0.7052
 8487TIP3    H249657   3.756   1.777  12.786 -0.4993  0.1495  0.0520
 8488TIP3   OH249658   5.450   4.954  11.319  0.2431  0.3134 -0.3817
 8488TIP3    H149659   5.500   4.878  11.290 -1.1504 -1.5695  1.8666
 8488TIP3    H249660   5.366   4.918  11.348 -0.1161  2.5662  1.6712
 8489TIP3   OH249661   1.708   6.654  11.961 -0.7665  0.1242  0.6032
 8489TIP3    H149662   1.628   6.627  11.917  0.3080  0.5436 -1.7404
 8489TIP3    H249663   1.743   6.724  11.907  1.3891 -0.2983  1.3428
 8490TIP3   OH249664   3.219   1.459  10.223 -0.7452  0.2151  0.1108
 8490TIP3    H149665   3.208   1.387  10.161 -1.2290 -0.8240  1.3599
 8490TIP3    H249666   3.314   1.473  10.227 -0.5751 -0.8798  0.3966
 8491TIP3   OH249667   5.821   5.721  10.318 -0.7148  0.0223  0.1071
 8491TIP3    H149668   5.884   5.782  10.356 -1.2953  0.1206  0.9233
 8491TIP3    H249669   5.798   5.759  10.233  1.7656 -0.9674 -1.1185
 8492TIP3   OH249670   5.661   6.126  11.266 -0.7509 -0.3283 -0.0992
 8492TIP3    H149671   5.725   6.118  11.337  0.5561  1.5860 -0.9650
 8492TIP3    H249672   5.674   6.047  11.213  0.7823 -0.0921 -0.1264
 8493TIP3   OH249673   2.515   4.919   9.996  0.4899  0.6344 -0.5625
 8493TIP3    H149674   2.516   4.934  10.090 -2.0330 -0.0666 -0.3364
 8493TIP3    H249675   2.560   4.835   9.985 -0.0805  0.2139  0.1754
 8494TIP3   OH249676   5.474   4.316   9.749  0.0711  0.3196  0.1393
 8494TIP3    H149677   5.500   4.317   9.841  0.7582 -1.2659 -0.0055
 8494TIP3    H249678   5.379   4.322   9.751  0.1072  0.7739  0.9182
 8495TIP3   OH249679   1.420   2.889  10.875 -0.3332 -0.6115 -0.2768
 8495TIP3    H149680   1.467   2.810  10.850 -1.2199 -1.1030 -0.4096
 8495TIP3    H249681   1.477   2.932  10.938  0.9033 -0.5113 -1.4162
 8496TIP3   OH249682   1.135   2.197  11.686  0.4360  0.2984  0.4964
 8496TIP3    H149683   1.224   2.214  11.655 -0.1556  0.0050 -1.4983
 8496TIP3    H249684   1.085   2.274  11.659 -0.4493 -0.7063 -0.8852
 8497TIP3   OH249685   1.411   5.128  11.684  0.3002 -0.4472 -0.2931
 8497TIP3    H149686   1.345   5.196  11.669  0.2338 -0.5468 -0.4576
 8497TIP3    H249687   1.487   5.176  11.718 -0.0182 -0.3937  0.3549
 8498TIP3   OH249688   3.172   1.045   9.658  0.0550 -0.0071 -0.2780
 8498TIP3    H149689   3.156   0.979   9.726 -0.8521 -0.1364 -0.5983
 8498TIP3    H249690   3.106   1.026   9.591  2.7158 -1.7401 -2.6035
 8499TIP3   OH249691   4.292   5.004   9.422 -0.4248 -0.2497  0.1557
 8499TIP3    H149692   4.246   5.087   9.414  0.1450 -0.0821 -1.9861
 8499TIP3    H249693   4.238   4.952   9.482 -2.4971  0.5477 -0.9246
 8500TIP3   OH249694   4.243   4.532  10.398 -0.6541  0.3294 -0.4447
 8500TIP3    H149695   4.270   4.478  10.323  1.9332 -0.3366  0.8496
 8500TIP3    H249696   4.181   4.477  10.446 -0.3793 -0.2660 -0.7592
 8501TIP3   OH249697   6.029   0.983  12.433 -0.1036  0.1555 -0.0556
 8501TIP3    H149698   5.934   0.978  12.438 -0.1745  2.0916  2.5275
 8501TIP3    H249699   6.060   0.925  12.502  0.5265  0.6004  0.0474
 8502TIP3   OH249700   5.008   3.800  10.216 -0.0891 -0.4072  0.1347
 8502TIP3    H149701   4.995   3.860  10.290  0.1621  1.1315 -1.0201
 8502TIP3    H249702   5.062   3.730  10.252  1.5013  1.1787  1.0309
 8503TIP3   OH249703   0.104   2.598  10.566  0.0183 -0.1843  0.4333
 8503TIP3    H149704   0.022   2.609  10.615 -0.1922  1.8032 -0.2630
 8503TIP3    H249705   0.076   2.561  10.482  0.1335 -1.5958  0.9874
 8504TIP3   OH249706   5.923   2.094   9.698 -0.9352 -0.3721 -0.1715
 8504TIP3    H149707   5.893   2.046   9.775  0.5457 -1.1750 -0.0701
 8504TIP3    H249708   5.997   2.146   9.729 -0.7723 -0.1494 -0.9094
 8505TIP3   OH249709   5.349   2.628  10.758  0.3332  0.0838 -0.1653
 8505TIP3    H149710   5.341   2.719  10.784  0.7664  0.2265 -0.5278
 8505TIP3    H249711   5.281   2.583  10.808 -0.1269  0.6631 -0.2589
 8506TIP3   OH249712   1.752   3.295  12.721 -0.2007  0.5772  0.0564
 8506TIP3    H149713   1.846   3.300  12.703 -0.2252 -0.2034 -0.3130
 8506TIP3    H249714   1.713   3.356  12.658  0.0275  0.6199 -0.0453
 8507TIP3   OH249715   0.281   6.176  11.716 -0.3503  0.0460  0.4775
 8507TIP3    H149716   0.207   6.199  11.771 -0.6954  0.1402 -0.0123
 8507TIP3    H249717   0.242   6.132  11.640  0.0214  0.7659 -0.1495
 8508TIP3   OH249718   1.005   1.683   9.862  0.1013 -0.6088  0.1347
 8508TIP3    H149719   1.011   1.627   9.939 -1.6225 -0.6933  0.2601
 8508TIP3    H249720   0.997   1.622   9.788 -0.8592 -0.5544  0.1790
 8509TIP3   OH249721   2.374   6.092   9.932 -0.6499  0.3847  0.2528
 8509TIP3    H149722   2.304   6.063   9.990 -1.1421 -0.5122 -0.7424
 8509TIP3    H249723   2.451   6.042   9.960  0.7062  3.9930  3.7789
 8510TIP3   OH249724   1.988   6.575  11.940 -0.8959  0.1123 -0.9103
 8510TIP3    H149725   2.061   6.597  11.997 -0.3491 -1.1865 -1.0907
 8510TIP3    H249726   1.911   6.606  11.987 -0.3711 -0.0309  0.0671
 8511TIP3   OH249727   1.947   4.408   9.887 -0.2708 -0.1501  0.4285
 8511TIP3    H149728   1.925   4.345   9.955 -1.2609 -1.7834 -1.3142
 8511TIP3    H249729   1.979   4.355   9.814 -1.2627  1.3059 -1.1542
 8512TIP3   OH249730   3.619   5.167  12.118 -0.9773  0.5556  0.0659
 8512TIP3    H149731   3.611   5.079  12.156  1.9911 -0.8866 -2.1812
 8512TIP3    H249732   3.633   5.225  12.193  0.2860 -1.4362  1.4609
 8513TIP3   OH249733   2.463   2.984  11.566 -0.3065  0.2197  0.0544
 8513TIP3    H149734   2.396   2.919  11.589  0.1110 -0.1348  0.2891
 8513TIP3    H249735   2.517   2.991  11.645  1.1093 -0.9566 -0.7553
 8514TIP3   OH249736   5.696   2.877  12.209  0.4024  0.0495 -0.0846
 8514TIP3    H149737   5.687   2.972  12.216  0.5579 -0.0473  2.3046
 8514TIP3    H249738   5.748   2.864  12.130  1.5440  2.0448  0.2551
 8515TIP3   OH249739   1.304   2.463  11.254 -0.0009  0.1986 -0.0105
 8515TIP3    H149740   1.258   2.524  11.196  1.6608  0.7601 -0.7866
 8515TIP3    H249741   1.392   2.457  11.218  0.2386 -1.7257  0.7897
 8516TIP3   OH249742   4.170   3.592   8.923  0.0345  0.1771 -0.6859
 8516TIP3    H149743   4.110   3.551   8.985  2.3036  1.1132  2.3771
 8516TIP3    H249744   4.155   3.686   8.934  2.1023  0.4396  0.3258
 8517TIP3   OH249745   1.600   2.685  12.449 -0.5433 -0.5476  0.0452
 8517TIP3    H149746   1.523   2.742  12.456  1.7055  2.8184  0.1006
 8517TIP3    H249747   1.626   2.669  12.540 -0.6510 -0.8867  0.0161
 8518TIP3   OH249748   3.361   3.567   9.214  0.5036 -0.2645  0.0114
 8518TIP3    H149749   3.402   3.617   9.284  0.6177 -0.4828  0.1007
 8518TIP3    H249750   3.406   3.483   9.215 -0.4922 -0.8054  0.6372
 8519TIP3   OH249751   1.343   2.221  12.090 -0.5018 -0.2246  0.5146
 8519TIP3    H149752   1.428   2.187  12.063 -1.6088 -1.7877 -1.2780
 8519TIP3    H249753   1.280   2.160  12.052 -2.4375  0.9696  1.6513
 8520TIP3   OH249754   5.878   5.174  11.915  0.3004  0.8322  0.2013
 8520TIP3    H149755   5.845   5.194  12.002  0.5177 -0.4680  0.6011
 8520TIP3    H249756   5.960   5.127  11.930  0.0923  0.1472 -0.6741
 8521TIP3   OH249757   3.628   4.627  10.955  0.3200  0.0307  0.7429
 8521TIP3    H149758   3.578   4.549  10.978 -0.1110 -0.1180 -0.5751
 8521TIP3    H249759   3.571   4.674  10.893  1.0281  0.8344  0.6801
 8522TIP3   OH249760   1.336   0.061  12.245 -0.1814 -0.0386 -0.0147
 8522TIP3    H149761   1.397   0.109  12.301 -0.4368  0.2626  0.0130
 8522TIP3    H249762   1.281   0.130  12.207  0.6709 -0.1216 -1.4772
 8523TIP3   OH249763   2.245   6.383   9.459 -0.5949 -0.1189  0.2279
 8523TIP3    H149764   2.298   6.311   9.423 -0.2400  0.2274  0.0511
 8523TIP3    H249765   2.299   6.422   9.527 -1.5349 -1.2098  1.6707
 8524TIP3   OH249766   3.805   4.326  11.196  0.3589 -0.4880  0.4029
 8524TIP3    H149767   3.810   4.342  11.290  0.9919  1.7395  0.0482
 8524TIP3    H249768   3.713   4.339  11.174  0.6055  1.4937  0.3748
 8525TIP3   OH249769   3.677   2.628  11.434  1.0299 -0.2318 -0.4743
 8525TIP3    H149770   3.731   2.689  11.484  1.5537  0.7286 -2.1459
 8525TIP3    H249771   3.709   2.541  11.459  2.6819  0.2954 -0.6573
 8526TIP3   OH249772   5.137   0.799  11.073  0.2746 -0.3352 -0.5768
 8526TIP3    H149773   5.070   0.840  11.128  0.6661 -0.9466  0.3749
 8526TIP3    H249774   5.196   0.756  11.135  2.6407  1.7240 -1.2267
 8527TIP3   OH249775   1.769   6.694   9.820 -0.1513 -0.3543 -0.1799
 8527TIP3    H149776   1.815   6.662   9.897 -0.4113  0.6747  0.4222
 8527TIP3    H249777   1.694   6.743   9.855 -0.6702 -0.4565 -1.1017
 8528TIP3   OH249778   0.962   3.313  10.690 -0.5907  0.2949 -0.4511
 8528TIP3    H149779   1.015   3.377  10.643 -0.0444  0.4732  0.3827
 8528TIP3    H249780   0.913   3.366  10.753  0.6395 -0.1865  0.9621
 8529TIP3   OH249781   1.034   6.218  10.085  0.5563  0.4582 -0.0034
 8529TIP3    H149782   1.045   6.292  10.145  0.5919  0.1484  0.3780
 8529TIP3    H249783   0.981   6.155  10.134 -1.8917  1.3571 -1.3152
 8530TIP3   OH249784   3.966   6.493   9.482  0.0809 -0.6069 -0.3108
 8530TIP3    H149785   3.974   6.425   9.549  1.5274 -0.9054 -0.7437
 8530TIP3    H249786   4.055   6.525   9.469 -0.7498  2.6983  1.1760
 8531TIP3   OH249787   0.323   2.293  12.643 -0.0149  0.0855 -0.1236
 8531TIP3    H149788   0.339   2.239  12.720 -0.7761 -0.8212 -0.5805
 8531TIP3    H249789   0.409   2.302  12.602  0.2302 -0.2376  0.3111
 8532TIP3   OH249790   3.472   3.692   9.411 -0.0106 -0.3435  0.9736
 8532TIP3    H149791   3.469   3.764   9.348  2.7290 -0.1266  0.9869
 8532TIP3    H249792   3.458   3.734   9.496  0.1420 -0.0463  0.8526
 8533TIP3   OH249793   5.754   6.015  12.589 -0.1087  0.5968  0.2903
 8533TIP3    H149794   5.769   5.923  12.568  0.2885  0.8993 -0.8299
 8533TIP3    H249795   5.659   6.025  12.588 -0.2336 -0.1123  1.9089
 8534TIP3   OH249796   4.075   0.836  10.262 -0.3988 -0.2705  0.2743
 8534TIP3    H149797   4.108   0.926  10.267 -1.9913  0.5062 -1.8885
 8534TIP3    H249798   3.985   0.842  10.294 -0.1123 -1.4133  1.3956
 8535TIP3   OH249799   1.947   0.196  12.085 -0.0519  0.3238 -0.3499
 8535TIP3    H149800   1.997   0.116  12.099  1.4984  1.6474  2.5418
 8535TIP3    H249801   1.997   0.246  12.020 -0.1901 -0.3425 -0.9789
 8536TIP3   OH249802   0.587   5.240  11.971  0.3536  0.2856 -0.2731
 8536TIP3    H149803   0.658   5.303  11.981  1.0794 -0.2985 -1.5653
 8536TIP3    H249804   0.618   5.177  11.905 -0.6310 -1.0241  0.4488
 8537TIP3   OH249805   4.018   3.011   9.351  0.2127  0.1394 -0.9049
 8537TIP3    H149806   3.958   2.970   9.413  1.6695 -1.9059 -0.7509
 8537TIP3    H249807   3.998   3.104   9.356 -1.8587 -0.3086  0.2648
 8538TIP3   OH249808   2.586   5.996  10.604  0.0391  0.7495 -0.1386
 8538TIP3    H149809   2.575   6.003  10.699  0.2165  0.2259 -0.0763
 8538TIP3    H249810   2.597   6.087  10.574  1.6127  0.8199  0.5412
 8539TIP3   OH249811   6.075   3.109  12.555  0.2431  0.6554  0.5951
 8539TIP3    H149812   6.051   3.088  12.645 -2.2410 -1.2361 -0.3753
 8539TIP3    H249813   6.026   3.189  12.535 -0.2247  0.3578  0.5465
 8540TIP3   OH249814   1.155   3.422   9.879 -0.4217  0.0234 -0.3338
 8540TIP3    H149815   1.106   3.396   9.801  1.0983 -0.3726 -1.1865
 8540TIP3    H249816   1.236   3.370   9.875 -0.0946  0.3734  1.2388
 8541TIP3   OH249817   2.072   4.202   9.718 -0.0290 -0.4846  0.4689
 8541TIP3    H149818   2.068   4.108   9.735 -0.9964 -0.4454  0.4929
 8541TIP3    H249819   2.149   4.213   9.662 -0.6367 -1.4574 -0.5936
 8542TIP3   OH249820   5.968   4.804  10.364 -0.1202 -0.0438 -0.2445
 8542TIP3    H149821   5.878   4.771  10.369 -1.1275  2.5379  2.9335
 8542TIP3    H249822   6.016   4.752  10.428  0.0681  0.0419 -0.3161
 8543TIP3   OH249823   6.324   0.143  11.820 -0.2408  0.6037 -0.1045
 8543TIP3    H149824   6.298   0.093  11.743 -2.1959  0.0930  0.8475
 8543TIP3    H249825   6.386   0.087  11.865 -1.4329 -0.4418  0.2781
 8544TIP3   OH249826   0.660   3.888  11.784  0.3485 -0.1398 -0.0017
 8544TIP3    H149827   0.621   3.926  11.863 -0.3029 -1.5005  0.3585
 8544TIP3    H249828   0.585   3.868  11.728  0.6683 -0.8939 -0.1710
 8545TIP3   OH249829   2.657   4.003  12.606  0.6854 -0.0401 -0.3494
 8545TIP3    H149830   2.611   4.034  12.528  1.6753 -0.8565 -1.2793
 8545TIP3    H249831   2.738   4.053  12.608  0.4230  0.3752  0.4861
 8546TIP3   OH249832   5.694   5.378  12.423  0.0098 -0.6163  0.0205
 8546TIP3    H149833   5.720   5.287  12.438 -0.9672 -1.0121 -0.5917
 8546TIP3    H249834   5.750   5.429  12.482  0.6010 -1.6055  0.3389
 8547TIP3   OH249835   3.837   2.368  10.681 -0.6451  0.0443  0.5132
 8547TIP3    H149836   3.887   2.310  10.624  0.4076 -0.5455  1.9799
 8547TIP3    H249837   3.888   2.373  10.762 -1.6634  1.5222  1.1146
 8548TIP3   OH249838   2.673   1.832  12.831 -0.8370 -0.0594 -0.2928
 8548TIP3    H149839   2.633   1.905  12.878  1.1350  0.0432  1.3728
 8548TIP3    H249840   2.722   1.873  12.759 -0.8844  0.1290 -0.2178
 8549TIP3   OH249841   1.744   4.964   9.852  0.2156 -0.1447 -0.1610
 8549TIP3    H149842   1.655   4.935   9.872  0.9565 -1.0714  2.0865
 8549TIP3    H249843   1.762   4.928   9.765 -1.3478 -0.5471 -0.3432
 8550TIP3   OH249844   2.845   1.412  18.051  0.5528  0.5383 -0.4489
 8550TIP3    H149845   2.798   1.483  18.094  0.2388  0.4878 -0.7004
 8550TIP3    H249846   2.824   1.422  17.958 -1.8519 -1.5587 -0.2334
 8551TIP3   OH249847   3.989   0.603  11.415 -0.0498  0.1381  0.5118
 8551TIP3    H149848   4.082   0.590  11.397  0.0962  1.3693  0.3160
 8551TIP3    H249849   3.954   0.514  11.425  1.0730 -0.3489  0.2572
 8552TIP3   OH249850   0.862   0.694  12.962  0.1765  0.0622 -1.0132
 8552TIP3    H149851   0.786   0.653  13.003  0.8511 -0.4982 -0.2750
 8552TIP3    H249852   0.852   0.787  12.980  0.0860 -0.0974 -0.1647
 8553TIP3   OH249853   0.305   0.050  11.092 -0.2828 -0.0752  0.1482
 8553TIP3    H149854   0.231   0.031  11.034  0.4472  0.1311 -0.8826
 8553TIP3    H249855   0.364   0.103  11.039  1.8206 -2.3187  0.0382
 8554TIP3   OH249856   6.159   1.285  13.010  0.3560 -0.0569 -0.0497
 8554TIP3    H149857   6.166   1.345  13.084 -0.2220 -0.1187  0.0586
 8554TIP3    H249858   6.209   1.328  12.940 -0.6424  0.9078 -0.1981
 8555TIP3   OH249859   4.155   5.693  10.435 -0.4602 -0.1273  0.1919
 8555TIP3    H149860   4.091   5.752  10.474 -1.3115 -0.3159 -0.9043
 8555TIP3    H249861   4.218   5.751  10.391 -0.6869  0.0014  0.0391
 8556TIP3   OH249862   4.536   2.420  10.887 -0.5815  0.1712 -0.3103
 8556TIP3    H149863   4.517   2.410  10.981 -0.4454 -0.8795 -0.3851
 8556TIP3    H249864   4.473   2.486  10.857  1.7533  3.3971  1.2447
 8557TIP3   OH249865   3.020   1.562  12.175  0.5051  0.3399 -0.5413
 8557TIP3    H149866   3.082   1.577  12.246 -1.1361  2.0864  0.6241
 8557TIP3    H249867   3.048   1.621  12.106 -0.0715  1.4612  0.1544
 8558TIP3   OH249868   6.336   6.188  11.326 -0.4766  0.2716  0.2806
 8558TIP3    H149869   6.241   6.192  11.336 -0.6930  0.1581 -1.4196
 8558TIP3    H249870   6.369   6.184  11.416 -1.8659  4.3019  1.1919
 8559TIP3   OH249871   6.635   4.494  10.545  0.3810  0.0329 -0.0767
 8559TIP3    H149872   6.660   4.527  10.459  1.0096  1.8796  0.7594
 8559TIP3    H249873   6.554   4.540  10.566 -1.1899 -2.2712 -0.6767
 8560TIP3   OH249874   0.810   6.546  11.767  0.2366  0.1058  0.1002
 8560TIP3    H149875   0.781   6.496  11.843  1.2065  0.0146  0.4265
 8560TIP3    H249876   0.831   6.481  11.701  1.3522  0.0818  0.4713
 8561TIP3   OH249877   0.064   0.714  10.601  0.4341 -0.3153 -0.2182
 8561TIP3    H149878   0.115   0.691  10.523  0.5321  1.2517 -0.6503
 8561TIP3    H249879   0.017   0.634  10.623  1.8258 -1.3354 -0.7683
 8562TIP3   OH249880   2.885   3.400  19.506  0.2983  0.8138  0.3139
 8562TIP3    H149881   2.940   3.370  19.578  1.1265  1.0180 -0.2238
 8562TIP3    H249882   2.810   3.441  19.549  0.3548  0.1602  1.0566
 8563TIP3   OH249883   3.904   4.037   9.070 -0.2220  0.2166 -0.4887
 8563TIP3    H149884   3.998   4.029   9.059 -0.2933 -0.9389 -0.3444
 8563TIP3    H249885   3.884   3.985   9.147 -0.9623  0.5694 -0.4335
 8564TIP3   OH249886   1.600   1.417  10.432  0.1123 -0.2335 -0.0674
 8564TIP3    H149887   1.555   1.466  10.501  0.4581  0.2883 -0.2054
 8564TIP3    H249888   1.689   1.404  10.466  0.5550  0.7986 -0.7624
 8565TIP3   OH249889   5.073   5.657  10.597 -0.3531  0.8120 -0.6131
 8565TIP3    H149890   5.036   5.571  10.616  0.8593  0.4090  0.0747
 8565TIP3    H249891   5.026   5.687  10.520 -0.4953 -0.6717 -1.1421
 8566TIP3   OH249892   4.728   4.179  10.489 -0.2449 -0.2543 -0.4606
 8566TIP3    H149893   4.798   4.154  10.550 -1.1634 -2.6107 -0.2623
 8566TIP3    H249894   4.743   4.272  10.473  3.6402 -0.8307 -1.3356
 8567TIP3   OH249895   6.576   6.141  10.036 -0.2853  0.3170 -0.0697
 8567TIP3    H149896   6.646   6.118   9.975 -0.4002  0.3891 -0.2299
 8567TIP3    H249897   6.594   6.231  10.061  0.2613  0.0070  0.6914
 8568TIP3   OH249898   1.566   1.254  11.185  0.0818 -0.1140  0.0982
 8568TIP3    H149899   1.475   1.264  11.214  0.4680  0.3321  1.2324
 8568TIP3    H249900   1.575   1.160  11.170 -0.5816 -0.1599 -0.0649
 8569TIP3   OH249901   3.985   5.020  12.151  0.1157  0.5217  0.4433
 8569TIP3    H149902   3.977   5.115  12.159  1.7287  0.7231 -0.0491
 8569TIP3    H249903   4.050   5.007  12.082 -0.6296 -0.9575 -0.0251
 8570TIP3   OH249904   4.136   2.774  11.672  0.1471  0.1863  0.7871
 8570TIP3    H149905   4.199   2.801  11.605 -0.1594  0.4694  0.6060
 8570TIP3    H249906   4.117   2.854  11.721 -1.7245  0.6417 -0.5567
 8571TIP3   OH249907   5.354   5.801  10.928  0.2121 -0.2087 -0.1465
 8571TIP3    H149908   5.395   5.793  10.842 -1.1840  1.1138 -0.9857
 8571TIP3    H249909   5.290   5.731  10.931 -0.9635  0.7873 -0.9522
 8572TIP3   OH249910   3.835   2.147  11.195 -0.6197  0.3804  0.8436
 8572TIP3    H149911   3.829   2.213  11.264 -1.9397  1.4766 -0.2578
 8572TIP3    H249912   3.927   2.149  11.168 -0.6522  1.8556  0.7753
 8573TIP3   OH249913   3.289   0.277   9.088 -0.0616 -0.2934  0.1327
 8573TIP3    H149914   3.210   0.325   9.067 -0.4768 -1.0124  0.0171
 8573TIP3    H249915   3.300   0.215   9.016  0.5049 -0.3236  0.2399
 8574TIP3   OH249916   2.638   1.374   9.776  0.1625  0.0029  0.1911
 8574TIP3    H149917   2.631   1.296   9.830 -2.2534 -1.7054 -2.3060
 8574TIP3    H249918   2.563   1.428   9.802 -0.6178 -0.5161 -0.9210
 8575TIP3   OH249919   4.091   3.947  11.581 -0.4039 -0.0546 -0.3017
 8575TIP3    H149920   4.161   3.950  11.646 -0.9440 -2.2767  0.4813
 8575TIP3    H249921   4.119   3.879  11.519 -1.2271  0.0103 -0.7575
 8576TIP3   OH249922   4.354   2.615  10.827 -0.1261 -0.3794 -0.1778
 8576TIP3    H149923   4.356   2.610  10.731 -0.0207  0.4815 -0.2295
 8576TIP3    H249924   4.261   2.627  10.848  0.1297  2.6651 -0.3935
 8577TIP3   OH249925   3.973   5.142  10.776 -0.1825  0.2942 -0.1481
 8577TIP3    H149926   3.923   5.223  10.767 -1.8900 -0.5923  0.7939
 8577TIP3    H249927   4.009   5.145  10.864 -1.7632 -0.7231  0.5782
 8578TIP3   OH249928   6.345   1.689  11.777  0.2019 -0.6266 -0.4511
 8578TIP3    H149929   6.330   1.759  11.713 -0.3482 -0.6139 -0.3087
 8578TIP3    H249930   6.412   1.724  11.835 -0.4981  0.0198 -0.0247
 8579TIP3   OH249931   5.524   0.234   9.291 -0.6106 -0.4405  0.0736
 8579TIP3    H149932   5.592   0.290   9.327 -0.0510 -1.3313  0.4275
 8579TIP3    H249933   5.442   0.270   9.326 -0.4969  1.4283 -1.3573
 8580TIP3   OH249934   4.063   4.461   9.685 -0.0403  0.3125  0.3555
 8580TIP3    H149935   4.132   4.526   9.702  1.0552 -0.6863 -0.0968
 8580TIP3    H249936   4.008   4.464   9.764  0.2786  1.4181  0.5582
 8581TIP3   OH249937   4.856   4.130   9.623  0.5874  0.2691 -0.4347
 8581TIP3    H149938   4.907   4.110   9.701 -3.3123  0.0178  2.3471
 8581TIP3    H249939   4.868   4.224   9.610 -0.0147  0.6790  1.6194
 8582TIP3   OH249940   5.476   0.177  12.179 -0.4988  0.3413  0.5295
 8582TIP3    H149941   5.383   0.154  12.176 -0.4549  0.1708  0.4488
 8582TIP3    H249942   5.493   0.194  12.272 -1.0562  2.2770  0.3214
 8583TIP3   OH249943   4.390   1.613   9.694 -0.0007 -0.3342 -0.2340
 8583TIP3    H149944   4.358   1.700   9.718  0.8464  0.1471 -0.7976
 8583TIP3    H249945   4.443   1.586   9.769 -0.3343 -0.4150 -0.0213
 8584TIP3   OH249946   3.445   6.225  11.814  0.3324  0.6322 -0.0376
 8584TIP3    H149947   3.351   6.239  11.820  0.1865 -0.3039  0.0145
 8584TIP3    H249948   3.478   6.241  11.903  0.3425  1.6684 -0.2085
 8585TIP3   OH249949   1.297   6.363  12.570  0.2554  0.6311 -0.2580
 8585TIP3    H149950   1.258   6.431  12.625  2.5405 -0.5452  3.1575
 8585TIP3    H249951   1.361   6.409  12.516  1.4616  1.3862  1.6986
 8586TIP3   OH249952   4.195   2.526   9.997 -0.3942 -0.2162 -0.1069
 8586TIP3    H149953   4.262   2.594   9.994 -1.5589  0.9501 -1.0628
 8586TIP3    H249954   4.115   2.570   9.968 -0.9957 -2.2413 -1.7381
 8587TIP3   OH249955   1.233   6.584  12.092  0.3916  0.5420 -0.2211
 8587TIP3    H149956   1.267   6.623  12.012  0.3029  0.3130 -0.3685
 8587TIP3    H249957   1.253   6.648  12.160  1.9637  0.0257 -0.1487
 8588TIP3   OH249958   3.458   3.606  11.605 -0.3325  0.0409 -0.7372
 8588TIP3    H149959   3.439   3.557  11.685  1.0585  1.7309  0.7256
 8588TIP3    H249960   3.439   3.697  11.627  2.2381  0.8691 -1.4918
 8589TIP3   OH249961   3.546   3.795  12.388  0.6625  0.2733  0.2880
 8589TIP3    H149962   3.636   3.785  12.356  1.3755  2.6330  1.3395
 8589TIP3    H249963   3.550   3.765  12.479  0.2719 -0.0513  0.1987
 8590TIP3   OH249964   3.483   0.587  12.493  0.5227 -0.0057  0.0390
 8590TIP3    H149965   3.519   0.500  12.508 -1.4534 -0.6959  1.2226
 8590TIP3    H249966   3.495   0.633  12.576  2.1984  1.1599 -0.7904
 8591TIP3   OH249967   3.894   4.761   9.080  0.0499  1.0941  0.6664
 8591TIP3    H149968   3.936   4.679   9.056  0.5911  1.3948  0.5712
 8591TIP3    H249969   3.933   4.784   9.165 -1.0817  0.5713  1.3489
 8592TIP3   OH249970   5.480   0.536  10.269  0.1554 -0.3466 -0.6420
 8592TIP3    H149971   5.511   0.451  10.299  0.9822 -0.1211 -0.8539
 8592TIP3    H249972   5.553   0.574  10.221 -0.5201  0.0986 -1.3439
 8593TIP3   OH249973   0.261   4.727  11.916  0.0397  0.1663 -0.0939
 8593TIP3    H149974   0.250   4.644  11.871 -0.6899  0.0574  0.2650
 8593TIP3    H249975   0.315   4.780  11.857 -0.6584 -0.0761 -0.9695
 8594TIP3   OH249976   4.418   0.153  10.836 -0.4304 -0.4312 -0.6329
 8594TIP3    H149977   4.449   0.220  10.897 -0.9458  2.6299 -3.4701
 8594TIP3    H249978   4.494   0.134  10.781 -0.6961 -1.1090 -0.7795
 8595TIP3   OH249979   0.557   4.940  12.195 -0.4502  0.5990 -0.4773
 8595TIP3    H149980   0.631   4.993  12.165  0.8175 -1.8924 -2.1600
 8595TIP3    H249981   0.588   4.897  12.274  0.5974 -1.5473 -1.9404
 8596TIP3   OH249982   5.559   3.240  11.007  0.4872 -0.0118  0.2207
 8596TIP3    H149983   5.633   3.189  11.041  0.1216 -0.8110 -0.1427
 8596TIP3    H249984   5.597   3.292  10.936  1.0141  0.7845  1.0757
 8597TIP3   OH249985   3.047   4.246  10.738 -0.0543  0.0111 -0.3006
 8597TIP3    H149986   3.031   4.162  10.696 -0.4469 -0.5388  0.9165
 8597TIP3    H249987   3.076   4.303  10.666 -1.2275 -0.7364 -1.4258
 8598TIP3   OH249988   1.408   3.580   9.875 -0.1096  0.0390  0.2949
 8598TIP3    H149989   1.429   3.499   9.828 -0.1344 -1.0307  2.0576
 8598TIP3    H249990   1.313   3.575   9.889  0.2107 -0.8509  2.4966
 8599TIP3   OH249991   6.173   0.381  11.146 -0.5653  0.0568 -0.1731
 8599TIP3    H149992   6.084   0.351  11.164  0.2098 -3.0942 -1.0290
 8599TIP3    H249993   6.162   0.453  11.084 -2.5155  0.5279  0.6338
 8600TIP3   OH249994   0.920   0.142  12.028  0.9145 -0.2044  0.3547
 8600TIP3    H149995   0.967   0.079  11.972 -0.4039 -0.0260 -1.0175
 8600TIP3    H249996   0.870   0.195  11.967  1.1254  1.4812  1.5786
 8601TIP3   OH249997   1.828   3.792  10.235 -0.2210 -0.2556 -0.0747
 8601TIP3    H149998   1.774   3.713  10.226 -0.2846 -0.2837  0.5036
 8601TIP3    H249999   1.836   3.804  10.329  0.3973  0.0183 -0.1608
 8602TIP3   OH250000   0.190   3.838  13.197 -0.0633  0.3319 -0.0061
 8602TIP3    H150001   0.272   3.888  13.200 -1.2687  2.3687  1.1769
 8602TIP3    H250002   0.170   3.831  13.104  0.8150  0.9301 -0.2570
 8603TIP3   OH250003   5.344   5.615  10.561  0.0751  0.5083  0.6157
 8603TIP3    H150004   5.370   5.623  10.469 -0.2333 -3.0526  0.0718
 8603TIP3    H250005   5.249   5.628  10.561  0.2582  1.9503  0.7030
 8604TIP3   OH250006   5.428   3.722   9.744  0.0124  0.1899 -0.2069
 8604TIP3    H150007   5.465   3.660   9.807  1.6768  0.5609 -0.7766
 8604TIP3    H250008   5.448   3.808   9.781  2.4903  0.4701 -1.9347
 8605TIP3   OH250009   1.634   3.777  10.946 -0.1264  0.1501  0.3069
 8605TIP3    H150010   1.640   3.748  11.037 -0.5425  2.7646  1.2452
 8605TIP3    H250011   1.551   3.826  10.942  0.0525  0.3624 -1.3982
 8606TIP3   OH250012   4.490   0.441  11.558  0.8811 -0.1516  0.4012
 8606TIP3    H150013   4.402   0.449  11.521  1.0161  2.6535  0.4265
 8606TIP3    H250014   4.477   0.448  11.652  1.0013 -2.0046  0.5981
 8607TIP3   OH250015   0.169   0.341  10.112  0.6716 -0.1618 -0.2898
 8607TIP3    H150016   0.218   0.303  10.040  0.0509 -2.0439  0.2259
 8607TIP3    H250017   0.086   0.292  10.114 -0.3718  1.5256  0.1511
 8608TIP3   OH250018   2.787   1.957   9.306  0.4882 -0.0853  0.2967
 8608TIP3    H150019   2.774   1.912   9.223  1.0493 -1.1391  0.7527
 8608TIP3    H250020   2.701   1.993   9.327 -0.0970 -1.2955  0.0865
 8609TIP3   OH250021   2.501   0.207  10.123  0.1332  0.3837 -0.0548
 8609TIP3    H150022   2.456   0.125  10.140  1.8338 -0.5605  0.0927
 8609TIP3    H250023   2.452   0.272  10.175 -0.6474 -0.6951  0.6047
 8610TIP3   OH250024   4.753   5.522  12.307  0.0093  0.2529 -0.5489
 8610TIP3    H150025   4.848   5.527  12.321 -0.2121 -0.5202  1.4942
 8610TIP3    H250026   4.720   5.608  12.331  0.2402  0.7625 -1.9696
 8611TIP3   OH250027   0.414   4.875   9.546 -0.1849 -0.3637  0.3056
 8611TIP3    H150028   0.495   4.873   9.496  0.5335 -0.1871  1.4483
 8611TIP3    H250029   0.437   4.840   9.632 -0.8865  1.3927  1.2470
 8612TIP3   OH250030   3.269   6.169   9.325 -0.3413  0.0658 -0.3657
 8612TIP3    H150031   3.356   6.208   9.312  0.2436 -1.0131  0.1650
 8612TIP3    H250032   3.214   6.242   9.354  0.6912  0.5314  0.4922
 8613TIP3   OH250033   4.848   2.260  10.324 -0.1218 -0.5513  0.4553
 8613TIP3    H150034   4.878   2.336  10.374  1.6053 -1.4466  0.8599
 8613TIP3    H250035   4.770   2.229  10.371 -1.2081  1.2864 -0.0672
 8614TIP3   OH250036   5.707   5.154  10.408  0.2392  0.0284  0.0508
 8614TIP3    H150037   5.671   5.073  10.374  0.1906  0.8601 -1.9819
 8614TIP3    H250038   5.646   5.222  10.380 -2.1286  0.5390  5.3055
 8615TIP3   OH250039   6.709   0.591  10.931 -0.5195 -0.3719 -0.4486
 8615TIP3    H150040   6.724   0.496  10.930  1.0592 -0.1705  0.2929
 8615TIP3    H250041   6.685   0.610  11.021 -2.4541 -0.2560 -0.9590
 8616TIP3   OH250042   3.331   1.837  11.219  0.0143  0.0531  0.1863
 8616TIP3    H150043   3.400   1.781  11.253  0.5760  0.7505  0.2122
 8616TIP3    H250044   3.373   1.887  11.149 -0.8826 -0.6907 -0.9235
 8617TIP3   OH250045   1.866   6.628  10.829  0.0144 -0.1589 -0.5819
 8617TIP3    H150046   1.789   6.656  10.779  0.3323 -1.3496 -1.7995
 8617TIP3    H250047   1.905   6.710  10.860 -2.3474  0.4688  1.1074
 8618TIP3   OH250048   5.097   5.381  10.297  0.1131  0.2549  0.2568
 8618TIP3    H150049   5.167   5.443  10.277  0.2749 -0.1342 -0.4573
 8618TIP3    H250050   5.106   5.364  10.390  1.0074  0.1835  0.1712
 8619TIP3   OH250051   0.919   2.277  12.350  0.6205  0.3228  0.3526
 8619TIP3    H150052   1.007   2.250  12.376 -0.1179 -1.3076  1.2831
 8619TIP3    H250053   0.893   2.341  12.417  1.6406  2.0236 -0.7902
 8620TIP3   OH250054   5.361   1.496  10.645 -0.2671  0.0457 -0.1028
 8620TIP3    H150055   5.396   1.493  10.734 -1.6311 -1.2944  0.4341
 8620TIP3    H250056   5.308   1.417  10.637  1.7197 -1.1814 -2.9430
 8621TIP3   OH250057   6.371   1.685   9.464 -0.0622  0.3680  0.1525
 8621TIP3    H150058   6.360   1.591   9.454 -3.4584  0.8492 -2.5492
 8621TIP3    H250059   6.326   1.706   9.546  1.1940 -0.3624  1.0572
 8622TIP3   OH250060   6.613   3.921   9.487  0.1440  0.2554 -0.1247
 8622TIP3    H150061   6.616   3.947   9.578 -1.8311  0.3755 -0.0433
 8622TIP3    H250062   6.660   3.990   9.440 -0.9694  1.5239  0.5664
 8623TIP3   OH250063   3.303   4.414  10.007  0.5312 -0.4335  0.1077
 8623TIP3    H150064   3.290   4.351  10.078  1.2414 -0.2998  0.3599
 8623TIP3    H250065   3.298   4.362   9.928  0.8555 -0.7710  0.3051
 8624TIP3   OH250066   4.400   2.324  12.161 -0.1158  1.0209  0.1974
 8624TIP3    H150067   4.399   2.232  12.188 -0.1638  0.6750 -0.9503
 8624TIP3    H250068   4.456   2.367  12.227  3.4101 -0.5859 -1.4461
 8625TIP3   OH250069   3.245   1.853  10.194 -0.1031 -0.1113  1.1103
 8625TIP3    H150070   3.330   1.810  10.186  0.5598  0.7364  3.1277
 8625TIP3    H250071   3.265   1.943  10.218 -1.4424  1.5520 -3.0776
 8626TIP3   OH250072   0.624   3.563   9.354  0.3988 -0.2634  0.2212
 8626TIP3    H150073   0.658   3.652   9.348  0.3043 -0.2469 -0.0679
 8626TIP3    H250074   0.563   3.555   9.282  0.8532 -0.7559 -0.1201
 8627TIP3   OH250075   0.563   2.825  12.475  0.2977 -0.2877 -0.1790
 8627TIP3    H150076   0.513   2.759  12.524 -2.5543  2.5661  1.1083
 8627TIP3    H250077   0.606   2.775  12.406  1.5191 -4.0396  2.8892
 8628TIP3   OH250078   5.099   0.849  11.464  0.9768 -0.1205 -0.0322
 8628TIP3    H150079   5.030   0.791  11.496  0.5146  0.0002 -0.7866
 8628TIP3    H250080   5.168   0.790  11.434  0.5891 -0.2868 -0.6155
 8629TIP3   OH250081   4.972   4.556  10.625 -0.0590 -0.0856 -0.2597
 8629TIP3    H150082   4.891   4.601  10.650  1.5720  1.4944  2.6692
 8629TIP3    H250083   5.006   4.607  10.552 -0.2689  1.0560  0.4060
 8630TIP3   OH250084   2.854   0.864   9.741 -0.3546  0.2043 -0.1118
 8630TIP3    H150085   2.944   0.832   9.751 -0.2640  0.6451  0.5294
 8630TIP3    H250086   2.864   0.953   9.706 -0.4635  0.9549  1.6876
 8631TIP3   OH250087   2.646   2.149  11.960 -0.4673  0.0367  0.0460
 8631TIP3    H150088   2.557   2.166  11.990 -0.7720 -0.3428 -0.6112
 8631TIP3    H250089   2.673   2.230  11.917 -0.2614  0.3637  0.7863
 8632TIP3   OH250090   0.661   3.867   9.359  0.4347  0.6308  0.1531
 8632TIP3    H150091   0.570   3.885   9.336 -0.1274 -1.2950  0.6296
 8632TIP3    H250092   0.712   3.907   9.289 -0.8799  0.4050 -0.9778
 8633TIP3   OH250093   3.134   3.906   9.081  0.4454  0.1478 -0.2822
 8633TIP3    H150094   3.083   3.841   9.128  1.7446 -0.6566  0.0693
 8633TIP3    H250095   3.088   3.917   8.998  1.3367 -2.8761 -1.2873
 8634TIP3   OH250096   3.314   6.622   9.690 -0.1172  0.6549  0.3249
 8634TIP3    H150097   3.259   6.689   9.649 -0.7321 -0.1217 -0.1608
 8634TIP3    H250098   3.297   6.630   9.784  1.7306  2.8346  0.5516
 8635TIP3   OH250099   2.530   5.370  10.707 -0.0080  0.2454  0.1308
 8635TIP3    H150100   2.454   5.392  10.654 -0.5931  2.3168  1.6644
 8635TIP3    H250101   2.494   5.347  10.793  0.9858 -1.1675  0.1975
 8636TIP3   OH250102   4.941   1.279  11.650  0.0825 -0.0020 -0.2733
 8636TIP3    H150103   4.857   1.281  11.605 -0.0544  0.0010 -0.0204
 8636TIP3    H250104   4.941   1.196  11.698 -0.2135  0.4493  0.5439
 8637TIP3   OH250105   6.000   3.606   9.748 -0.7213 -0.3685 -0.3442
 8637TIP3    H150106   6.045   3.561   9.677  0.9080 -0.4554  0.6875
 8637TIP3    H250107   5.920   3.641   9.708 -0.3520 -1.2636 -1.9530
 8638TIP3   OH250108   5.525   5.106  10.808 -0.6743  0.3370 -0.5620
 8638TIP3    H150109   5.563   5.147  10.731  0.4633 -0.3945 -0.4144
 8638TIP3    H250110   5.453   5.052  10.773 -0.4855  0.3911 -1.0440
 8639TIP3   OH250111   2.129   3.005  10.106 -0.1796 -0.2390 -0.1236
 8639TIP3    H150112   2.103   2.940  10.171  1.9271 -1.2065 -0.1706
 8639TIP3    H250113   2.126   3.089  10.152 -0.5492 -0.6731  0.6527
 8640TIP3   OH250114   2.915   3.571  10.883 -0.1608 -0.8551  0.4576
 8640TIP3    H150115   2.997   3.530  10.855  0.7015  1.5087 -0.8014
 8640TIP3    H250116   2.887   3.623  10.808 -1.6232  0.1298  1.6206
 8641TIP3   OH250117   4.621   2.160  10.489  0.0677 -0.6192 -0.2306
 8641TIP3    H150118   4.650   2.164  10.580  1.1448 -1.9713 -0.4728
 8641TIP3    H250119   4.537   2.206  10.488 -0.1020 -0.8272  1.4914
 8642TIP3   OH250120   0.997   2.864  11.893  0.4193  0.3408 -0.2781
 8642TIP3    H150121   1.046   2.822  11.822  0.8171  0.0748  0.1438
 8642TIP3    H250122   0.970   2.792  11.950 -0.7719  0.4516 -0.6769
 8643TIP3   OH250123   3.195   0.047  12.235 -0.5298  0.4956 -0.1662
 8643TIP3    H150124   3.141  -0.020  12.277  0.3148  0.5419  1.0666
 8643TIP3    H250125   3.136   0.121  12.222 -1.2073 -0.0995 -0.5694
 8644TIP3   OH250126   5.784   0.985  12.745  0.1045 -0.2628 -0.1537
 8644TIP3    H150127   5.735   1.063  12.770 -0.0534  0.2055 -1.7935
 8644TIP3    H250128   5.868   0.994  12.790  0.1906  1.0048 -0.5299
 8645TIP3   OH250129   2.291   6.731  10.904 -0.1745  0.2885 -0.0218
 8645TIP3    H150130   2.317   6.795  10.970 -1.5278 -0.0001  0.8288
 8645TIP3    H250131   2.281   6.649  10.952 -1.3768  0.1219 -0.5203
 8646TIP3   OH250132   6.272   1.238  11.392  0.1812  0.1818 -0.4271
 8646TIP3    H150133   6.343   1.279  11.440 -0.5014  0.8338  0.0509
 8646TIP3    H250134   6.313   1.203  11.313  1.3298 -0.9385  0.6269
 8647TIP3   OH250135   5.745   4.657  12.634  0.3503 -0.4478 -0.1707
 8647TIP3    H150136   5.781   4.745  12.619  0.0383 -0.3167 -0.1501
 8647TIP3    H250137   5.763   4.639  12.726 -0.6130  0.0699  0.1337
 8648TIP3   OH250138   5.303   1.630  11.614  0.5479  0.4887 -0.4550
 8648TIP3    H150139   5.334   1.540  11.620  0.1622  0.4296  0.8710
 8648TIP3    H250140   5.223   1.632  11.665  1.6075  2.0270  1.3052
 8649TIP3   OH250141   4.972   3.208  10.749  0.3060  0.1942  0.5022
 8649TIP3    H150142   5.028   3.227  10.824 -0.2191  0.3886  0.8442
 8649TIP3    H250143   5.033   3.176  10.682  0.6402 -1.2300  1.4285
 8650TIP3   OH250144   4.473   0.119  10.048  0.2645 -0.3123  0.7674
 8650TIP3    H150145   4.390   0.155  10.079 -0.0735 -0.6654  0.2941
 8650TIP3    H250146   4.476   0.144   9.955  1.6056  1.3850  1.2041
 8651TIP3   OH250147   3.117   5.101  11.803 -0.2433  0.2862  0.1329
 8651TIP3    H150148   3.135   5.120  11.895  1.9105 -0.8362  0.0033
 8651TIP3    H250149   3.035   5.052  11.805  0.1793 -0.4283  1.5564
 8652TIP3   OH250150   0.700   5.824  10.260  0.1241  0.9795  0.1075
 8652TIP3    H150151   0.781   5.794  10.300  1.6447  2.2188 -1.8980
 8652TIP3    H250152   0.649   5.860  10.333  1.2963  0.0854  1.4125
 8653TIP3   OH250153   1.122   5.782  11.748 -0.2425  0.2755 -0.5062
 8653TIP3    H150154   1.099   5.690  11.733 -1.5427  0.6952 -1.2650
 8653TIP3    H250155   1.123   5.791  11.843 -0.0743 -0.5261 -0.4224
 8654TIP3   OH250156   2.417   2.801  11.855 -0.4627 -0.0481 -0.2346
 8654TIP3    H150157   2.502   2.842  11.871 -1.0873  0.6466  1.6610
 8654TIP3    H250158   2.356   2.875  11.850 -1.0658 -0.5728 -0.7790
 8655TIP3   OH250159   1.156   2.711  10.290 -0.5006 -0.1404 -0.2280
 8655TIP3    H150160   1.068   2.750  10.284 -0.2085  0.3375 -2.1348
 8655TIP3    H250161   1.200   2.762  10.358 -1.6050 -0.2382  0.5992
 8656TIP3   OH250162   2.638   4.688   9.860 -0.4910 -0.8110  0.0919
 8656TIP3    H150163   2.591   4.617   9.903 -1.4621 -0.0100  0.3731
 8656TIP3    H250164   2.630   4.669   9.767 -0.1142 -1.4548  0.1810
 8657TIP3   OH250165   6.085   3.324  10.255  0.3514 -0.3005 -0.0807
 8657TIP3    H150166   6.133   3.347  10.176 -0.7473 -1.3586 -1.0921
 8657TIP3    H250167   6.119   3.237  10.279  0.8915  0.1398  0.8005
 8658TIP3   OH250168   1.465   4.861  10.325 -0.1440 -0.4739  0.1080
 8658TIP3    H150169   1.544   4.876  10.273  0.0240  1.5698  0.8570
 8658TIP3    H250170   1.393   4.891  10.269 -0.1543 -0.1142  0.3128
 8659TIP3   OH250171   4.729   3.881   9.643  0.1761 -0.2671  1.0416
 8659TIP3    H150172   4.760   3.971   9.633 -0.0646 -0.4120 -1.5406
 8659TIP3    H250173   4.807   3.827   9.637 -0.0561 -0.4083 -1.5055
 8660TIP3   OH250174   5.248   6.281   9.735 -0.2843  0.0348  0.0560
 8660TIP3    H150175   5.215   6.362   9.773  0.4357  0.4773 -0.2420
 8660TIP3    H250176   5.224   6.213   9.798 -1.2197  0.4251  0.1311
 8661TIP3   OH250177   6.312   4.149  11.847  0.1266 -0.1996 -0.3371
 8661TIP3    H150178   6.307   4.074  11.907  1.9076 -1.0405 -1.1854
 8661TIP3    H250179   6.285   4.114  11.762  0.8827  0.1333 -0.7223
 8662TIP3   OH250180   2.323   6.566  12.022  0.2573  0.2478 -0.3058
 8662TIP3    H150181   2.331   6.530  11.934  0.8350 -0.6200  0.0879
 8662TIP3    H250182   2.347   6.494  12.080  0.2889  0.9270  0.5494
 8663TIP3   OH250183   2.023   0.647  11.045  0.5799 -0.3508  0.6404
 8663TIP3    H150184   2.066   0.732  11.048 -0.5564  0.2512  0.3513
 8663TIP3    H250185   2.003   0.627  11.136 -0.5515  0.4353  0.5735
 8664TIP3   OH250186   5.594   0.374  11.621  0.0130  0.2061 -0.3945
 8664TIP3    H150187   5.601   0.363  11.527  1.4669 -2.3581 -0.0738
 8664TIP3    H250188   5.672   0.425  11.645 -1.5093  2.8944 -0.7283
 8665TIP3   OH250189   4.143   4.624   9.298 -0.6013  0.0070  0.3578
 8665TIP3    H150190   4.112   4.607   9.209 -0.3397 -1.3446  0.4997
 8665TIP3    H250191   4.104   4.708   9.321  2.0409  2.1075 -2.2246
 8666TIP3   OH250192   5.058   4.751  11.994 -0.5318  0.4628  0.3801
 8666TIP3    H150193   5.017   4.665  12.004  1.7755 -0.9183 -1.0075
 8666TIP3    H250194   5.032   4.800  12.072 -1.8163 -1.5389  1.2842
 8667TIP3   OH250195   4.721   1.622   9.805  0.0949  0.2843 -0.3996
 8667TIP3    H150196   4.649   1.602   9.864 -0.8254  0.0669 -1.5420
 8667TIP3    H250197   4.793   1.650   9.862 -0.7889  0.2098  0.7863
 8668TIP3   OH250198   3.721   6.157  12.488  0.1234  0.3171  0.3699
 8668TIP3    H150199   3.625   6.157  12.490  0.0759  2.1225  0.2240
 8668TIP3    H250200   3.746   6.223  12.553  1.2976 -0.5904  0.8617
 8669TIP3   OH250201   2.480   0.007  12.203  0.1413 -0.0566 -0.1747
 8669TIP3    H150202   2.409  -0.011  12.141  0.8331  3.4042 -2.2440
 8669TIP3    H250203   2.553  -0.045  12.171 -0.2564 -0.2936 -0.7210
 8670TIP3   OH250204   2.177   2.184   9.754  0.5790  0.1470  0.4759
 8670TIP3    H150205   2.174   2.260   9.696  1.3686  0.8019  1.2610
 8670TIP3    H250206   2.086   2.158   9.765  0.4296 -0.1488 -1.2357
 8671TIP3   OH250207   1.767   0.727   9.856 -0.3157 -0.5317 -0.0226
 8671TIP3    H150208   1.761   0.662   9.926  1.0865 -1.5671 -0.8107
 8671TIP3    H250209   1.747   0.678   9.776 -2.8131  0.8262 -0.3485
 8672TIP3   OH250210   5.740   4.855  10.069 -0.3803  0.2552 -0.2906
 8672TIP3    H150211   5.830   4.884  10.084 -0.1230 -1.0335  0.9235
 8672TIP3    H250212   5.722   4.879   9.978  1.5333 -0.2863 -0.8747
 8673TIP3   OH250213   6.018   2.565  10.191  0.1662 -0.3349  0.1775
 8673TIP3    H150214   5.938   2.589  10.145  0.7135 -0.0416 -0.6499
 8673TIP3    H250215   5.997   2.577  10.284 -0.3519  0.9699 -0.0876
 8674TIP3   OH250216   3.967   2.821  10.514 -0.0271  0.1856 -0.3771
 8674TIP3    H150217   3.916   2.751  10.555 -1.5248  0.4179 -1.7435
 8674TIP3    H250218   3.940   2.900  10.559  1.1565  0.0087  0.7008
 8675TIP3   OH250219   2.206   2.113  11.881 -0.1039  0.1003  0.4023
 8675TIP3    H150220   2.263   2.058  11.827  0.4686  0.0908  1.0068
 8675TIP3    H250221   2.168   2.053  11.945 -2.0013 -0.1995 -0.8988
 8676TIP3   OH250222   0.804   3.554   9.978  0.8579  1.0218  0.0157
 8676TIP3    H150223   0.866   3.507  10.035  0.2629  1.0205  0.6870
 8676TIP3    H250224   0.859   3.604   9.919  1.5295 -0.6011 -0.8101
 8677TIP3   OH250225   2.870   2.483   9.743 -0.0932  0.8980  0.2587
 8677TIP3    H150226   2.918   2.401   9.730  0.3457  1.2575 -0.4181
 8677TIP3    H250227   2.855   2.486   9.838  2.1989  1.3094  0.6675
 8678TIP3   OH250228   2.713   4.120  10.791 -0.2772 -0.3425 -0.3656
 8678TIP3    H150229   2.747   4.207  10.770 -1.4420  0.4612  0.9203
 8678TIP3    H250230   2.650   4.102  10.722  1.0664 -0.8853 -1.5146
 8679TIP3   OH250231   2.551   0.415  11.077  0.3717  0.3741  0.1020
 8679TIP3    H150232   2.631   0.459  11.050  0.0929  1.7452  1.4029
 8679TIP3    H250233   2.493   0.485  11.107 -0.7664 -0.7247  0.5810
 8680TIP3   OH250234   1.370   3.985   9.602 -0.2879  0.4321  0.1173
 8680TIP3    H150235   1.311   3.911   9.616 -0.2342  0.5238  0.9177
 8680TIP3    H250236   1.318   4.061   9.629 -0.2240  0.6481 -0.3628
 8681TIP3   OH250237   4.378   0.845  11.542 -0.2597  0.6077 -0.0219
 8681TIP3    H150238   4.442   0.861  11.611  0.8180  0.5584 -0.9974
 8681TIP3    H250239   4.300   0.815  11.589  0.4317  0.6360  1.1791
 8682TIP3   OH250240   3.726   5.419   9.892  0.3066  0.2553  0.5294
 8682TIP3    H150241   3.745   5.494   9.835  1.7097  0.0605  0.7189
 8682TIP3    H250242   3.636   5.434   9.921  0.8081  2.3254  1.2118
 8683TIP3   OH250243   5.989   1.080  11.055 -0.2329 -0.0146 -0.4517
 8683TIP3    H150244   6.055   1.150  11.051  0.3433 -0.3172  1.9074
 8683TIP3    H250245   6.014   1.020  10.986  0.4058  1.1712 -1.2882
 8684TIP3   OH250246   5.673   5.772  12.499  0.2083  0.8114 -0.5225
 8684TIP3    H150247   5.595   5.717  12.487  0.4236  0.0486  1.3097
 8684TIP3    H250248   5.656   5.849  12.445 -1.8544  0.6918 -0.1167
 8685TIP3   OH250249   2.087   0.904  12.276  0.3396  0.0917 -0.1533
 8685TIP3    H150250   2.093   0.858  12.360  0.5740 -0.0747 -0.2594
 8685TIP3    H250251   2.172   0.889  12.235  0.5726  0.9696 -0.0138
 8686TIP3   OH250252   2.142   4.112  11.556 -0.5105  0.2767 -0.2325
 8686TIP3    H150253   2.130   4.186  11.497 -0.3538  0.2639 -0.2806
 8686TIP3    H250254   2.053   4.082  11.575 -0.5411 -0.7037 -1.7321
 8687TIP3   OH250255   2.219   6.714  10.622  0.1622  0.5416 -0.0429
 8687TIP3    H150256   2.306   6.690  10.589 -0.3294  0.6054 -1.4511
 8687TIP3    H250257   2.231   6.720  10.717  0.9183 -2.8045  0.2027
 8688TIP3   OH250258   6.489   5.455  10.964  0.4048 -0.0075  0.2806
 8688TIP3    H150259   6.571   5.435  10.919  0.2073  0.4108 -0.2622
 8688TIP3    H250260   6.427   5.475  10.895  0.5887  2.5493  0.7718
 8689TIP3   OH250261   2.898   4.047  11.369  0.0990  0.8051 -0.4609
 8689TIP3    H150262   2.920   4.095  11.289  1.3985  1.9875  0.5488
 8689TIP3    H250263   2.929   4.103  11.440 -1.1940 -0.1157  0.9062
 8690TIP3   OH250264   4.048   0.557   9.728  0.1472 -0.6733  0.1312
 8690TIP3    H150265   4.017   0.480   9.775 -1.1787  0.0489  0.4831
 8690TIP3    H250266   4.004   0.553   9.643  1.0930 -0.9824 -0.3590
 8691TIP3   OH250267   6.378   3.428  10.920  0.1403  0.0296  0.3262
 8691TIP3    H150268   6.432   3.349  10.917 -0.0277 -0.1057  0.7611
 8691TIP3    H250269   6.327   3.419  11.000  0.6021  0.8964  0.7262
 8692TIP3   OH250270   5.467   3.668  11.092  1.4065 -0.2618 -0.2647
 8692TIP3    H150271   5.517   3.595  11.129  3.7147  0.6776 -1.3015
 8692TIP3    H250272   5.493   3.744  11.143 -0.0156  0.0839 -0.0003
 8693TIP3   OH250273   6.031   1.038  12.892 -0.1011  0.3519 -0.6725
 8693TIP3    H150274   6.032   1.130  12.920  0.1990 -0.2390  1.4714
 8693TIP3    H250275   6.122   1.018  12.870 -0.5342  1.1870 -3.6518
 8694TIP3   OH250276   3.377   0.943  10.025  0.1976  0.1725  0.0189
 8694TIP3    H150277   3.285   0.935   9.999  0.4311  0.5922 -0.9771
 8694TIP3    H250278   3.422   0.975   9.947  1.6838 -2.7054 -0.4644
 8695TIP3   OH250279   2.387   0.626  10.599 -0.2966 -0.5431  0.1260
 8695TIP3    H150280   2.347   0.675  10.671  0.2948 -1.6879  1.2770
 8695TIP3    H250281   2.322   0.629  10.529 -0.9546  0.4751  0.7403
 8696TIP3   OH250282   6.625   3.185  10.601 -0.9972  0.1864  0.6092
 8696TIP3    H150283   6.619   3.100  10.558  0.4041 -0.2109  1.1516
 8696TIP3    H250284   6.574   3.244  10.546 -0.8942 -0.7255 -0.4854
 8697TIP3   OH250285   5.307   3.492  11.967  0.1568  0.4546 -0.4964
 8697TIP3    H150286   5.311   3.397  11.978 -0.0828  0.1694 -2.4475
 8697TIP3    H250287   5.346   3.527  12.047 -0.1501 -1.2662  0.4606
 8698TIP3   OH250288   0.753   3.105   9.579 -0.3461 -0.3079  0.1182
 8698TIP3    H150289   0.755   3.010   9.590 -0.3840 -0.1904  1.1997
 8698TIP3    H250290   0.776   3.140   9.665 -1.1938  0.6792 -0.0366
 8699TIP3   OH250291   1.496   4.829  11.257  0.3379  0.2633  0.4057
 8699TIP3    H150292   1.462   4.904  11.305 -1.7132 -0.6174  0.4443
 8699TIP3    H250293   1.572   4.863  11.210 -0.8344  2.5198 -0.0151
 8700TIP3   OH250294   5.767   1.884  11.134 -0.3455  0.2914  0.3900
 8700TIP3    H150295   5.692   1.938  11.160 -1.0483  0.3604 -1.6585
 8700TIP3    H250296   5.750   1.860  11.043  0.8112 -1.9549  0.6808
 8701TIP3   OH250297   2.892   1.929  12.648 -0.3066 -0.0058  0.4639
 8701TIP3    H150298   2.892   2.015  12.606 -0.5445 -0.4529 -0.4750
 8701TIP3    H250299   2.965   1.934  12.711  0.6748  0.3794 -0.6570
 8702TIP3   OH250300   4.081   0.217  12.550 -0.0563 -0.4786  0.0146
 8702TIP3    H150301   4.142   0.264  12.494 -1.1561  0.3343 -0.5319
 8702TIP3    H250302   4.118   0.129  12.558  0.2987 -0.5038 -1.6892
 8703TIP3   OH250303   0.488   6.370  10.091 -0.1986 -0.5788  0.3436
 8703TIP3    H150304   0.533   6.286  10.088 -0.4563 -0.6827 -1.1978
 8703TIP3    H250305   0.398   6.349  10.115 -1.0023 -1.1331 -2.7502
 8704TIP3   OH250306   3.332   5.454  10.679  0.0335 -0.7358  0.3503
 8704TIP3    H150307   3.285   5.537  10.668  0.5829 -0.5754 -0.9376
 8704TIP3    H250308   3.388   5.468  10.755 -0.6090 -0.2820  0.7542
 8705TIP3   OH250309   2.215   2.303  11.560 -0.1562  0.0222 -0.3772
 8705TIP3    H150310   2.209   2.341  11.473 -0.8917 -0.2715 -0.4643
 8705TIP3    H250311   2.304   2.323  11.590  0.8645 -1.6964 -2.0532
 8706TIP3   OH250312   3.889   6.022  10.674  0.3276  0.1440  0.8463
 8706TIP3    H150313   3.934   6.028  10.759  1.4780  1.3054  0.1916
 8706TIP3    H250314   3.887   6.113  10.642 -0.2757 -0.2506 -0.2889
 8707TIP3   OH250315   6.131   0.802  12.622 -0.6354 -0.1153 -0.2250
 8707TIP3    H150316   6.160   0.796  12.713 -1.6106  0.5905  0.1519
 8707TIP3    H250317   6.180   0.733  12.577  1.3314  0.7748  0.4290
 8708TIP3   OH250318   0.850   4.630  10.738 -0.1084  0.2622  0.0190
 8708TIP3    H150319   0.828   4.539  10.757  2.2086 -0.6095 -1.0725
 8708TIP3    H250320   0.806   4.681  10.807 -0.1841 -1.8040  1.5805
 8709TIP3   OH250321   6.149   1.850  10.187  0.0657  0.2996  0.1347
 8709TIP3    H150322   6.189   1.792  10.252  0.9489  1.8160  1.0040
 8709TIP3    H250323   6.217   1.914  10.167 -0.1798 -0.1035 -2.3306
 8710TIP3   OH250324   5.888   1.778  12.169 -0.3283  0.2528 -0.1065
 8710TIP3    H150325   5.879   1.791  12.075  0.7990  0.7774 -0.1608
 8710TIP3    H250326   5.898   1.866  12.206  2.2484 -0.0459  0.1185
 8711TIP3   OH250327   4.486   3.577  11.604 -0.1690 -0.5647 -0.3224
 8711TIP3    H150328   4.425   3.506  11.586 -0.3347 -0.0131 -2.0604
 8711TIP3    H250329   4.449   3.654  11.560  0.4539  0.4182  0.7767
 8712TIP3   OH250330   4.791   2.120  12.712  0.3344 -0.2391 -0.1531
 8712TIP3    H150331   4.853   2.179  12.755  0.1219  0.1967 -0.4358
 8712TIP3    H250332   4.819   2.033  12.739  0.8899 -0.0323 -0.0369
 8713TIP3   OH250333   5.794   1.116   9.477 -0.1829  0.1911  0.2114
 8713TIP3    H150334   5.810   1.071   9.560 -2.1580 -0.3774  0.3416
 8713TIP3    H250335   5.766   1.047   9.417  2.4121  0.3754 -1.3755
 8714TIP3   OH250336   1.876   5.931  10.954  0.6505 -0.5684  0.3095
 8714TIP3    H150337   1.791   5.892  10.976  0.7871 -0.5524  0.8795
 8714TIP3    H250338   1.882   5.923  10.858 -0.2413 -0.0649  0.1989
 8715TIP3   OH250339   3.346   5.157   9.508 -0.3074  0.6186  0.0435
 8715TIP3    H150340   3.319   5.203   9.587 -0.0393  0.5295  0.1878
 8715TIP3    H250341   3.423   5.106   9.535  0.5023  1.4843 -0.5456
 8716TIP3   OH250342   3.458   0.239  11.985 -0.3045  0.1702 -0.4449
 8716TIP3    H150343   3.367   0.258  12.004 -0.1984 -0.6418  1.0029
 8716TIP3    H250344   3.464   0.144  11.987  0.6237  0.2205 -0.2092
 8717TIP3   OH250345   5.469   3.445   9.813  0.2748  0.5929 -0.6934
 8717TIP3    H150346   5.554   3.408   9.790 -0.2198  0.2009 -1.9350
 8717TIP3    H250347   5.409   3.413   9.746 -0.9533  0.5143  0.4083
 8718TIP3   OH250348   1.609   4.056   9.870 -0.6971  0.3433 -0.1201
 8718TIP3    H150349   1.513   4.056   9.873 -0.6795  0.4728  1.0362
 8718TIP3    H250350   1.635   4.078   9.959  0.4136  0.1736 -0.3925
 8719TIP3   OH250351   0.755   4.314  11.472  0.3168 -0.2079  0.0303
 8719TIP3    H150352   0.719   4.225  11.471 -1.5085  0.4778 -0.8381
 8719TIP3    H250353   0.840   4.307  11.428 -0.0270 -1.4375 -0.4688
 8720TIP3   OH250354   0.306   1.644   9.225 -0.1684  0.2338 -0.4401
 8720TIP3    H150355   0.278   1.734   9.242  0.1129  0.1019  0.8440
 8720TIP3    H250356   0.377   1.652   9.162  0.0103  0.9286 -0.1591
 8721TIP3   OH250357   2.154   3.478  11.190 -0.2652  0.1254  0.0750
 8721TIP3    H150358   2.223   3.502  11.252  0.5214  0.1563 -0.7892
 8721TIP3    H250359   2.083   3.444  11.245  0.6027 -0.3186  0.9598
 8722TIP3   OH250360   5.566   1.580   9.614 -0.1614  0.6674 -0.6415
 8722TIP3    H150361   5.571   1.491   9.581  1.0195 -0.0400  1.2815
 8722TIP3    H250362   5.505   1.576   9.688 -1.1913  1.7808 -1.3822
 8723TIP3   OH250363   3.494   3.539  12.337 -0.0029 -0.0382  0.6004
 8723TIP3    H150364   3.474   3.500  12.423  0.8988 -0.4682  0.6286
 8723TIP3    H250365   3.538   3.621  12.358  2.1438 -1.1144  0.6183
 8724TIP3   OH250366   6.338   4.627   9.776 -0.0036  0.2811 -0.3491
 8724TIP3    H150367   6.265   4.689   9.784 -0.3061 -0.1812  0.6912
 8724TIP3    H250368   6.300   4.551   9.731 -0.2344 -0.0372  0.3615
 8725TIP3   OH250369   0.685   0.334  10.407  0.0483 -0.1077  0.0426
 8725TIP3    H150370   0.726   0.275  10.470 -0.3307 -0.1754  0.2305
 8725TIP3    H250371   0.623   0.279  10.359  0.4679 -0.0981 -0.5221
 8726TIP3   OH250372   1.773   0.024  11.188  0.2522  0.1987  0.0167
 8726TIP3    H150373   1.759   0.111  11.150  0.2044 -0.0868 -0.6420
 8726TIP3    H250374   1.737   0.029  11.276  1.1394  1.1391  0.3374
 8727TIP3   OH250375   1.985   0.564  11.304  0.3403 -0.1061 -0.3141
 8727TIP3    H150376   2.073   0.544  11.336  0.6830  2.1337  0.3529
 8727TIP3    H250377   1.937   0.482  11.313  2.3149 -1.3615 -0.6080
 8728TIP3   OH250378   1.873   6.260  10.908 -0.0393 -0.1268 -0.1434
 8728TIP3    H150379   1.922   6.179  10.896 -0.6308 -0.9826  2.5895
 8728TIP3    H250380   1.936   6.320  10.948 -0.1978  0.0611 -0.1748
 8729TIP3   OH250381   6.433   1.630  10.614 -0.0831  0.7003  0.4355
 8729TIP3    H150382   6.526   1.645  10.633 -0.2463  0.9045  1.0970
 8729TIP3    H250383   6.414   1.687  10.540  1.0758 -1.6165 -1.7999
 8730TIP3   OH250384   0.996   1.888  11.321  0.3177  0.5521  0.1161
 8730TIP3    H150385   0.942   1.877  11.399  0.6205  0.6654  0.3395
 8730TIP3    H250386   0.958   1.965  11.277  0.3111  0.6457  0.2862
 8731TIP3   OH250387   2.642   4.166   9.474  0.0297 -0.4034 -0.4661
 8731TIP3    H150388   2.591   4.132   9.547  0.0392  1.6386  0.5680
 8731TIP3    H250389   2.652   4.092   9.415 -1.8235 -1.5546  0.5751
 8732TIP3   OH250390   3.414   1.484  10.958  0.1981 -0.2962 -0.0480
 8732TIP3    H150391   3.347   1.463  11.023 -0.8740  1.2771 -0.5698
 8732TIP3    H250392   3.423   1.580  10.963  1.9139 -0.4038 -0.4897
 8733TIP3   OH250393   4.019   1.192   9.738  0.0614  0.0420 -0.2711
 8733TIP3    H150394   4.012   1.213   9.831 -0.6183  0.1009 -0.3297
 8733TIP3    H250395   4.084   1.121   9.735 -1.0823 -1.0893  0.4380
 8734TIP3   OH250396   3.993   4.863   9.344 -0.3145  0.3673 -0.1979
 8734TIP3    H150397   3.928   4.927   9.314 -1.1981  0.2201  1.2670
 8734TIP3    H250398   4.031   4.904   9.422  0.5587 -0.0422 -0.4001
 8735TIP3   OH250399   6.711   2.914  12.171  0.5945 -0.2717 -0.2058
 8735TIP3    H150400   6.632   2.860  12.175  0.2460  0.3076  1.6163
 8735TIP3    H250401   6.779   2.855  12.137 -0.3951 -1.0183 -0.9560
 8736TIP3   OH250402   4.046   0.792   9.974  0.0091  0.3101 -0.0824
 8736TIP3    H150403   3.953   0.767   9.975  0.2277 -0.8585  3.1065
 8736TIP3    H250404   4.062   0.828  10.061  2.4865  0.8379 -0.6850
 8737TIP3   OH250405   1.022   4.305  11.385 -0.5487  0.0410 -0.4037
 8737TIP3    H150406   1.066   4.282  11.467 -0.9487 -1.1104 -0.4944
 8737TIP3    H250407   1.082   4.366  11.342  0.9327 -1.3855 -0.4628
 8738TIP3   OH250408   0.133   2.307  12.021  0.7407  0.1084  0.4300
 8738TIP3    H150409   0.126   2.402  12.007  1.2895  0.0947  0.0148
 8738TIP3    H250410   0.082   2.291  12.100  1.3086  0.8658  0.9628
 8739TIP3   OH250411   6.471   3.966  11.061 -0.8454  0.1507 -0.2905
 8739TIP3    H150412   6.450   4.030  10.994 -1.3462 -1.0294 -1.2935
 8739TIP3    H250413   6.556   3.994  11.096  0.4768 -0.3693 -2.8949
 8740TIP3   OH250414   5.119   2.345  12.168 -0.4649  0.2557  0.2825
 8740TIP3    H150415   5.120   2.260  12.211 -0.0285  0.6558  1.0944
 8740TIP3    H250416   5.078   2.404  12.232 -0.1001  0.7955  0.0250
 8741TIP3   OH250417   2.320   0.203  11.434 -0.1566  0.1587  0.2095
 8741TIP3    H150418   2.383   0.265  11.470  0.3141 -0.0091 -0.3054
 8741TIP3    H250419   2.366   0.119  11.433 -0.2130  0.1238 -0.5945
 8742TIP3   OH250420   3.656   5.707  11.391 -0.2930  0.4791 -0.6720
 8742TIP3    H150421   3.593   5.711  11.319 -0.1132 -0.8558 -0.9339
 8742TIP3    H250422   3.673   5.614  11.402  1.1200  0.7723 -0.1512
 8743TIP3   OH250423   4.682   1.601  12.095 -0.0345  0.0602  0.6804
 8743TIP3    H150424   4.664   1.621  12.187  1.0099 -1.8325  1.3407
 8743TIP3    H250425   4.653   1.511  12.084 -0.1446  0.2583 -0.8676
 8744TIP3   OH250426   5.182   1.584  10.445  0.0136 -0.3423 -0.5313
 8744TIP3    H150427   5.113   1.547  10.501 -0.5142 -0.5401 -1.3057
 8744TIP3    H250428   5.262   1.573  10.497  0.1473 -3.8530 -1.2229
 8745TIP3   OH250429   3.228   3.376  10.272  0.2363 -0.0141  0.9071
 8745TIP3    H150430   3.132   3.376  10.267  0.3193  0.0922 -1.8459
 8745TIP3    H250431   3.253   3.465  10.251  0.9844 -0.0177  1.7064
 8746TIP3   OH250432   5.805   6.292  12.297  0.6658  0.3569  0.0320
 8746TIP3    H150433   5.876   6.229  12.299 -0.7237 -1.2669  1.2760
 8746TIP3    H250434   5.726   6.241  12.314 -0.8130  2.1099 -1.0711
 8747TIP3   OH250435   4.349   5.327  11.547  0.2110  0.3556  0.3831
 8747TIP3    H150436   4.357   5.401  11.607  1.3016  1.5600 -1.1591
 8747TIP3    H250437   4.318   5.365  11.465  0.4956 -0.9424 -0.3651
 8748TIP3   OH250438   3.452   2.506  11.890 -0.1346  0.5833 -0.0775
 8748TIP3    H150439   3.357   2.523  11.890 -0.0837  0.9299 -1.1515
 8748TIP3    H250440   3.480   2.530  11.978 -0.9195  1.2149  0.0172
 8749TIP3   OH250441   6.589   6.594  10.283 -0.0507 -0.0031 -0.0881
 8749TIP3    H150442   6.533   6.630  10.214 -0.0804  2.0765  0.9352
 8749TIP3    H250443   6.535   6.527  10.325 -2.0639  2.1835  1.1172
 8750TIP3   OH250444   5.194   3.975  11.512 -0.0449  0.0271  0.0301
 8750TIP3    H150445   5.145   4.031  11.572 -2.6791  0.1873 -2.0552
 8750TIP3    H250446   5.184   3.887  11.546 -0.1707  0.2853  0.6623
 8751TIP3   OH250447   3.252   0.746  10.170 -0.1880  0.4145  0.3488
 8751TIP3    H150448   3.290   0.752  10.258  1.6522 -0.7141 -0.2965
 8751TIP3    H250449   3.302   0.810  10.118  0.0192 -0.2234 -0.2594
 8752TIP3   OH250450   6.410   3.719  10.922  0.5303  0.5297  0.1877
 8752TIP3    H150451   6.383   3.753  11.007  2.3554 -0.4431  1.1950
 8752TIP3    H250452   6.403   3.624  10.930 -0.9855  0.4378 -1.3848
 8753TIP3   OH250453   1.798   0.029   9.384 -0.3389 -0.5134 -1.1857
 8753TIP3    H150454   1.765  -0.047   9.433  0.4634  0.1985  0.5790
 8753TIP3    H250455   1.888   0.041   9.417  0.0325  0.3700 -2.4512
 8754TIP3   OH250456   6.064   1.111   9.558 -1.1978 -0.8569  0.4401
 8754TIP3    H150457   6.068   1.153   9.644  0.3883 -0.0903  0.0331
 8754TIP3    H250458   5.973   1.121   9.531 -1.3376  0.4488  1.2923
 8755TIP3   OH250459   1.939   5.691  12.573 -0.0203  0.6850  0.1381
 8755TIP3    H150460   1.909   5.708  12.662  0.7749 -0.1315  0.5791
 8755TIP3    H250461   1.945   5.595  12.568 -0.0304  0.7278 -0.7864
 8756TIP3   OH250462   4.482   3.852  11.351 -0.2115  0.5747  0.1440
 8756TIP3    H150463   4.433   3.805  11.418 -0.2563  1.1793  0.5466
 8756TIP3    H250464   4.432   3.932  11.335 -0.6695  0.0457 -1.2566
 8757TIP3   OH250465   1.023   0.047  10.872  0.6708 -0.6084 -0.0895
 8757TIP3    H150466   0.973  -0.035  10.871 -1.7629  0.7571  1.1187
 8757TIP3    H250467   1.000   0.088  10.956  0.7004  1.9492 -1.2408
 8758TIP3   OH250468   4.481   5.991  10.881  0.7775 -0.2057  0.3533
 8758TIP3    H150469   4.445   5.930  10.817  1.1182 -0.8147  0.7277
 8758TIP3    H250470   4.440   5.967  10.964  3.4166 -2.2416  1.2000
 8759TIP3   OH250471   0.988   5.996  11.632 -0.5309 -0.1006  0.0815
 8759TIP3    H150472   1.032   6.025  11.553 -1.1821 -1.1552 -0.6995
 8759TIP3    H250473   1.026   5.910  11.651 -0.7856 -0.1106  0.5697
 8760TIP3   OH250474   2.293   6.107  11.690 -0.2069 -0.1123 -0.3040
 8760TIP3    H150475   2.378   6.102  11.735  0.0425  2.8332 -0.2820
 8760TIP3    H250476   2.259   6.017  11.694  3.4005 -1.7100 -1.3757
 8761TIP3   OH250477   3.458   5.344   9.998  0.0988 -0.3793 -0.1669
 8761TIP3    H150478   3.466   5.391  10.081  1.1594 -0.2999 -0.2999
 8761TIP3    H250479   3.470   5.252  10.021  0.9401 -0.3099 -0.2918
 8762TIP3   OH250480   4.487   0.720  10.184  0.1581 -0.2047 -0.1721
 8762TIP3    H150481   4.512   0.629  10.203  0.0268  0.2151  2.3372
 8762TIP3    H250482   4.525   0.738  10.098 -0.0925 -2.7235 -0.8787
 8763TIP3   OH250483   4.459   5.983  12.151 -0.1501  0.0646 -0.0452
 8763TIP3    H150484   4.415   5.944  12.227 -0.9445 -0.9155 -0.9703
 8763TIP3    H250485   4.535   6.027  12.188  0.8695 -2.4371  1.1181
 8764TIP3   OH250486   0.228   6.007  18.357 -0.9021  0.0960 -0.2376
 8764TIP3    H150487   0.271   6.057  18.287  0.1271 -0.8772 -0.3235
 8764TIP3    H250488   0.142   6.047  18.364 -0.1158  1.9301 -0.2655
 8765TIP3   OH250489   0.221   2.820  13.393  0.9493 -0.2313  0.3607
 8765TIP3    H150490   0.257   2.763  13.325  3.6932  1.8375 -0.0825
 8765TIP3    H250491   0.127   2.825  13.374  1.1873 -1.9135 -1.5471
 8766TIP3   OH250492   5.274   2.374  11.748 -0.2441  0.4053 -0.5426
 8766TIP3    H150493   5.231   2.298  11.708  0.5257 -1.5247  1.9831
 8766TIP3    H250494   5.209   2.407  11.811 -0.2271  1.2707 -0.9771
 8767TIP3   OH250495   3.165   5.561   9.725 -0.4216 -0.3641 -0.4372
 8767TIP3    H150496   3.162   5.642   9.776  0.0704 -0.0642 -0.8758
 8767TIP3    H250497   3.079   5.555   9.684 -1.4616 -1.4586  1.6805
 8768TIP3   OH250498   2.504   2.272   9.984 -0.0531 -0.1050  0.1601
 8768TIP3    H150499   2.487   2.179   9.971 -3.0373  0.3626  0.1032
 8768TIP3    H250500   2.483   2.312   9.900 -0.1420  0.7870  0.5971
 8769TIP3   OH250501   3.722   0.625  11.353  0.0345 -0.6897 -0.5614
 8769TIP3    H150502   3.734   0.713  11.319  1.2369 -0.3669  0.5949
 8769TIP3    H250503   3.811   0.597  11.378 -0.4425 -1.8834 -0.1058
 8770TIP3   OH250504   3.078   6.120   9.956 -0.1271 -0.7097  0.3925
 8770TIP3    H150505   3.069   6.212   9.931 -0.6772 -0.0078  2.9006
 8770TIP3    H250506   3.165   6.095   9.923 -0.1641  0.5407 -0.7560
 8771TIP3   OH250507   3.493   5.442   9.519  0.4001 -0.7814  0.3138
 8771TIP3    H150508   3.455   5.354   9.510  0.9173 -0.9668 -0.1080
 8771TIP3    H250509   3.579   5.427   9.558  0.2833 -0.4112  0.7227
 8772TIP3   OH250510   1.831   1.409   9.948 -0.2046  0.3314  0.0243
 8772TIP3    H150511   1.808   1.419  10.041  0.6934  0.2254  0.2662
 8772TIP3    H250512   1.859   1.496   9.921  2.5414 -0.2425  0.7200
 8773TIP3   OH250513   4.849   4.407   9.613  0.7067  0.2534 -0.6305
 8773TIP3    H150514   4.884   4.462   9.542  0.4716  2.4694  0.8834
 8773TIP3    H250515   4.756   4.429   9.616  0.4392 -0.8487 -0.4987
 8774TIP3   OH250516   0.199   1.681  11.792  0.4112 -0.1346  0.3919
 8774TIP3    H150517   0.261   1.635  11.849  1.9570  1.5494  0.1586
 8774TIP3    H250518   0.234   1.668  11.703 -0.3735 -0.3328  0.1034
 8775TIP3   OH250519   6.318   2.651  12.331 -0.4278 -0.1291 -0.0792
 8775TIP3    H150520   6.306   2.676  12.423 -0.0746  0.3851 -0.1709
 8775TIP3    H250521   6.286   2.561  12.327 -1.0597  0.0648  0.4054
 8776TIP3   OH250522   5.612   3.080  19.698  0.1673 -0.3249 -0.0931
 8776TIP3    H150523   5.560   3.160  19.708  0.3913 -0.2975  1.0841
 8776TIP3    H250524   5.586   3.025  19.773  0.2137 -1.2437 -0.7329
 8777TIP3   OH250525   1.962   0.138  10.945  0.2880  0.2095  0.1527
 8777TIP3    H150526   2.055   0.157  10.937  0.1753  1.3996  1.3767
 8777TIP3    H250527   1.927   0.209  10.998 -1.7700  1.1103 -2.2127
 8778TIP3   OH250528   5.464   2.991  12.062  0.1596 -0.1728 -0.6595
 8778TIP3    H150529   5.432   2.932  11.994  1.6602 -3.9701  1.5946
 8778TIP3    H250530   5.415   2.965  12.141  1.8726  0.5860  0.7275
 8779TIP3   OH250531   4.783   2.546  11.873  0.4227  0.2463 -0.0441
 8779TIP3    H150532   4.754   2.611  11.808 -0.2941  1.6444  1.5990
 8779TIP3    H250533   4.704   2.524  11.922  1.1408  0.0558  1.0649
 8780TIP3   OH250534   3.272   1.319  11.958  0.1397 -0.1187 -0.1074
 8780TIP3    H150535   3.253   1.378  12.031  0.0628 -0.1531 -0.0998
 8780TIP3    H250536   3.322   1.374  11.896  2.0661 -0.6416  0.8884
 8781TIP3   OH250537   5.412   2.668  12.491 -0.0329  0.2379 -0.7594
 8781TIP3    H150538   5.417   2.689  12.398 -0.6836 -0.6962 -1.0212
 8781TIP3    H250539   5.356   2.736  12.528  2.2309  2.1095 -0.5319
 8782TIP3   OH250540   1.418   3.402  10.580 -0.2885 -0.2667 -0.1817
 8782TIP3    H150541   1.512   3.416  10.578 -0.1602 -1.0722  0.0042
 8782TIP3    H250542   1.380   3.489  10.565  0.4785  0.1599  0.3230
 8783TIP3   OH250543   4.884   0.403  11.916  0.2173 -0.2101  0.6590
 8783TIP3    H150544   4.943   0.472  11.948  0.5748  0.3035 -0.9896
 8783TIP3    H250545   4.929   0.322  11.938  0.7521  0.1424  0.9007
 8784TIP3   OH250546   2.156   5.883   9.282 -0.7636 -0.3094  0.4158
 8784TIP3    H150547   2.141   5.976   9.270 -0.1897 -0.2987 -0.3146
 8784TIP3    H250548   2.251   5.874   9.289 -0.6358 -1.0301 -1.5618
 8785TIP3   OH250549   4.105   4.871   9.625 -0.3236  0.5486 -0.0670
 8785TIP3    H150550   4.163   4.804   9.660 -1.5170 -0.2064  0.5299
 8785TIP3    H250551   4.132   4.952   9.669  1.4347  0.6025 -1.1398
 8786TIP3   OH250552   3.180   3.346  11.869 -0.6021  0.3636  0.5403
 8786TIP3    H150553   3.143   3.382  11.789 -1.4677  0.2520  0.8855
 8786TIP3    H250554   3.123   3.377  11.939 -0.1447  0.0516  1.0677
 8787TIP3   OH250555   5.259   4.792  10.300 -0.2202  0.0243 -0.0285
 8787TIP3    H150556   5.323   4.740  10.253  0.8719  1.5274 -0.2723
 8787TIP3    H250557   5.234   4.861  10.239 -1.6568 -0.1836  0.2746
 8788TIP3   OH250558   6.208   2.408   9.243 -0.3270  0.5975  0.8550
 8788TIP3    H150559   6.158   2.404   9.325 -1.5480  0.2060  0.1249
 8788TIP3    H250560   6.183   2.328   9.197  0.8088  0.5218  0.3466
 8789TIP3   OH250561   0.512   6.324  11.169  0.1865  0.3306 -0.3693
 8789TIP3    H150562   0.477   6.294  11.254 -0.2157 -0.8276 -0.9178
 8789TIP3    H250563   0.443   6.381  11.134 -0.0195  0.1356 -0.2861
 8790TIP3   OH250564   5.787   3.709   9.609 -0.3386 -0.1725  0.2314
 8790TIP3    H150565   5.813   3.801   9.612 -1.8069  0.2752 -0.3156
 8790TIP3    H250566   5.692   3.711   9.601 -0.7598 -1.7523  3.2408
 8791TIP3   OH250567   3.447   1.696  11.910  0.3842 -0.5391 -0.2686
 8791TIP3    H150568   3.493   1.778  11.928  0.0244 -0.3735 -0.0935
 8791TIP3    H250569   3.364   1.724  11.871 -0.0744 -0.7868  0.5187
 8792TIP3   OH250570   2.634   0.261   9.407 -0.1561 -0.1692  0.0928
 8792TIP3    H150571   2.699   0.257   9.477 -0.4381  0.0264  0.3733
 8792TIP3    H250572   2.556   0.221   9.445 -0.7157  1.1243  0.3653
 8793TIP3   OH250573   2.162   6.344  11.631 -0.7193  0.2397  0.5536
 8793TIP3    H150574   2.185   6.255  11.659 -1.4673 -0.1022  0.1166
 8793TIP3    H250575   2.071   6.355  11.658 -0.4481  1.1052  1.1444
 8794TIP3   OH250576   3.885   5.416  10.870  0.7291  0.2129 -0.4924
 8794TIP3    H150577   3.947   5.457  10.930 -1.2857 -0.1198  1.9909
 8794TIP3    H250578   3.851   5.341  10.918  1.2976 -2.0388 -3.3281
 8795TIP3   OH250579   0.322   1.848  11.293 -0.1800  0.7163 -0.2909
 8795TIP3    H150580   0.361   1.904  11.226 -0.0063  2.0316  0.8636
 8795TIP3    H250581   0.287   1.773  11.245  2.4045  0.1951 -1.5563
 8796TIP3   OH250582   0.890   5.584  10.104  0.0395  0.0687 -0.0752
 8796TIP3    H150583   0.871   5.620  10.191  0.1665  1.5820 -0.6507
 8796TIP3    H250584   0.982   5.607  10.088  0.5385 -1.7007  0.0761
 8797TIP3   OH250585   6.621   2.301   9.897  0.1944 -0.2269 -0.1071
 8797TIP3    H150586   6.583   2.246   9.965 -0.6610 -0.3026 -0.6272
 8797TIP3    H250587   6.631   2.242   9.822  0.3726  0.0434 -0.2954
 8798TIP3   OH250588   2.042   0.859   9.346 -0.0385 -0.0524  0.2580
 8798TIP3    H150589   2.124   0.813   9.364  0.0207 -0.3422 -0.7021
 8798TIP3    H250590   2.069   0.942   9.308 -0.1521  0.7143  1.7709
 8799TIP3   OH250591   3.182   3.908  11.275 -0.2003  0.0443  0.1344
 8799TIP3    H150592   3.121   3.865  11.335 -1.0575  2.2335  0.9633
 8799TIP3    H250593   3.222   3.978  11.328  1.0396  0.3325 -1.1344
 8800TIP3   OH250594   2.076   1.288  11.430  0.3177 -0.1054 -0.1567
 8800TIP3    H150595   2.075   1.381  11.410  0.7820 -0.2950 -1.1085
 8800TIP3    H250596   2.028   1.280  11.513  1.0842  1.0881  0.4311
 8801TIP3   OH250597   1.397   6.159   9.827  0.0884  0.1575 -0.7065
 8801TIP3    H150598   1.485   6.150   9.789  0.5411  0.1044  0.3173
 8801TIP3    H250599   1.403   6.115   9.911 -0.3364  1.8502  0.2663
 8802TIP3   OH250600   0.717   2.566  12.458  0.3835  0.4025 -0.2770
 8802TIP3    H150601   0.677   2.501  12.401 -0.5184 -0.3322  1.1317
 8802TIP3    H250602   0.675   2.552  12.543  2.2087  0.9538  0.7628
 8803TIP3   OH250603   1.870   1.440  12.659 -0.2555  0.6287  0.1113
 8803TIP3    H150604   1.934   1.383  12.702 -0.3771  1.0119  0.7991
 8803TIP3    H250605   1.796   1.443  12.719 -1.1100 -0.1457 -0.8680
 8804TIP3   OH250606   4.061   0.114  11.407 -0.3000  0.1488  0.6289
 8804TIP3    H150607   3.998   0.059  11.455 -0.0605 -0.5201  0.1890
 8804TIP3    H250608   4.016   0.198  11.396 -0.5707  0.1354  1.5408
 8805TIP3   OH250609   5.422   1.265  10.936  0.0701  0.3433 -0.1448
 8805TIP3    H150610   5.367   1.333  10.975 -0.1451 -0.2609  0.6398
 8805TIP3    H250611   5.365   1.188  10.932  0.5353  0.0043 -0.3195
 8806TIP3   OH250612   0.805   2.967   9.317 -0.2480  0.6689  0.0548
 8806TIP3    H150613   0.783   3.050   9.359 -4.0515 -0.8492  1.5595
 8806TIP3    H250614   0.784   2.901   9.384  0.3954 -1.5992 -1.8582
 8807TIP3   OH250615   2.439   1.785  11.212 -0.5376  0.2859 -0.5868
 8807TIP3    H150616   2.351   1.773  11.176 -0.2744  0.9205 -1.4684
 8807TIP3    H250617   2.495   1.730  11.158 -0.3432  0.1521 -0.2496
 8808TIP3   OH250618   2.021   5.238  10.930  0.1667  0.0706 -0.0500
 8808TIP3    H150619   2.062   5.261  10.847 -0.0521 -0.2859 -0.2573
 8808TIP3    H250620   2.028   5.143  10.936  0.6871  0.1404  0.6082
 8809TIP3   OH250621   1.292   2.227  10.138 -0.2288 -0.0649 -0.2519
 8809TIP3    H150622   1.350   2.303  10.146 -0.4000  0.0229  0.2455
 8809TIP3    H250623   1.256   2.216  10.226 -0.1952 -0.7344 -0.3162
 8810TIP3   OH250624   2.027   1.881   9.489 -0.5632  0.4550 -0.3344
 8810TIP3    H150625   2.024   1.902   9.395 -1.1531  0.8970 -0.2247
 8810TIP3    H250626   1.954   1.930   9.526 -0.8243 -0.3408  0.2357
 8811TIP3   OH250627   1.298   2.477  12.178 -0.7858 -0.2565  0.1309
 8811TIP3    H150628   1.330   2.452  12.265 -0.2422 -1.1488 -0.3076
 8811TIP3    H250629   1.308   2.397  12.125  1.2761  0.9146 -1.4253
 8812TIP3   OH250630   5.668   4.893   9.799 -0.6714  0.4010  0.0809
 8812TIP3    H150631   5.608   4.967   9.804 -0.3714  0.7672 -1.4172
 8812TIP3    H250632   5.621   4.827   9.748  0.1645  0.6693 -1.0522
 8813TIP3   OH250633   6.174   1.715  12.816  0.0425  0.2558 -0.1122
 8813TIP3    H150634   6.165   1.752  12.905 -1.2702 -0.3048  0.0156
 8813TIP3    H250635   6.268   1.706  12.803  0.2496  0.1045  1.3346
 8814TIP3   OH250636   3.487   2.521  10.082  0.3465 -0.2883 -0.0291
 8814TIP3    H150637   3.503   2.554   9.993  1.3655 -0.5811  0.0345
 8814TIP3    H250638   3.569   2.479  10.107  0.3770  0.5433  1.3928
 8815TIP3   OH250639   5.678   1.618  11.941  0.8786 -0.1340  0.2206
 8815TIP3    H150640   5.717   1.705  11.936  0.3430  0.1300  0.4956
 8815TIP3    H250641   5.745   1.559  11.906  1.2666  0.3806  0.0866
 8816TIP3   OH250642   1.881   2.869   9.083  0.4054  0.0600  0.1352
 8816TIP3    H150643   1.934   2.863   9.004  1.1180  0.6174  0.5625
 8816TIP3    H250644   1.795   2.898   9.052  0.5645 -0.1107 -0.4755
 8817TIP3   OH250645   1.604   2.953  12.866 -0.2973 -0.0569  0.1815
 8817TIP3    H150646   1.691   2.946  12.905 -0.6115  0.8404  1.1125
 8817TIP3    H250647   1.576   2.863  12.852  0.4195 -0.3678  0.7011
 8818TIP3   OH250648   0.915   5.215  12.453 -0.2077 -0.0702  0.0021
 8818TIP3    H150649   0.864   5.153  12.504  1.9849 -0.0339  2.4174
 8818TIP3    H250650   1.005   5.204  12.484  0.9015  1.5628 -2.3202
 8819TIP3   OH250651   3.514   4.966   9.704 -0.7570  0.2024 -0.2978
 8819TIP3    H150652   3.461   4.887   9.717 -0.1467  0.1082  1.9093
 8819TIP3    H250653   3.583   4.939   9.644 -0.5890 -0.9261  0.3908
 8820TIP3   OH250654   1.016   3.057  10.705 -0.8117 -0.2489 -0.6735
 8820TIP3    H150655   1.093   3.067  10.648 -0.2014 -2.1169 -0.2572
 8820TIP3    H250656   0.988   3.147  10.723 -0.8401  0.4427 -3.5949
 8821TIP3   OH250657   0.871   5.564  10.860  0.0923  0.2716 -0.6791
 8821TIP3    H150658   0.813   5.640  10.860  0.3405  0.4760  0.1629
 8821TIP3    H250659   0.910   5.564  10.948 -0.5472 -1.3088 -0.3676
 8822TIP3   OH250660   4.488   4.249  11.149 -0.1807  0.1735 -0.7927
 8822TIP3    H150661   4.431   4.174  11.132  0.6442 -0.6261 -0.1303
 8822TIP3    H250662   4.559   4.241  11.086 -0.1748  0.4817 -0.8252
 8823TIP3   OH250663   5.446   3.433   9.210 -0.0482 -0.4975 -0.4405
 8823TIP3    H150664   5.390   3.464   9.281  1.9760 -0.4717  1.2684
 8823TIP3    H250665   5.447   3.504   9.147  0.3552  0.7382  0.9037
 8824TIP3   OH250666   1.733   6.520  10.219  0.1492 -0.6062 -0.6267
 8824TIP3    H150667   1.765   6.517  10.309  0.9304  0.9388 -0.8131
 8824TIP3    H250668   1.648   6.564  10.225 -0.1282 -1.1491 -0.5672
 8825TIP3   OH250669   2.519   1.593  12.752 -0.5090 -0.1658 -0.2579
 8825TIP3    H150670   2.577   1.654  12.797  1.5244 -2.2174  0.0892
 8825TIP3    H250671   2.436   1.598  12.800  0.0256  1.2832  0.5830
 8826TIP3   OH250672   1.297   4.313  10.420  0.7025  0.0341  0.7792
 8826TIP3    H150673   1.278   4.292  10.511 -2.0629  0.7001  0.4439
 8826TIP3    H250674   1.257   4.399  10.407  0.8490 -0.1528 -1.1276
 8827TIP3   OH250675   4.262   2.254  11.633  0.0648  0.3857 -0.7945
 8827TIP3    H150676   4.203   2.314  11.587  0.0470  0.6707 -0.4068
 8827TIP3    H250677   4.303   2.203  11.563 -0.8449 -0.0074 -1.0508
 8828TIP3   OH250678   5.892   4.641   9.521 -0.7299 -0.0822  0.0730
 8828TIP3    H150679   5.952   4.623   9.448  0.0097 -0.3974  0.7382
 8828TIP3    H250680   5.821   4.577   9.510 -1.0908  0.4537 -0.8600
 8829TIP3   OH250681   2.942   3.126   9.827 -0.3002 -0.1347  0.2768
 8829TIP3    H150682   3.007   3.149   9.893  0.6466 -0.8160 -0.3902
 8829TIP3    H250683   2.927   3.032   9.840 -0.5494 -0.1494 -0.1076
 8830TIP3   OH250684   4.349   1.805   9.919  0.6674 -0.1506 -0.0345
 8830TIP3    H150685   4.443   1.826   9.917  0.4613  0.8917  0.4531
 8830TIP3    H250686   4.309   1.870   9.861  0.0290  0.7463  1.3488
 8831TIP3   OH250687   5.846   6.619   9.618  0.1246  0.6271  0.0691
 8831TIP3    H150688   5.921   6.630   9.559  1.8024  1.6692  2.2603
 8831TIP3    H250689   5.785   6.688   9.593  0.1182  0.1554 -1.3340
 8832TIP3   OH250690   4.622   2.739  11.732  0.1445 -0.0797 -0.5643
 8832TIP3    H150691   4.701   2.748  11.677 -0.0996 -0.2817 -0.9547
 8832TIP3    H250692   4.581   2.659  11.701 -1.7549  1.4830 -2.3727
 8833TIP3   OH250693   0.086   4.307   9.113 -0.2131 -0.2271  0.3541
 8833TIP3    H150694   0.146   4.381   9.119 -0.6359  0.1861 -0.2942
 8833TIP3    H250695   0.038   4.308   9.196  0.7285 -0.6224  0.9167
 8834TIP3   OH250696   3.857   2.929   9.566 -0.2075 -0.0151 -0.1005
 8834TIP3    H150697   3.852   3.023   9.583  1.5608  0.1712 -0.3594
 8834TIP3    H250698   3.785   2.912   9.505 -0.2746  1.2600 -0.4168
 8835TIP3   OH250699   5.349   1.936  10.136  0.6659  0.0487  0.0475
 8835TIP3    H150700   5.303   1.852  10.145  0.0205  0.5777  2.0838
 8835TIP3    H250701   5.296   1.998  10.185  2.0371  1.2966  0.0154
 8836TIP3   OH250702   4.733   4.825  12.242  0.1421 -0.0971  0.2785
 8836TIP3    H150703   4.660   4.833  12.303  0.8804  1.5423  0.9807
 8836TIP3    H250704   4.806   4.795  12.296  0.0088 -1.8663 -0.4450
 8837TIP3   OH250705   1.019   1.261   9.175  0.3640 -0.1861 -0.0210
 8837TIP3    H150706   1.092   1.312   9.210  0.7763  0.4038 -1.6407
 8837TIP3    H250707   1.060   1.188   9.130 -0.2314 -2.1514  2.4242
 8838TIP3   OH250708   4.674   5.756  12.401  0.3509 -0.2588 -0.4980
 8838TIP3    H150709   4.665   5.746  12.496  0.9472  1.1075 -0.2633
 8838TIP3    H250710   4.686   5.850  12.388  0.3713 -0.4319 -1.9306
 8839TIP3   OH250711   2.682   0.860  11.279  0.5247 -0.0290  0.4584
 8839TIP3    H150712   2.615   0.925  11.258 -0.3474 -1.2981 -0.8585
 8839TIP3    H250713   2.662   0.832  11.368 -0.5457 -0.1847  0.1803
 8840TIP3   OH250714   0.530   1.349   9.487 -0.0032 -0.0852  0.3868
 8840TIP3    H150715   0.499   1.423   9.540 -0.8667  0.5671 -0.9646
 8840TIP3    H250716   0.459   1.334   9.424  1.6725  0.3506 -1.7269
 8841TIP3   OH250717   0.911   0.164  11.550 -0.5035 -0.6111 -0.1814
 8841TIP3    H150718   0.826   0.120  11.538 -0.8762 -0.1580  0.6922
 8841TIP3    H250719   0.904   0.207  11.636  0.1768  0.4179 -0.6195
 8842TIP3   OH250720   2.746   0.680  12.282 -0.2767 -0.7800 -0.1574
 8842TIP3    H150721   2.721   0.759  12.234 -0.6585 -0.4627  0.5454
 8842TIP3    H250722   2.663   0.647  12.318  0.0800 -0.6982  0.7515
 8843TIP3   OH250723   1.251   3.725   9.664 -0.5310  0.3682  0.7878
 8843TIP3    H150724   1.174   3.774   9.635  0.4003  2.4291  1.5665
 8843TIP3    H250725   1.231   3.634   9.644 -1.7054  1.1748 -2.3028
 8844TIP3   OH250726   5.603   5.605   9.626 -0.4908 -0.7745 -0.2072
 8844TIP3    H150727   5.570   5.553   9.699 -1.4385 -0.5566 -0.4675
 8844TIP3    H250728   5.666   5.548   9.582 -0.8540 -1.3667  0.0337
 8845TIP3   OH250729   6.323   3.712  12.448  0.0226 -0.4350  0.2226
 8845TIP3    H150730   6.271   3.661  12.510  0.5750 -0.4384  0.6886
 8845TIP3    H250731   6.271   3.791  12.432 -0.6396 -0.9476 -0.1765
 8846TIP3   OH250732   2.876   2.565  10.914  0.4312  0.0646 -0.5487
 8846TIP3    H150733   2.851   2.480  10.877  1.3038 -0.3274 -0.2661
 8846TIP3    H250734   2.971   2.561  10.919  0.3777  0.3123  1.2357
 8847TIP3   OH250735   1.197   5.980  10.017 -0.0174 -0.0782  0.0177
 8847TIP3    H150736   1.192   6.065   9.974  1.0321  0.2100  0.4502
 8847TIP3    H250737   1.206   6.000  10.110  0.7611 -0.6386  0.0755
 8848TIP3   OH250738   0.125   0.343  10.953  0.0705  0.7515  0.6327
 8848TIP3    H150739   0.070   0.272  10.920 -1.0210  1.7673  0.2179
 8848TIP3    H250740   0.118   0.337  11.048  1.1244 -0.5474  0.6702
 8849TIP3   OH250741   3.415   1.988  10.582 -0.4761  0.2940 -0.1642
 8849TIP3    H150742   3.453   1.901  10.569 -1.4076 -0.2932  0.8553
 8849TIP3    H250743   3.413   2.027  10.494  2.7037  0.5112 -0.2820
 8850TIP3   OH250744   5.146   0.594  12.749  0.3209 -0.0850 -0.7155
 8850TIP3    H150745   5.206   0.651  12.797  1.0568 -0.7557 -0.8260
 8850TIP3    H250746   5.069   0.587  12.806  0.3762  0.6952 -0.5287
 8851TIP3   OH250747   5.557   2.395  11.628  0.2427 -0.3689 -0.0852
 8851TIP3    H150748   5.546   2.489  11.644  0.5479 -0.3643  0.1111
 8851TIP3    H250749   5.480   2.355  11.667  0.4937 -0.2655  0.5414
 8852TIP3   OH250750   0.293   1.225   9.945  0.2835 -0.3717  0.0774
 8852TIP3    H150751   0.383   1.192   9.937 -0.4524 -2.7028  0.4642
 8852TIP3    H250752   0.272   1.259   9.858  2.0897  1.8945  0.4462
 8853TIP3   OH250753   0.807   5.926  11.274  0.7457  0.9350 -0.4649
 8853TIP3    H150754   0.772   5.837  11.270 -1.1312  1.5119  1.4313
 8853TIP3    H250755   0.754   5.977  11.213 -0.0175  1.2745  0.4585
 8854TIP3   OH250756   4.363   2.099  10.735 -0.1359  0.2657  0.1902
 8854TIP3    H150757   4.344   2.171  10.676  0.4374  0.5504  0.3476
 8854TIP3    H250758   4.453   2.114  10.763 -0.5541  0.4210  1.5220
 8855TIP3   OH250759   0.621   0.822   9.412 -0.2311  0.3736 -0.2703
 8855TIP3    H150760   0.710   0.799   9.385  0.5799  1.6426  1.2073
 8855TIP3    H250761   0.591   0.747   9.463  0.6152  0.5816  0.5655
 8856TIP3   OH250762   1.713   3.782  11.491  0.0988  0.9153 -0.1261
 8856TIP3    H150763   1.770   3.712  11.460  0.1746  0.5181  0.8662
 8856TIP3    H250764   1.708   3.769  11.586 -1.2182  1.2619 -0.1199
 8857TIP3   OH250765   4.983   2.449   9.452 -0.2041 -0.4060 -0.3797
 8857TIP3    H150766   5.041   2.435   9.527 -0.9168 -3.4378 -0.2681
 8857TIP3    H250767   4.896   2.429   9.485 -0.9847  1.2708 -1.2879
 8858TIP3   OH250768   1.951   6.328  11.216  0.0610  0.6750  0.1755
 8858TIP3    H150769   1.917   6.375  11.140  0.9643 -0.1292 -0.7523
 8858TIP3    H250770   2.044   6.354  11.220 -0.1234  1.2134  1.4055
 8859TIP3   OH250771   2.216   1.045   9.894  0.1630  0.3364  0.0708
 8859TIP3    H150772   2.170   0.961   9.902 -0.6603  0.7601 -0.1552
 8859TIP3    H250773   2.225   1.058   9.800  0.8460  0.2058  0.1160
 8860TIP3   OH250774   0.496   4.013  11.969 -0.4428  0.0049 -0.1411
 8860TIP3    H150775   0.429   3.951  11.941  0.9482 -1.5451 -0.2159
 8860TIP3    H250776   0.461   4.051  12.049 -0.9889 -1.5532  0.4134
 8861TIP3   OH250777   1.665   0.099  10.365 -0.2524 -0.1537  0.0074
 8861TIP3    H150778   1.624   0.039  10.302 -0.5286 -1.5330  1.4599
 8861TIP3    H250779   1.593   0.128  10.420  0.1136  0.4464  0.1743
 8862TIP3   OH250780   4.291   2.222   9.078  0.0478 -0.3054  0.5685
 8862TIP3    H150781   4.387   2.226   9.085  0.2226 -1.9364 -0.2565
 8862TIP3    H250782   4.259   2.282   9.145  1.6552 -0.1780  1.2626
 8863TIP3   OH250783   5.044   1.981  11.022 -0.1180  0.6404 -0.1215
 8863TIP3    H150784   5.008   1.959  10.936  2.2766  1.3668 -1.3972
 8863TIP3    H250785   5.000   1.922  11.083 -1.7639  0.0015 -1.8596
 8864TIP3   OH250786   6.729   1.654  10.016 -0.1989  0.7808 -0.0101
 8864TIP3    H150787   6.634   1.662  10.024 -0.3892 -1.6813  0.9647
 8864TIP3    H250788   6.742   1.589   9.947  0.7215  0.2231  0.6668
 8865TIP3   OH250789   6.638   4.126   9.709  0.3864  0.3298 -0.1244
 8865TIP3    H150790   6.655   4.190   9.640 -1.7935  1.1203 -0.0120
 8865TIP3    H250791   6.702   4.146   9.777 -0.2030  2.4102 -0.1130
 8866TIP3   OH250792   0.502   5.542   9.678 -0.4053  0.1905  0.4129
 8866TIP3    H150793   0.407   5.540   9.692 -0.8063  0.3111 -1.9251
 8866TIP3    H250794   0.528   5.631   9.701 -0.5406 -0.2529  2.5237
 8867TIP3   OH250795   1.406   1.654   9.748 -0.0076  0.1003  0.3948
 8867TIP3    H150796   1.489   1.667   9.793  0.4398  0.2422 -0.4541
 8867TIP3    H250797   1.385   1.562   9.764  0.2375  0.1008  0.7308
 8868TIP3   OH250798   5.640   0.167  10.133  0.8317 -0.7106 -0.0193
 8868TIP3    H150799   5.677   0.151  10.220  2.9889 -1.0588 -0.9437
 8868TIP3    H250800   5.617   0.080  10.100 -1.5543 -0.4583  0.7823
 8869TIP3   OH250801   0.093   4.681   9.331 -0.1228  0.5049  0.5421
 8869TIP3    H150802   0.159   4.729   9.382  0.4411 -0.1668  0.4646
 8869TIP3    H250803   0.048   4.627   9.396  2.0358 -1.9971  0.1145
 8870TIP3   OH250804   6.444   1.074   9.180 -0.1434  0.0416  0.3160
 8870TIP3    H150805   6.364   1.122   9.200 -0.5906 -0.5741  0.0457
 8870TIP3    H250806   6.413   0.994   9.137  0.5069 -1.0325  1.7743
 8871TIP3   OH250807   1.813   5.275  10.284 -0.4723 -0.0686  0.3373
 8871TIP3    H150808   1.888   5.217  10.295 -0.4562  0.0555  0.9108
 8871TIP3    H250809   1.744   5.220  10.246 -0.6364 -0.6010  1.3741
 8872TIP3   OH250810   3.077   6.236  11.133  0.1197  0.0618  0.2147
 8872TIP3    H150811   2.994   6.251  11.177 -0.4365 -2.6944  0.2350
 8872TIP3    H250812   3.057   6.246  11.040  0.0224  0.4157  0.2717
 8873TIP3   OH250813   6.286   3.300  10.509  0.3462  0.2478  0.3302
 8873TIP3    H150814   6.357   3.268  10.453 -0.1707  0.1994 -0.3051
 8873TIP3    H250815   6.259   3.223  10.559 -0.1498 -0.0580 -0.3944
 8874TIP3   OH250816   5.805   4.267  10.265 -0.1814 -0.5318 -0.2220
 8874TIP3    H150817   5.847   4.186  10.294  1.3596 -0.2850 -1.6325
 8874TIP3    H250818   5.817   4.268  10.170 -1.2538  0.7794 -0.3810
 8875TIP3   OH250819   4.917   4.723  11.707 -0.1227  0.1405  0.0039
 8875TIP3    H150820   4.888   4.646  11.659  2.0362 -0.4043 -0.5339
 8875TIP3    H250821   4.960   4.689  11.786  1.5645  0.6808 -0.6261
 8876TIP3   OH250822   0.917   0.591  10.331 -0.2643  0.1215  0.4779
 8876TIP3    H150823   0.902   0.639  10.249  0.7884  0.2587  0.3561
 8876TIP3    H250824   0.887   0.652  10.399 -0.2966  0.3712  0.2444
 8877TIP3   OH250825   1.180   2.070  10.732 -0.9267 -0.0530  0.4739
 8877TIP3    H150826   1.271   2.039  10.725 -0.6025  1.0187 -0.1670
 8877TIP3    H250827   1.153   2.043  10.820  0.6042  1.1337  1.3495
 8878TIP3   OH250828   4.620   1.320  11.841 -0.0463 -0.3129 -0.1189
 8878TIP3    H150829   4.589   1.280  11.759  1.0791 -1.7624  0.1257
 8878TIP3    H250830   4.561   1.287  11.908 -0.2644 -0.0392 -0.1721
 8879TIP3   OH250831   6.652   3.774  10.362 -0.3994  0.2943  0.0196
 8879TIP3    H150832   6.574   3.826  10.380 -0.8156 -0.2031 -0.2979
 8879TIP3    H250833   6.643   3.749  10.270 -0.6082 -0.9777  0.3630
 8880TIP3   OH250834   4.591   6.533  10.376 -0.0915  0.1759  0.4771
 8880TIP3    H150835   4.644   6.543  10.297  0.1296  0.1042  0.6127
 8880TIP3    H250836   4.642   6.472  10.431 -0.2593  0.1969  0.6577
 8881TIP3   OH250837   2.500   3.686  11.019  0.2316 -0.1687 -0.5067
 8881TIP3    H150838   2.407   3.680  11.043  0.3540  0.5528  0.1600
 8881TIP3    H250839   2.501   3.741  10.941  0.2436  1.3598  0.5245
 8882TIP3   OH250840   3.131   5.858  10.809 -0.8190  0.3666  0.3641
 8882TIP3    H150841   3.180   5.819  10.881 -2.7524  1.1323  2.2010
 8882TIP3    H250842   3.181   5.836  10.731  0.8234 -1.3842  1.8217
 8883TIP3   OH250843   4.284   1.270   9.946  0.7012  0.0728  0.2658
 8883TIP3    H150844   4.329   1.238  10.024  0.5656  1.5740  0.9875
 8883TIP3    H250845   4.330   1.229   9.873  1.8418 -0.1105  1.0742
 8884TIP3   OH250846   4.113   6.144  11.406  0.0923  0.1318  0.4624
 8884TIP3    H150847   4.083   6.196  11.480  1.9386  0.1854  1.2134
 8884TIP3    H250848   4.047   6.075  11.397 -1.2516  1.3275  0.7967
 8885TIP3   OH250849   6.146   1.522  11.310  0.2258  0.4568 -0.5231
 8885TIP3    H150850   6.117   1.575  11.385  0.2354  2.0644 -1.5958
 8885TIP3    H250851   6.241   1.527  11.313  0.2357  0.1978 -0.4201
 8886TIP3   OH250852   4.101   0.395   9.297  0.0912 -0.3508  0.2221
 8886TIP3    H150853   4.104   0.490   9.307 -1.4275 -0.1295 -1.0130
 8886TIP3    H250854   4.008   0.375   9.287  0.4925 -1.7612 -1.2169
 8887TIP3   OH250855   2.069   3.998  11.208 -0.8071  0.4655 -0.2497
 8887TIP3    H150856   1.982   3.979  11.172 -0.4325 -0.1384 -0.8437
 8887TIP3    H250857   2.094   4.080  11.165 -0.7469  0.2211 -0.6906
 8888TIP3   OH250858   4.529   1.427  10.503 -0.3870  0.8633  0.1476
 8888TIP3    H150859   4.576   1.400  10.582 -0.1966  1.0160  0.0879
 8888TIP3    H250860   4.446   1.380  10.507 -0.4417  0.9918  0.5178
 8889TIP3   OH250861   4.465   4.242  10.801 -0.0924  0.2235 -0.0594
 8889TIP3    H150862   4.462   4.187  10.880  1.6520 -2.7432 -1.8764
 8889TIP3    H250863   4.559   4.257  10.786 -0.4750  2.4848 -0.5078
 8890TIP3   OH250864   4.026   5.943  10.446 -0.0628 -0.1995 -0.0395
 8890TIP3    H150865   4.100   6.004  10.443 -1.2744  1.3017 -1.3787
 8890TIP3    H250866   3.990   5.954  10.534 -0.3166  1.1506 -0.2841
 8891TIP3   OH250867   0.929   3.489  11.214  0.4078 -0.4806  0.1991
 8891TIP3    H150868   1.009   3.474  11.163  1.3232  1.1336  1.0803
 8891TIP3    H250869   0.896   3.401  11.233  1.3363 -1.1575 -1.1473
 8892TIP3   OH250870   6.064   0.014  11.911 -0.3034  0.4514  0.3286
 8892TIP3    H150871   6.102  -0.027  11.988 -1.2675 -1.9708 -0.4063
 8892TIP3    H250872   6.083  -0.047  11.839 -1.5287  1.4410 -0.8977
 8893TIP3   OH250873   5.295   2.500  12.987 -0.2534 -0.1306 -0.5703
 8893TIP3    H150874   5.360   2.560  13.021 -2.4550  1.6441  0.7689
 8893TIP3    H250875   5.326   2.413  13.014  1.9363  0.5438 -0.7503
 8894TIP3   OH250876   1.562   1.055  10.983 -0.5207 -0.1244  0.4326
 8894TIP3    H150877   1.512   0.973  10.987 -1.5090  0.5063  3.2713
 8894TIP3    H250878   1.498   1.120  10.954 -0.8259  0.2701  1.8892
 8895TIP3   OH250879   2.807   4.622  10.601  0.6214  0.4640  0.2289
 8895TIP3    H150880   2.778   4.532  10.588 -2.2396  0.9597  2.2165
 8895TIP3    H250881   2.900   4.615  10.621  0.4519 -2.0537  0.4273
 8896TIP3   OH250882   5.557   3.823   9.478  0.0677  0.3394  0.6801
 8896TIP3    H150883   5.552   3.919   9.486 -4.5087  0.4223 -0.3104
 8896TIP3    H250884   5.495   3.791   9.543 -0.8760 -1.7309 -1.1393
 8897TIP3   OH250885   4.681   2.209  11.158  0.4712  0.2105  0.3482
 8897TIP3    H150886   4.750   2.260  11.115  0.7744  0.2948  0.9356
 8897TIP3    H250887   4.621   2.274  11.194  0.5637  0.1415  0.6223
 8898TIP3   OH250888   1.471   0.713  11.538 -0.1569 -0.2193  0.3611
 8898TIP3    H150889   1.545   0.660  11.569 -0.4021  0.5446  2.4228
 8898TIP3    H250890   1.500   0.804  11.551 -0.9198  0.1107 -0.1678
 8899TIP3   OH250891   1.536   1.590  11.227 -0.0234 -0.1946  0.0848
 8899TIP3    H150892   1.548   1.671  11.276 -1.8323 -1.9036  3.7631
 8899TIP3    H250893   1.625   1.560  11.206  0.7677  1.3433  1.1214
 8900TIP3   OH250894   2.702   4.923   9.139 -0.3681 -0.5693 -0.1011
 8900TIP3    H150895   2.746   4.948   9.221 -0.8993 -1.0293  0.3345
 8900TIP3    H250896   2.751   4.968   9.071  0.1894 -0.3098  0.4590
 8901TIP3   OH250897   2.496   5.472   9.295 -0.0652  0.0035  0.6280
 8901TIP3    H150898   2.493   5.460   9.390 -0.5522  0.7912  0.7201
 8901TIP3    H250899   2.406   5.454   9.266 -0.3870  1.5666  0.5611
 8902TIP3   OH250900   1.075   5.056  10.878  0.2084 -0.5193  0.3553
 8902TIP3    H150901   1.060   5.024  10.967  1.7580 -1.2577  0.3884
 8902TIP3    H250902   1.071   4.978  10.823 -2.1619  0.1136 -0.4622
 8903TIP3   OH250903   3.606   1.468   9.602  0.9423 -0.3619 -0.1440
 8903TIP3    H150904   3.553   1.389   9.597 -0.0088  0.2173  0.3733
 8903TIP3    H250905   3.696   1.436   9.610  0.5265 -1.4115  0.7006
 8904TIP3   OH250906   2.811   0.977  10.372 -0.3935 -0.3992 -0.4257
 8904TIP3    H150907   2.893   0.929  10.385 -0.5658 -0.9643 -1.3627
 8904TIP3    H250908   2.810   0.999  10.279 -2.1310 -1.9780 -0.8480
 8905TIP3   OH250909   1.147   3.425  11.057  0.2625 -1.1341 -0.7928
 8905TIP3    H150910   1.185   3.437  10.969 -0.7854  0.0296 -1.1063
 8905TIP3    H250911   1.178   3.338  11.084  0.9654 -1.3304 -2.1224
 8906TIP3   OH250912   5.292   6.116  10.306 -0.2834 -0.1792 -0.0052
 8906TIP3    H150913   5.273   6.192  10.251 -0.4428 -1.0207 -1.1532
 8906TIP3    H250914   5.360   6.146  10.366 -2.0352  1.5961  1.2268
 8907TIP3   OH250915   1.711   2.101   9.377  0.3518 -0.0420 -0.0219
 8907TIP3    H150916   1.627   2.142   9.399  0.2686 -0.1579 -0.1285
 8907TIP3    H250917   1.774   2.173   9.385  0.2815 -0.0120  0.3127
 8908TIP3   OH250918   6.153   3.955   9.204 -0.6307  0.0002  0.2935
 8908TIP3    H150919   6.176   3.927   9.116 -0.4953  0.3869  0.2031
 8908TIP3    H250920   6.236   3.955   9.252 -0.7162 -0.2793  0.4382
 8909TIP3   OH250921   4.302   4.171  10.608 -0.0277 -0.9707  0.1831
 8909TIP3    H150922   4.362   4.097  10.600  0.0570 -1.1186  1.7749
 8909TIP3    H250923   4.339   4.224  10.679 -3.1005 -2.4716  3.1792
 8910TIP3   OH250924   4.544   1.767  10.797 -0.6633  0.3012 -0.1989
 8910TIP3    H150925   4.493   1.839  10.761 -0.5888  1.0406  1.1287
 8910TIP3    H250926   4.576   1.799  10.881 -0.4122 -1.1913  0.3070
 8911TIP3   OH250927   5.891   1.562  10.794 -0.4717  0.1540  0.3962
 8911TIP3    H150928   5.931   1.561  10.881  1.1753  0.3047 -0.3355
 8911TIP3    H250929   5.860   1.652  10.783  1.7928  0.9081 -0.2354
 8912TIP3   OH250930   1.145   2.875  10.910  0.0799  0.3436 -0.1199
 8912TIP3    H150931   1.237   2.882  10.883 -0.0444  1.0584 -0.3861
 8912TIP3    H250932   1.095   2.890  10.829 -0.2795 -1.9837 -0.3973
 8913TIP3   OH250933   5.084   0.376   9.574 -0.1144 -0.0785  0.2733
 8913TIP3    H150934   5.007   0.432   9.580 -0.3660 -0.3638 -0.1399
 8913TIP3    H250935   5.106   0.354   9.664 -1.9893 -1.9428  0.3498
 8914TIP3   OH250936   3.814   1.034  10.627 -0.0872 -0.0657  0.0451
 8914TIP3    H150937   3.753   0.960  10.622 -1.8944  1.3589 -0.1950
 8914TIP3    H250938   3.773   1.102  10.574  1.5027  1.1311  0.2803
 8915TIP3   OH250939   1.311   6.689  10.043 -0.4086  0.5317 -0.4841
 8915TIP3    H150940   1.300   6.784  10.030  0.4730  0.7254  0.1079
 8915TIP3    H250941   1.394   6.668  10.001 -0.2845  0.1473 -0.0553
 8916TIP3   OH250942   4.255   0.691   9.827  0.4349 -0.1913 -0.3429
 8916TIP3    H150943   4.219   0.747   9.895  0.7221 -0.5577  0.1122
 8916TIP3    H250944   4.184   0.631   9.804  0.7916 -1.0190  0.6657
 8917TIP3   OH250945   6.178   5.457  10.865 -0.4409 -0.6454  0.1634
 8917TIP3    H150946   6.153   5.396  10.796  0.1861 -1.1019  0.3371
 8917TIP3    H250947   6.095   5.477  10.909 -0.7135 -1.0412 -0.1525
 8918TIP3   OH250948   2.978   5.659  11.373 -0.2143  0.1517  0.4933
 8918TIP3    H150949   3.032   5.600  11.319  0.1449  1.2234 -0.3426
 8918TIP3    H250950   2.982   5.620  11.460 -0.5961 -1.4818 -0.1633
 8919TIP3   OH250951   0.499   0.314  12.054 -0.1095  0.1128 -0.2442
 8919TIP3    H150952   0.500   0.284  12.145 -1.2048 -1.5047 -0.7156
 8919TIP3    H250953   0.466   0.403  12.057 -0.7321 -0.1469  0.8960
 8920TIP3   OH250954   4.278   1.773  11.599  0.6747  0.2914  0.3568
 8920TIP3    H150955   4.196   1.784  11.647 -0.2370 -0.1533 -1.0332
 8920TIP3    H250956   4.328   1.710  11.650 -0.2430 -0.1340  0.7520
 8921TIP3   OH250957   1.370   1.046  11.716  0.0081 -0.2099  1.0572
 8921TIP3    H150958   1.397   1.133  11.744  1.2995 -0.6974  1.3990
 8921TIP3    H250959   1.438   1.018  11.654 -1.1263 -0.4342 -0.1369
 8922TIP3   OH250960   3.874   1.947  10.746  0.5198  0.5994  0.7302
 8922TIP3    H150961   3.797   1.999  10.723  1.3889  1.6502  0.0608
 8922TIP3    H250962   3.854   1.859  10.714 -1.6203  0.0584  3.2577
 8923TIP3   OH250963   1.605   1.845  10.891 -0.2350 -0.2502 -0.1744
 8923TIP3    H150964   1.601   1.924  10.946 -2.4008 -0.6206  0.3056
 8923TIP3    H250965   1.680   1.860  10.833  0.2425  1.5390  0.8111
 8924TIP3   OH250966   0.413   3.842  11.639  0.7054  0.0804  0.1453
 8924TIP3    H150967   0.330   3.847  11.685 -0.0708 -0.6174 -1.1208
 8924TIP3    H250968   0.409   3.912  11.573 -0.0655 -1.6143 -1.7016
 8925TIP3   OH250969   2.559   0.705  12.695 -0.2828 -0.4462 -0.0758
 8925TIP3    H150970   2.566   0.626  12.641  0.5993  0.1448 -0.8427
 8925TIP3    H250971   2.465   0.725  12.695 -0.1398  0.9036 -3.4504
 8926TIP3   OH250972   6.045   3.821   9.927 -0.3534 -0.0072  0.4084
 8926TIP3    H150973   6.136   3.851   9.916 -0.2448 -0.3710  0.3103
 8926TIP3    H250974   6.035   3.750   9.864 -1.5026  1.7031 -1.4468
 8927TIP3   OH250975   5.217   6.581  11.218  0.3793  0.1250  0.2608
 8927TIP3    H150976   5.178   6.612  11.137  1.0859  0.8121  0.1712
 8927TIP3    H250977   5.310   6.572  11.198  0.9095  2.1827  1.5080
 8928TIP3   OH250978   2.827   0.606  10.664 -0.1659  0.2756 -0.5948
 8928TIP3    H150979   2.890   0.610  10.592  1.0417  1.9769  0.4838
 8928TIP3    H250980   2.780   0.690  10.659 -0.6243  0.0718  0.1049
 8929TIP3   OH250981   5.296   4.670  11.869  0.1422 -0.0169 -0.2314
 8929TIP3    H150982   5.333   4.595  11.915  0.7476  0.1973 -0.3614
 8929TIP3    H250983   5.216   4.691  11.917  1.0530  0.5579  1.0626
 8930TIP3   OH250984   6.314   5.817  10.289  0.3155 -0.2635  0.2806
 8930TIP3    H150985   6.387   5.872  10.263 -1.9370  2.5755 -0.5227
 8930TIP3    H250986   6.286   5.852  10.374 -1.2101 -0.0807 -0.2752
 8931TIP3   OH250987   0.879   6.159  11.393 -0.5997  0.5210 -0.1939
 8931TIP3    H150988   0.886   6.071  11.357  1.2487  0.1075  1.0220
 8931TIP3    H250989   0.944   6.210  11.344 -0.1597  0.6669  0.5231
 8932TIP3   OH250990   5.878   5.489  12.241  0.2086 -0.1001  0.1376
 8932TIP3    H150991   5.857   5.582  12.249 -0.0753 -0.2735  2.0482
 8932TIP3    H250992   5.823   5.446  12.306  0.0836 -1.6699 -0.9399
 8933TIP3   OH250993   6.224   4.356  10.569  0.1150  0.0572 -0.1358
 8933TIP3    H150994   6.263   4.271  10.553  0.2725  0.0489  0.2795
 8933TIP3    H250995   6.297   4.418  10.569  0.1546  0.0308  0.7195
 8934TIP3   OH250996   3.637   6.713  10.778 -0.0455 -0.0944 -0.2575
 8934TIP3    H150997   3.611   6.791  10.828 -1.3642  0.3054 -1.5040
 8934TIP3    H250998   3.725   6.693  10.809  0.6902  2.4313 -0.5160
 8935TIP3   OH250999   4.230   3.480  11.157 -0.3474 -0.2905  0.4610
 8935TIP3    H151000   4.225   3.388  11.132  0.7294  0.0086 -1.0250
 8935TIP3    H251001   4.167   3.489  11.229 -1.3866 -1.9086 -0.1781
 8936TIP3   OH251002   0.485   2.564  12.660 -0.2464 -0.3176 -0.3438
 8936TIP3    H151003   0.506   2.494  12.723  1.7524  0.9459  0.5217
 8936TIP3    H251004   0.478   2.642  12.714 -0.6342  0.4614 -1.4949
 8937TIP3   OH251005   0.084   2.896   9.445 -0.0275 -0.3492  0.3495
 8937TIP3    H151006  -0.009   2.911   9.462 -0.0196  1.3724 -0.8394
 8937TIP3    H251007   0.086   2.821   9.386 -0.8786  0.9231 -1.3961
 8938TIP3   OH251008   4.438   2.625  10.220 -0.0304 -0.2671  0.0682
 8938TIP3    H151009   4.418   2.704  10.168 -1.7333 -0.1511  0.8492
 8938TIP3    H251010   4.353   2.593  10.249  0.7703 -1.3914  1.2647
 8939TIP3   OH251011   5.251   1.669  10.186 -0.5164  0.6846  0.1632
 8939TIP3    H151012   5.232   1.669  10.280  0.1223  2.6573  0.3289
 8939TIP3    H251013   5.341   1.636  10.180 -2.2797 -5.1987 -0.3479
 8940TIP3   OH251014   1.089   1.208  11.897  0.2565 -0.5356 -0.2786
 8940TIP3    H151015   1.022   1.188  11.832  0.9677 -1.1406 -0.8384
 8940TIP3    H251016   1.052   1.281  11.948 -0.1229  0.2550 -1.6449
 8941TIP3   OH251017   0.924   0.352  11.763  0.6536 -0.2270 -0.2048
 8941TIP3    H151018   0.846   0.356  11.818  0.0620 -0.5198 -1.0009
 8941TIP3    H251019   0.933   0.441  11.728 -0.6285 -0.7044 -1.8495
 8942TIP3   OH251020   0.536   2.040  10.524  0.2288 -0.0093  0.1366
 8942TIP3    H151021   0.461   2.079  10.569 -0.4229 -1.5754  0.4693
 8942TIP3    H251022   0.586   2.115  10.492 -0.4842  1.1197  1.5203
 8943TIP3   OH251023   1.223   1.876  12.371  0.1515  0.0309 -0.3990
 8943TIP3    H151024   1.277   1.826  12.433 -0.1449  0.8991  0.6017
 8943TIP3    H251025   1.262   1.859  12.286  0.4184 -1.4153 -0.0224
 8944TIP3   OH251026   6.168   2.129   9.837  0.2185 -0.4107  0.5432
 8944TIP3    H151027   6.251   2.111   9.793 -0.2503 -1.0338 -0.1172
 8944TIP3    H251028   6.162   2.060   9.904  0.0933 -0.5490  0.3900
 8945TIP3   OH251029   2.030   6.048  10.671 -0.4254 -0.3737  0.0062
 8945TIP3    H151030   1.991   6.098  10.599 -2.0339 -2.7791 -0.9515
 8945TIP3    H251031   1.977   5.968  10.674  1.1778 -1.4276  2.2812
 8946TIP3   OH251032   1.563   3.932  12.650 -0.0348 -0.0480 -0.0747
 8946TIP3    H151033   1.642   3.912  12.701  0.1442 -0.9420 -0.6870
 8946TIP3    H251034   1.589   3.920  12.559 -1.0011 -0.8112 -0.2647
 8947TIP3   OH251035   0.858   3.303   9.437 -0.3044 -0.0394 -0.2506
 8947TIP3    H151036   0.823   3.227   9.483  0.4939 -1.0801 -1.2992
 8947TIP3    H251037   0.781   3.347   9.401 -0.6628 -2.1867 -2.3707
 8948TIP3   OH251038   2.531   0.725  11.589 -0.4084 -0.0600  0.0080
 8948TIP3    H151039   2.575   0.653  11.545  2.1845 -0.6645  3.2104
 8948TIP3    H251040   2.589   0.800  11.576 -1.2979  0.5971 -0.3214
 8949TIP3   OH251041   2.205   3.404  10.346  0.0387  0.0150 -0.0365
 8949TIP3    H151042   2.275   3.366  10.399  0.8415  0.0398 -1.0613
 8949TIP3    H251043   2.134   3.339  10.350 -0.1474  0.2840  1.5217
 8950TIP3   OH251044   0.392   3.278  11.702 -0.4727  0.1074 -0.0420
 8950TIP3    H151045   0.408   3.313  11.614  0.0775 -0.3321 -0.1229
 8950TIP3    H251046   0.382   3.184  11.688 -1.0782  0.1214  0.2817
 8951TIP3   OH251047   0.059   6.218  12.477 -0.5893  0.2782 -0.2563
 8951TIP3    H151048   0.068   6.313  12.475 -0.3357  0.3754  2.2837
 8951TIP3    H251049  -0.035   6.203  12.489 -0.6341  0.2155 -0.6964
 8952TIP3   OH251050   4.964   5.684   9.912 -0.5806  0.5398 -0.1248
 8952TIP3    H151051   5.010   5.750   9.964 -2.2774  0.7695  1.1801
 8952TIP3    H251052   4.882   5.670   9.959 -1.1778 -0.9609 -1.5344
 8953TIP3   OH251053   0.002   1.490  11.825  0.6103  0.7710 -0.2526
 8953TIP3    H151054   0.067   1.560  11.818 -0.4845  1.7382 -1.2316
 8953TIP3    H251055   0.017   1.436  11.747  1.5554 -0.2085  0.5817
 8954TIP3   OH251056   3.550   3.114   9.448 -0.2865  0.1189 -0.0003
 8954TIP3    H151057   3.585   3.038   9.401  0.8916  1.1842 -0.9409
 8954TIP3    H251058   3.617   3.136   9.512 -0.6293  0.3409  0.2859
 8955TIP3   OH251059   2.412   4.248  11.481 -0.1143  0.3566  0.4694
 8955TIP3    H151060   2.394   4.279  11.393 -0.7221  0.8457  0.7592
 8955TIP3    H251061   2.326   4.244  11.523  0.3214  1.8307  1.5915
 8956TIP3   OH251062   1.637   1.158  12.667 -0.4492  0.3030 -0.3487
 8956TIP3    H151063   1.723   1.143  12.627 -1.6443 -1.6733 -2.4281
 8956TIP3    H251064   1.615   1.075  12.709 -1.6217  0.5703 -0.4018
 8957TIP3   OH251065   1.431   1.042  12.857 -0.1521 -0.0325  0.7272
 8957TIP3    H151066   1.431   0.995  12.940  0.6532  2.5566  2.2986
 8957TIP3    H251067   1.507   1.008  12.810  0.0939 -0.6755  1.5645
 8958TIP3   OH251068   4.324   3.728  10.850 -0.1444 -0.5742  0.0646
 8958TIP3    H151069   4.343   3.729  10.944 -0.5625 -1.3050  0.1670
 8958TIP3    H251070   4.363   3.647  10.818 -0.2204 -0.4542 -0.3448
 8959TIP3   OH251071   6.102   5.811  11.919  0.6490 -0.1686  0.5907
 8959TIP3    H151072   6.119   5.843  12.008  3.7695  0.0418  0.0274
 8959TIP3    H251073   6.014   5.773  11.924 -0.1131  1.6299  3.2193
 8960TIP3   OH251074   1.134   6.370  11.897  0.5922 -0.2148 -0.1966
 8960TIP3    H151075   1.103   6.459  11.914  0.5693 -0.3651  0.5832
 8960TIP3    H251076   1.203   6.355  11.961 -0.1121 -1.1187  0.3890
 8961TIP3   OH251077   6.207   6.318   9.620 -0.0712 -0.3426  0.3309
 8961TIP3    H151078   6.299   6.295   9.604  0.0978 -0.2401  1.0996
 8961TIP3    H251079   6.179   6.362   9.540  1.2794  1.8677  0.9743
 8962TIP3   OH251080   1.049   4.917  10.023  0.5206  0.3581 -0.0749
 8962TIP3    H151081   1.021   4.991  10.077 -0.6566  0.9258 -1.3867
 8962TIP3    H251082   1.052   4.952   9.934 -0.0329 -1.1570 -0.7303
 8963TIP3   OH251083   2.425   4.852  11.447 -0.0541  0.4711  0.4958
 8963TIP3    H151084   2.428   4.803  11.529 -2.0759 -0.5437  0.0261
 8963TIP3    H251085   2.516   4.856  11.419  0.3417 -2.2632  1.0309
 8964TIP3   OH251086   6.152   3.978  11.676 -0.2797 -0.0397 -0.2945
 8964TIP3    H151087   6.090   4.046  11.650  0.4027  0.6478 -0.1683
 8964TIP3    H251088   6.115   3.897  11.641 -1.1343  0.3840 -0.3982
 8965TIP3   OH251089   3.688   1.191  10.460 -0.5513 -0.6930 -0.1222
 8965TIP3    H151090   3.679   1.285  10.452  1.8283 -0.4795 -1.0939
 8965TIP3    H251091   3.626   1.154  10.397 -0.6953  0.2598 -0.5410
 8966TIP3   OH251092   0.732   5.111   9.433  0.0831 -0.5124  0.4022
 8966TIP3    H151093   0.753   5.181   9.372  2.8247 -1.1004  0.5321
 8966TIP3    H251094   0.642   5.129   9.460 -0.4625  1.0034 -2.0903
 8967TIP3   OH251095   3.426   1.265  12.275  0.1632  0.1131 -0.1422
 8967TIP3    H151096   3.349   1.211  12.291  1.0964 -0.8519  1.2324
 8967TIP3    H251097   3.396   1.331  12.212 -1.4737 -0.9068 -0.4787
 8968TIP3   OH251098   3.829   4.046  10.988 -0.8391  0.3277  0.3823
 8968TIP3    H151099   3.803   3.954  10.980 -0.8053  0.4722 -1.7794
 8968TIP3    H251100   3.767   4.094  10.935  0.9741  1.1892 -1.0667
 8969TIP3   OH251101   3.529   3.264   9.674  0.0265  0.0382 -0.1416
 8969TIP3    H151102   3.464   3.248   9.606 -0.8243  0.5929  0.5032
 8969TIP3    H251103   3.492   3.223   9.752 -1.7159  3.8722  1.3042
 8970TIP3   OH251104   3.277   3.083  11.168  0.2354 -0.2599  0.1131
 8970TIP3    H151105   3.333   3.056  11.241  0.3966  0.4463  0.2588
 8970TIP3    H251106   3.218   3.148  11.205  0.0108 -0.2329 -0.2817
 8971TIP3   OH251107   5.546   2.767  11.309  0.2765  0.0661  0.7089
 8971TIP3    H151108   5.574   2.858  11.300  0.9539 -0.3017 -1.4433
 8971TIP3    H251109   5.619   2.716  11.273 -0.1818 -1.3277  1.6859
 8972TIP3   OH251110   2.788   6.137   9.956 -0.1440 -0.6061 -0.2484
 8972TIP3    H151111   2.854   6.086  10.003 -0.6403 -2.5552 -1.5597
 8972TIP3    H251112   2.834   6.171   9.880 -0.0027  0.3533  0.2453
 8973TIP3   OH251113   0.123   1.007   9.942 -0.1594 -0.0783  0.3895
 8973TIP3    H151114   0.194   1.069   9.958  1.8835 -2.5311  1.5263
 8973TIP3    H251115   0.115   1.004   9.846 -0.5688  2.1265  0.3068
 8974TIP3   OH251116   6.281   6.007  10.485  0.0316  0.0832 -0.0676
 8974TIP3    H151117   6.234   6.069  10.429 -0.9118  0.0572  0.6763
 8974TIP3    H251118   6.235   6.011  10.569 -0.4506 -2.1141 -0.1899
 8975TIP3   OH251119   1.898   5.326  11.418 -0.2152  0.4012 -0.0015
 8975TIP3    H151120   1.866   5.328  11.328  1.2914  1.2808 -0.5683
 8975TIP3    H251121   1.898   5.234  11.441 -0.2610  0.1162 -1.0642
 8976TIP3   OH251122   5.519   2.232   9.616 -0.5518  0.1495 -0.1372
 8976TIP3    H151123   5.428   2.202   9.625 -0.6689  0.6157  0.2380
 8976TIP3    H251124   5.569   2.152   9.600 -1.0182 -0.1184 -0.2769
 8977TIP3   OH251125   1.601   2.955   9.039  1.0095  1.0066  0.2712
 8977TIP3    H151126   1.555   3.029   9.000 -1.9285 -0.7679  0.0935
 8977TIP3    H251127   1.600   2.973   9.133 -0.1440  0.9983  0.2757
 8978TIP3   OH251128   3.647   3.494   9.801 -0.7176  0.6510 -0.0462
 8978TIP3    H151129   3.620   3.416   9.753  0.2963  1.1588 -1.5297
 8978TIP3    H251130   3.715   3.463   9.861  0.3170  0.5088 -1.2593
 8979TIP3   OH251131   5.027   0.646  10.892 -0.1117  0.4438  0.7311
 8979TIP3    H151132   5.046   0.698  10.970 -1.2437  0.2617  1.1460
 8979TIP3    H251133   4.944   0.603  10.911  0.2680 -0.6826 -0.0401
 8980TIP3   OH251134   2.771   6.165  11.950  0.0232  0.0105 -0.0097
 8980TIP3    H151135   2.850   6.215  11.929  0.0375 -0.0324 -0.0561
 8980TIP3    H251136   2.804   6.082  11.984  0.0000 -0.6712 -1.5589
 8981TIP3   OH251137   2.758   0.255  11.738  0.9119 -0.3473 -0.1496
 8981TIP3    H151138   2.667   0.284  11.731  1.0824 -0.1336 -1.6312
 8981TIP3    H251139   2.762   0.211  11.823 -0.9850 -1.8608 -0.7742
 8982TIP3   OH251140   4.892   5.461  10.938 -0.2055 -0.0452 -0.3695
 8982TIP3    H151141   4.899   5.417  11.022  0.3387  0.8709  0.0881
 8982TIP3    H251142   4.865   5.393  10.877 -0.0173 -0.8551  0.4306
 8983TIP3   OH251143   3.581   4.454  11.889 -0.2168  0.3859  0.0913
 8983TIP3    H151144   3.608   4.464  11.981  0.2026  1.3776 -0.1260
 8983TIP3    H251145   3.491   4.421  11.894 -0.0855  0.1159  0.8533
 8984TIP3   OH251146   2.299   4.536  12.072 -0.3604 -0.2143  0.3237
 8984TIP3    H151147   2.290   4.550  11.978  0.1398 -1.1494  0.1220
 8984TIP3    H251148   2.210   4.545  12.107 -0.3490  1.4897 -0.0309
 8985TIP3   OH251149   0.360   1.199  11.367 -0.4924 -0.3289 -0.3017
 8985TIP3    H151150   0.373   1.258  11.293  0.3571  0.9818  0.8252
 8985TIP3    H251151   0.371   1.256  11.444  0.3772 -1.9796  0.8392
 8986TIP3   OH251152   5.062   2.359   9.710  0.2067  0.0836 -0.1698
 8986TIP3    H151153   5.050   2.418   9.785  1.5905  1.1505 -0.7397
 8986TIP3    H251154   5.157   2.349   9.702  0.0445 -0.9317 -1.0899
 8987TIP3   OH251155   6.519   5.043  10.274  0.1767  0.3550 -0.4695
 8987TIP3    H151156   6.556   5.129  10.291  0.7513  0.1095 -0.4423
 8987TIP3    H251157   6.435   5.043  10.319  0.5152  0.6327  0.1747
 8988TIP3   OH251158   1.427   2.836   9.703 -0.6613  0.4796 -0.2372
 8988TIP3    H151159   1.505   2.781   9.710 -0.5001  0.5046 -1.5972
 8988TIP3    H251160   1.414   2.870   9.791 -0.2252 -0.9912  0.4233
 8989TIP3   OH251161   3.577   3.526  12.064 -0.5937  0.4811 -0.3393
 8989TIP3    H151162   3.668   3.558  12.063  0.1155 -1.3363  0.6134
 8989TIP3    H251163   3.551   3.533  12.156 -1.7044  1.5928 -0.6978
 8990TIP3   OH251164   5.472   4.204  11.103  0.3490 -0.5541  0.1378
 8990TIP3    H151165   5.541   4.266  11.124  0.5130 -0.9753  0.8942
 8990TIP3    H251166   5.517   4.129  11.065  0.2806 -0.6992  0.3380
 8991TIP3   OH251167   6.537   4.261  11.983  0.3916  0.1883 -0.3029
 8991TIP3    H151168   6.459   4.228  11.938 -0.2169  1.9796 -0.6639
 8991TIP3    H251169   6.595   4.288  11.913  0.1192  1.4933 -0.0490
 8992TIP3   OH251170   3.464   2.553  10.858 -0.1500 -0.5780  0.1616
 8992TIP3    H151171   3.399   2.608  10.814 -1.1435 -0.8181  1.2952
 8992TIP3    H251172   3.503   2.609  10.925  0.2467 -0.6781  0.0191
 8993TIP3   OH251173   0.271   4.106  12.891  0.3603 -0.0523  0.0431
 8993TIP3    H151174   0.315   4.072  12.969  1.2150 -0.0393 -0.4200
 8993TIP3    H251175   0.230   4.030  12.851 -0.4947  0.0171  0.7528
 8994TIP3   OH251176   3.946   4.061  10.245 -0.4546  0.0686  0.1803
 8994TIP3    H151177   3.958   4.072  10.339  0.7486 -0.3332  0.0948
 8994TIP3    H251178   3.982   4.141  10.207  0.4951 -0.4336 -0.0054
 8995TIP3   OH251179   3.602   1.478  11.488 -0.6928  0.5575 -0.1974
 8995TIP3    H151180   3.613   1.571  11.469  0.3688  0.3284 -0.7839
 8995TIP3    H251181   3.524   1.474  11.543 -1.2610  1.7017 -0.8833
 8996TIP3   OH251182   2.565   1.177  12.146  0.4724 -0.0849 -0.5485
 8996TIP3    H151183   2.491   1.231  12.119  0.6967  0.4220 -0.1684
 8996TIP3    H251184   2.641   1.234  12.135  0.5969  0.0712  0.9200
 8997TIP3   OH251185   1.146   3.718  11.078  0.2206  0.0866 -0.2917
 8997TIP3    H151186   1.126   3.631  11.044  0.3847 -0.4679  0.9885
 8997TIP3    H251187   1.138   3.710  11.173 -1.5517  1.9266 -0.2057
 8998TIP3   OH251188   1.931   5.342  12.547  0.1316  0.0947 -0.4391
 8998TIP3    H151189   1.996   5.288  12.502 -0.1776 -0.5860 -0.0904
 8998TIP3    H251190   1.894   5.284  12.614  0.7996  1.1652  0.9122
 8999TIP3   OH251191   1.569   3.022  12.343 -0.8982  0.3213  0.1703
 8999TIP3    H151192   1.554   3.078  12.418 -0.6384 -0.8606  1.1342
 8999TIP3    H251193   1.622   3.075  12.283 -1.8036  1.5676  0.4261
 9000TIP3   OH251194   6.090   6.662   9.402  0.4362 -0.3385  0.5535
 9000TIP3    H151195   6.133   6.578   9.386  1.8193  0.7696 -2.1427
 9000TIP3    H251196   6.028   6.671   9.330 -0.9313  0.2495  1.7635
 9001TIP3   OH251197   3.904   0.074  10.834  0.4258  0.4964 -0.4770
 9001TIP3    H151198   3.896   0.166  10.807 -0.2467  0.4223 -0.5475
 9001TIP3    H251199   3.891   0.076  10.929  0.9289  0.5323 -0.4062
 9002TIP3   OH251200   2.015   2.779  13.117  0.0951 -0.5673 -0.1931
 9002TIP3    H151201   1.921   2.772  13.137  0.6611 -1.9565  2.4393
 9002TIP3    H251202   2.032   2.873  13.120 -1.2756 -0.2446 -1.2498
 9003TIP3   OH251203   1.701   1.999  10.477 -0.2246  1.0719  0.0313
 9003TIP3    H151204   1.613   1.970  10.450  0.4924 -0.5858 -0.6524
 9003TIP3    H251205   1.726   2.065  10.412 -1.7228  3.1119  1.3773
 9004TIP3   OH251206   0.470   3.805  10.173 -0.5071 -0.2256 -0.0202
 9004TIP3    H151207   0.500   3.833  10.087 -0.8595  0.9996  0.2353
 9004TIP3    H251208   0.381   3.839  10.180  0.1447  1.2882  1.5168
 9005TIP3   OH251209   2.376   4.725   9.703  0.2248 -0.0076 -0.0948
 9005TIP3    H151210   2.422   4.701   9.622  2.2029 -0.6006  1.1199
 9005TIP3    H251211   2.360   4.819   9.695 -0.7201 -0.2637 -1.6620
 9006TIP3   OH251212   1.094   5.156   9.865  0.5009  0.0262  0.3982
 9006TIP3    H151213   1.123   5.222   9.802  1.6022 -0.1596  0.6956
 9006TIP3    H251214   1.023   5.199   9.913  1.5998  1.2354  0.9941
 9007TIP3   OH251215   2.845   3.369   9.403 -0.7318  0.1591  0.1085
 9007TIP3    H151216   2.934   3.402   9.419 -0.6921  0.1700 -0.1316
 9007TIP3    H251217   2.841   3.287   9.452 -0.0137 -0.7091 -1.2260
 9008TIP3   OH251218   1.200   0.098  10.568  0.4007  0.2506  0.0860
 9008TIP3    H151219   1.117   0.055  10.549  1.0540 -1.2755  0.5823
 9008TIP3    H251220   1.200   0.110  10.663  1.3099 -0.9923  0.2597
 9009TIP3   OH251221   3.626   0.236  11.472 -0.0112 -0.3097 -0.7748
 9009TIP3    H151222   3.602   0.182  11.397 -2.0654  1.4506 -1.4924
 9009TIP3    H251223   3.543   0.254  11.516  0.3920  3.0387 -1.1541
 9010TIP3   OH251224   1.339   2.385  12.446 -0.0984  0.0180  0.4625
 9010TIP3    H151225   1.275   2.315  12.430  0.9519 -0.5898 -1.4795
 9010TIP3    H251226   1.420   2.339  12.466 -0.0082  0.7601  1.8632
 9011TIP3   OH251227   2.964   3.421  10.608  0.2014  0.2094 -0.4302
 9011TIP3    H151228   2.947   3.327  10.615  0.9694 -0.1751 -2.7417
 9011TIP3    H251229   3.042   3.436  10.660 -0.2657 -0.3011  0.4383
 9012TIP3   OH251230   5.233   2.499  11.440  0.4224  0.7507  0.4911
 9012TIP3    H151231   5.176   2.544  11.378  2.1439 -0.2431 -1.9906
 9012TIP3    H251232   5.304   2.561  11.456  1.4966 -0.0446 -0.9486
 9013TIP3   OH251233   4.698   0.946   9.913  0.2710 -0.1012 -0.1294
 9013TIP3    H151234   4.702   0.970   9.820  0.7080 -1.2183 -0.4271
 9013TIP3    H251235   4.640   0.870   9.915  0.8382 -0.5302  0.4059
 9014TIP3   OH251236   3.664   4.117  10.052 -0.4282  0.5188 -0.4232
 9014TIP3    H151237   3.674   4.191   9.993 -2.6522  1.2095 -0.0285
 9014TIP3    H251238   3.715   4.141  10.129  0.0182  0.9895 -0.8558
 9015TIP3   OH251239   4.877   2.652   9.261  0.0901  0.1680  0.0527
 9015TIP3    H151240   4.799   2.599   9.276 -0.3616  0.8839  0.2652
 9015TIP3    H251241   4.948   2.601   9.300 -0.2711 -0.4512 -0.0756
 9016TIP3   OH251242   4.699   6.211   9.723 -0.9785  0.7408  0.4189
 9016TIP3    H151243   4.738   6.164   9.797  2.2590 -2.3954 -2.8357
 9016TIP3    H251244   4.757   6.287   9.711 -1.1978  0.9664  0.7643
 9017TIP3   OH251245   2.677   6.113  11.308 -0.5354  0.8278 -0.0230
 9017TIP3    H151246   2.724   6.036  11.274 -0.1637 -0.0562  2.2922
 9017TIP3    H251247   2.741   6.184  11.302 -0.6533  0.8478 -1.5516
 9018TIP3   OH251248   4.478   6.397  12.308 -0.0281  0.2501  0.8931
 9018TIP3    H151249   4.562   6.358  12.284  1.6859  3.1864  1.6194
 9018TIP3    H251250   4.430   6.326  12.351  2.3738 -1.3473  1.1204
 9019TIP3   OH251251   4.641   1.991  11.323  0.3244 -0.0667  0.6585
 9019TIP3    H151252   4.729   2.017  11.349  0.1262  1.5809 -0.1881
 9019TIP3    H251253   4.623   2.041  11.244 -1.6475  0.1809  1.2055
 9020TIP3   OH251254   5.025   5.990  10.368 -0.7234  0.1860 -0.3818
 9020TIP3    H151255   5.012   6.023  10.457 -1.2605  0.7841 -0.6752
 9020TIP3    H251256   5.109   6.027  10.341  0.2767 -1.3552  0.4714
 9021TIP3   OH251257   2.919   3.668   9.665 -0.0763  0.7744  0.1306
 9021TIP3    H151258   2.955   3.696   9.581 -0.0740  1.7182  0.4284
 9021TIP3    H251259   2.832   3.635   9.645 -0.1575  1.1946 -0.2191
 9022TIP3   OH251260   0.374   3.222  10.486 -0.0493  0.5091 -0.7451
 9022TIP3    H151261   0.301   3.172  10.523 -0.4491  1.0772 -0.7387
 9022TIP3    H251262   0.339   3.258  10.404  0.6130 -0.1818 -1.3449
 9023TIP3   OH251263   1.562   4.851  12.421  0.0100 -0.4012 -0.0812
 9023TIP3    H151264   1.559   4.945  12.438 -2.4650 -0.7174  1.7858
 9023TIP3    H251265   1.639   4.820  12.469  0.6466  0.5871 -0.4349
 9024TIP3   OH251266   3.505   0.847  11.638  0.2567  0.4234 -0.0440
 9024TIP3    H151267   3.483   0.847  11.731  0.0138  1.4183 -0.0937
 9024TIP3    H251268   3.599   0.867  11.635  0.3153  0.1586 -0.0067
 9025TIP3   OH251269   4.816   0.172  11.400  0.5075 -0.4473  0.4519
 9025TIP3    H151270   4.791   0.189  11.309  1.2557 -1.5655  0.0064
 9025TIP3    H251271   4.778   0.244  11.450 -0.3750 -0.1059 -0.6773
 9026TIP3   OH251272   6.554   2.957  11.138 -0.1958 -0.6746  0.4648
 9026TIP3    H151273   6.536   2.863  11.126  0.6488 -0.5920 -2.1469
 9026TIP3    H251274   6.468   2.999  11.132 -0.5433 -1.2254  1.3258
 9027TIP3   OH251275   0.893   5.531   9.766  0.0275  0.2554 -0.4696
 9027TIP3    H151276   0.887   5.608   9.709 -2.0319  0.0956 -0.5202
 9027TIP3    H251277   0.851   5.557   9.847 -2.7892 -1.4057 -1.2415
 9028TIP3   OH251278   6.533   5.448  12.574  0.7556  0.5622  0.6297
 9028TIP3    H151279   6.578   5.504  12.511  1.7930 -1.1952 -0.2896
 9028TIP3    H251280   6.587   5.453  12.653  1.3482  0.1767  0.2565
 9029TIP3   OH251281   0.229   6.039  11.214  0.1738  0.1154  0.7401
 9029TIP3    H151282   0.301   5.981  11.187  0.7929  0.0088  2.5364
 9029TIP3    H251283   0.229   6.108  11.148  1.7264 -0.0491  0.5373
 9030TIP3   OH251284   0.289   6.506  12.339 -0.3224 -0.4861  0.7297
 9030TIP3    H151285   0.338   6.583  12.369  0.3862 -1.0561  1.0777
 9030TIP3    H251286   0.221   6.495  12.405  0.0434 -0.5957  1.0956
 9031TIP3   OH251287   5.160   3.499  11.393 -0.3054 -0.3643  0.6270
 9031TIP3    H151288   5.093   3.509  11.461 -2.3476 -0.2097 -1.2656
 9031TIP3    H251289   5.142   3.571  11.332  2.5786  0.5804  0.7646
 9032TIP3   OH251290   1.060   4.903  10.468 -0.1735 -0.0150  0.4178
 9032TIP3    H151291   1.143   4.944  10.492  0.9411 -2.1618  0.4654
 9032TIP3    H251292   0.993   4.964  10.500  1.3474  1.2480  1.3462
 9033TIP3   OH251293   1.077   6.245  11.183 -0.0123 -0.4284  0.3223
 9033TIP3    H151294   1.153   6.209  11.137  0.2556  0.0362  0.3899
 9033TIP3    H251295   1.102   6.335  11.203 -1.2716  0.3238 -1.2577
 9034TIP3   OH251296   4.054   1.814  10.997  0.3972  0.2011  0.4327
 9034TIP3    H151297   4.057   1.896  10.947 -0.7249  1.1841  1.8815
 9034TIP3    H251298   3.977   1.824  11.054  0.1449 -1.9482  0.5307
 9035TIP3   OH251299   6.462   3.367   9.648  0.3390  0.5244 -0.2319
 9035TIP3    H151300   6.376   3.328   9.630  1.3549 -1.0009 -2.1512
 9035TIP3    H251301   6.502   3.309   9.712  1.1455 -0.6664 -1.7484
 9036TIP3   OH251302   2.631   2.575  11.641 -0.5083 -0.1919 -0.0656
 9036TIP3    H151303   2.578   2.631  11.584  0.0859 -1.0923 -1.5663
 9036TIP3    H251304   2.721   2.598  11.618 -0.1758  1.1788  2.3112
 9037TIP3   OH251305   3.423   0.358  11.675 -0.6526 -0.1535 -0.0270
 9037TIP3    H151306   3.477   0.426  11.715  0.7927 -0.5116 -1.2615
 9037TIP3    H251307   3.368   0.405  11.612 -1.2593  0.1210  0.6960
 9038TIP3   OH251308   3.767   1.254  12.268 -0.4974 -0.3023 -0.2068
 9038TIP3    H151309   3.802   1.301  12.344  0.0606  0.6493 -1.0158
 9038TIP3    H251310   3.748   1.166  12.300  2.3588 -0.7946  0.3939
 9039TIP3   OH251311   0.535   6.028  11.725 -0.1620  0.3321  0.6210
 9039TIP3    H151312   0.468   6.049  11.661 -0.4689 -0.5476  0.6445
 9039TIP3    H251313   0.507   6.073  11.805 -0.5595  0.2121  0.5482
 9040TIP3   OH251314   4.657   0.814   9.496 -0.3622 -0.1675  0.0707
 9040TIP3    H151315   4.737   0.769   9.469 -0.1087  0.9505 -1.1356
 9040TIP3    H251316   4.687   0.899   9.530 -0.9424 -0.2780  0.8862
 9041TIP3   OH251317   2.627   1.579  10.292 -0.4149  0.2035 -0.6239
 9041TIP3    H151318   2.637   1.661  10.341  0.7643  0.1000 -0.6651
 9041TIP3    H251319   2.686   1.589  10.217 -0.8204 -0.3893 -1.0315
 9042TIP3   OH251320   6.576   6.418  11.980  0.3030 -0.5077  0.1003
 9042TIP3    H151321   6.585   6.512  11.994 -0.0061 -0.4438 -0.1044
 9042TIP3    H251322   6.482   6.405  11.965  0.4254 -0.7648 -0.4689
 9043TIP3   OH251323   6.662   0.497  10.015  0.0554 -0.3029 -0.6198
 9043TIP3    H151324   6.643   0.476   9.923 -2.1146 -0.2044 -0.2457
 9043TIP3    H251325   6.730   0.564  10.010 -0.2477 -0.0575 -2.1920
 9044TIP3   OH251326   3.678   0.613  10.331  0.0328  0.5197 -0.1047
 9044TIP3    H151327   3.619   0.547  10.293 -0.3876  1.4330 -1.0875
 9044TIP3    H251328   3.744   0.627  10.263  1.2756 -0.2981  0.8753
 9045TIP3   OH251329   4.838   1.272  10.460  0.4722  0.0439 -0.6425
 9045TIP3    H151330   4.884   1.332  10.519  0.3956  0.5854 -1.1276
 9045TIP3    H251331   4.763   1.322  10.428  0.9813  0.0573 -1.8518
 9046TIP3   OH251332   0.659   0.611  11.016  0.0575 -0.2626  0.1308
 9046TIP3    H151333   0.663   0.668  10.939  1.5723 -0.4028  0.0788
 9046TIP3    H251334   0.567   0.611  11.041 -0.2496  0.8076 -0.9148
 9047TIP3   OH251335   0.332   1.387  10.736 -0.0023  0.1696 -0.5731
 9047TIP3    H151336   0.253   1.389  10.791  1.4617 -1.8601  1.7875
 9047TIP3    H251337   0.341   1.477  10.704 -1.9989  1.0004  0.9651
 9048TIP3   OH251338   5.635   5.562  11.218 -0.5566 -0.2487 -0.2074
 9048TIP3    H151339   5.591   5.526  11.141  0.9958  1.0921 -1.8170
 9048TIP3    H251340   5.570   5.622  11.255 -1.9134 -2.0888  0.5430
 9049TIP3   OH251341   5.228   2.937  11.875 -0.3644 -0.4288 -0.3455
 9049TIP3    H151342   5.285   2.997  11.827  0.3908 -0.8403  0.0357
 9049TIP3    H251343   5.245   2.851  11.838 -0.6176 -0.5829 -0.1157
 9050TIP3   OH251344   4.920   4.473  12.328  0.1809 -0.3872  0.3885
 9050TIP3    H151345   4.977   4.424  12.387  1.3240  2.7090  2.0535
 9050TIP3    H251346   4.919   4.562  12.363 -5.2947 -0.0237  0.2233
 9051TIP3   OH251347   5.772   3.021  10.362  0.0936  0.1439  0.0993
 9051TIP3    H151348   5.837   2.988  10.300  0.0023  1.7295 -0.8908
 9051TIP3    H251349   5.730   3.094  10.317 -0.4171  0.9517  1.7914
 9052TIP3   OH251350   5.755   5.323  10.051 -0.3393  0.2535 -0.0891
 9052TIP3    H151351   5.704   5.393  10.010  0.1128  2.2092  2.4214
 9052TIP3    H251352   5.690   5.270  10.097 -0.4416  1.0007  0.6658
 9053TIP3   OH251353   3.372   2.342  11.065  0.3711 -0.1738 -0.1516
 9053TIP3    H151354   3.355   2.284  10.991  0.1636  1.1199 -1.1549
 9053TIP3    H251355   3.411   2.420  11.026 -0.1202  0.7085  1.0483
 9054TIP3   OH251356   5.391   0.684   9.978 -0.4522  0.0544 -0.3422
 9054TIP3    H151357   5.481   0.656   9.964 -0.2052  0.5524  0.2279
 9054TIP3    H251358   5.381   0.686  10.074 -1.0881 -0.0549 -0.3976
 9055TIP3   OH251359   4.007   6.686  10.311 -0.4024  0.1872 -0.9118
 9055TIP3    H151360   4.018   6.591  10.310  1.5392  0.3623 -0.2372
 9055TIP3    H251361   3.972   6.705  10.399  2.0348  0.2894  0.1192
 9056TIP3   OH251362   2.039   3.434  10.921  0.4739 -0.4002 -0.1256
 9056TIP3    H151363   2.011   3.501  10.859  1.7422 -1.4063 -1.8707
 9056TIP3    H251364   2.091   3.481  10.986  1.2270  0.3343 -1.2384
 9057TIP3   OH251365   3.591   1.917  11.925  0.4680 -0.1357 -0.2446
 9057TIP3    H151366   3.665   1.977  11.918  0.9899 -0.8974 -1.8780
 9057TIP3    H251367   3.514   1.973  11.914  0.9397  0.2949 -1.6426
 9058TIP3   OH251368   2.223   6.326  13.022 -0.0431  0.0313 -0.4299
 9058TIP3    H151369   2.209   6.266  13.095 -1.4517  0.2992 -0.4350
 9058TIP3    H251370   2.203   6.274  12.944 -2.0187  0.6573 -0.3939
 9059TIP3   OH251371   0.251   1.686  11.513 -0.7648  0.0174  0.1239
 9059TIP3    H151372   0.172   1.681  11.460  0.0328 -1.5331 -0.9702
 9059TIP3    H251373   0.304   1.754  11.471 -0.6275 -0.4022 -0.3812
 9060TIP3   OH251374   4.776   5.803  10.626 -0.4646  0.2394  0.4524
 9060TIP3    H151375   4.852   5.758  10.663  0.5420  0.6476 -1.0202
 9060TIP3    H251376   4.784   5.790  10.531 -1.1072  1.9854  0.1148
 9061TIP3   OH251377   2.795   4.578  10.233 -0.7799  0.0967 -0.0762
 9061TIP3    H151378   2.823   4.664  10.201 -0.6667  0.9919  2.2001
 9061TIP3    H251379   2.730   4.598  10.301  0.0852 -1.5415  1.3233
 9062TIP3   OH251380   0.230   5.763  10.170 -0.4828  0.4909  0.4476
 9062TIP3    H151381   0.218   5.670  10.187 -2.1330  0.8153  1.3131
 9062TIP3    H251382   0.280   5.767  10.088 -0.3588 -1.1410  0.4260
 9063TIP3   OH251383   6.033   1.227   9.792  0.0029 -0.1009  0.3214
 9063TIP3    H151384   6.014   1.320   9.806 -1.4384 -0.1700 -0.8818
 9063TIP3    H251385   6.011   1.186   9.876 -1.7554  0.3617  0.1443
 9064TIP3   OH251386   0.734   2.204  13.249 -0.1927 -0.2654 -0.3762
 9064TIP3    H151387   0.800   2.254  13.202 -1.6684  0.6403 -1.5951
 9064TIP3    H251388   0.695   2.267  13.310  0.6491 -1.0322  1.0092
 9065TIP3   OH251389   6.515   5.945  10.209  0.2579  0.4414  0.3036
 9065TIP3    H151390   6.503   6.004  10.135  0.2980 -1.8326 -1.6520
 9065TIP3    H251391   6.597   5.972  10.249  2.2937 -0.5028 -2.8563
 9066TIP3   OH251392   3.789   4.686  11.700  0.1004  0.1141 -0.3594
 9066TIP3    H151393   3.799   4.590  11.702 -2.5389 -0.2324  0.3521
 9066TIP3    H251394   3.836   4.716  11.778  1.5232 -0.5135 -0.9523
 9067TIP3   OH251395   6.498   4.383   9.722 -0.0945 -0.1464 -0.1628
 9067TIP3    H151396   6.527   4.467   9.758  1.3018 -1.0325  0.9026
 9067TIP3    H251397   6.551   4.372   9.643  1.0607 -0.8264  0.6794
 9068TIP3   OH251398   0.108   2.473  11.672 -0.1073 -0.1338  0.3919
 9068TIP3    H151399   0.127   2.380  11.684 -0.4872 -0.1558  0.8726
 9068TIP3    H251400   0.115   2.487  11.578 -0.6022 -0.7743  0.2545
 9069TIP3   OH251401   2.383   2.578  12.006 -0.0265 -0.1508 -0.0210
 9069TIP3    H151402   2.332   2.588  12.086  0.5550  0.0227  0.3390
 9069TIP3    H251403   2.359   2.653  11.952 -0.0950 -0.0312  0.1767
 9070TIP3   OH251404   4.379   1.407  11.273 -0.3263  0.8652 -0.1444
 9070TIP3    H151405   4.389   1.356  11.353  0.1305  0.9554 -0.1388
 9070TIP3    H251406   4.357   1.343  11.206  1.2866  0.4816 -0.3590
 9071TIP3   OH251407   2.341   4.164   9.675  0.3409 -0.6073  0.9090
 9071TIP3    H151408   2.394   4.084   9.675 -0.1883 -0.9687  1.7489
 9071TIP3    H251409   2.366   4.209   9.756  1.8122  0.9074 -0.3017
 9072TIP3   OH251410   4.597   1.571  10.971  0.0679 -0.0703  0.0286
 9072TIP3    H151411   4.505   1.547  10.984  0.1056 -0.1832  0.0857
 9072TIP3    H251412   4.595   1.634  10.899 -0.1535  0.6601  0.6722
 9073TIP3   OH251413   2.963   1.357   9.548 -0.6086 -0.2461 -0.2586
 9073TIP3    H151414   3.046   1.404   9.549 -0.3582 -0.6748 -0.4591
 9073TIP3    H251415   2.897   1.423   9.566 -0.1110 -0.1265  1.1979
 9074TIP3   OH251416   4.929   6.338  10.983 -0.1765  0.2727 -0.4371
 9074TIP3    H151417   4.957   6.394  10.910  1.5677  0.0284 -0.0017
 9074TIP3    H251418   5.006   6.333  11.040 -1.0826 -0.6190  0.7537
 9075TIP3   OH251419   0.865   5.352  11.280 -0.2989  0.5818 -0.2800
 9075TIP3    H151420   0.888   5.444  11.288  0.7711  0.2249  1.0325
 9075TIP3    H251421   0.921   5.307  11.343 -0.4347 -1.0373 -1.2455
 9076TIP3   OH251422   3.536   0.133   9.571 -0.1443  0.0138 -0.7446
 9076TIP3    H151423   3.574   0.103   9.488  2.0976 -1.0688  0.5854
 9076TIP3    H251424   3.599   0.197   9.604 -0.9891  0.4034  0.1409
 9077TIP3   OH251425   0.374   1.623  10.618 -0.3722 -0.3282  0.6253
 9077TIP3    H151426   0.468   1.641  10.616 -0.0709 -1.7626  0.8835
 9077TIP3    H251427   0.334   1.703  10.583  1.0797 -0.8129 -2.4471
 9078TIP3   OH251428   6.121   2.278  10.149  0.4981 -0.3341 -0.2064
 9078TIP3    H151429   6.165   2.279  10.064 -0.9416 -0.9030 -0.9959
 9078TIP3    H251430   6.104   2.370  10.168 -0.2566 -0.2572 -1.1458
 9079TIP3   OH251431   3.042   1.055  10.720  0.3828  0.3229  0.6321
 9079TIP3    H151432   2.961   1.071  10.671  0.0090  1.9379  1.6750
 9079TIP3    H251433   3.012   1.014  10.801  0.8402 -0.9874  0.1490
 9080TIP3   OH251434   0.316   2.140  12.899 -0.1821  0.7332  0.8251
 9080TIP3    H151435   0.349   2.093  12.975  0.9172  1.3129  0.7184
 9080TIP3    H251436   0.296   2.072  12.835  3.8001  0.4132 -0.3073
 9081TIP3   OH251437   6.540   6.530  11.220 -1.1144 -0.0983  0.4777
 9081TIP3    H151438   6.513   6.438  11.218 -1.7693  0.0991 -0.3431
 9081TIP3    H251439   6.472   6.576  11.172 -1.5641  1.0380  2.1360
 9082TIP3   OH251440   0.097   6.077  11.536 -0.1277 -0.0920 -0.4056
 9082TIP3    H151441   0.026   6.019  11.563 -0.7660  1.8207  2.4843
 9082TIP3    H251442   0.060   6.130  11.465 -1.1823 -0.0219  0.1768
 9083TIP3   OH251443   0.659   2.707  11.881 -0.1031  0.0626 -0.4683
 9083TIP3    H151444   0.685   2.666  11.798  0.6633  0.7406 -0.5833
 9083TIP3    H251445   0.726   2.678  11.943 -0.7034 -0.4814 -0.0710
 9084TIP3   OH251446   1.971   4.388   9.329  0.1623 -0.1683  0.0622
 9084TIP3    H151447   1.937   4.300   9.314 -1.1621  0.1359  0.9846
 9084TIP3    H251448   2.052   4.375   9.379 -0.8582 -0.8587  1.6145
 9085TIP3   OH251449   6.305   6.423  11.931  0.7398  0.2634  0.0197
 9085TIP3    H151450   6.263   6.490  11.877  2.5852 -0.2082 -2.1321
 9085TIP3    H251451   6.240   6.402  11.999 -1.5735  1.1120 -1.8225
 9086TIP3   OH251452   2.685   1.496  10.688 -0.1747  0.0621  0.7477
 9086TIP3    H151453   2.693   1.535  10.775  0.1114  1.3095  0.1775
 9086TIP3    H251454   2.768   1.514  10.645 -1.2033  1.7352 -0.6711
 9087TIP3   OH251455   1.157   2.806   9.047 -0.0477  0.4580 -0.2164
 9087TIP3    H151456   1.162   2.811   8.952  1.1113 -2.0882 -0.3564
 9087TIP3    H251457   1.089   2.742   9.064  1.4447 -0.9988  0.5463
 9088TIP3   OH251458   3.650   3.533  10.922  0.1477  0.0071  0.5133
 9088TIP3    H151459   3.607   3.617  10.939 -0.1711 -0.2631  1.0731
 9088TIP3    H251460   3.631   3.480  11.000  1.1685 -0.2562  0.5920
 9089TIP3   OH251461   3.552   2.481   9.504  0.2921  0.5773 -0.9188
 9089TIP3    H151462   3.478   2.461   9.562  0.7972 -1.1327 -0.8185
 9089TIP3    H251463   3.533   2.569   9.472 -0.0280  1.6371  1.8279
 9090TIP3   OH251464   4.444   0.376  10.547 -0.0422  0.4291  0.0459
 9090TIP3    H151465   4.502   0.418  10.611  0.9497  0.7311 -1.0122
 9090TIP3    H251466   4.413   0.449  10.492 -0.1741  0.0697 -0.3615
 9091TIP3   OH251467   3.186   5.856  11.264 -0.0238 -0.4342  0.3519
 9091TIP3    H151468   3.260   5.806  11.229  0.3595 -0.1468  0.7464
 9091TIP3    H251469   3.112   5.795  11.261  0.3162 -0.8443  0.3147
 9092TIP3   OH251470   2.108   4.420  10.843 -0.3262  0.1331  0.2589
 9092TIP3    H151471   2.051   4.393  10.771 -0.6091  1.1683  0.0753
 9092TIP3    H251472   2.067   4.500  10.877  0.9166  0.8254  0.2098
 9093TIP3   OH251473   1.641   2.663   9.748 -0.1418 -1.1665 -0.2709
 9093TIP3    H151474   1.710   2.604   9.717  1.8880 -0.6073  2.7534
 9093TIP3    H251475   1.588   2.609   9.807 -0.2844 -0.7650 -0.0290
 9094TIP3   OH251476   3.027   2.114  10.037  0.0294 -0.0821 -0.7258
 9094TIP3    H151477   2.943   2.162  10.034 -0.2355 -0.5918 -1.8307
 9094TIP3    H251478   3.093   2.182  10.029 -0.3513  0.1072 -2.6381
 9095TIP3   OH251479   3.517   3.324  10.064 -0.5347 -0.6809 -0.1189
 9095TIP3    H151480   3.511   3.250  10.004  0.3177  0.7878 -2.1101
 9095TIP3    H251481   3.597   3.307  10.114 -0.1495 -0.9498 -0.8037
 9096TIP3   OH251482   1.244   3.093  12.908  0.2754 -0.2725  0.0848
 9096TIP3    H151483   1.279   3.134  12.987  0.6634 -0.7700  0.1740
 9096TIP3    H251484   1.268   3.000  12.916  3.1737  0.1527 -2.1370
 9097TIP3   OH251485   1.571   3.823  11.246  0.0795 -0.1585  0.5767
 9097TIP3    H151486   1.624   3.775  11.310  0.5810 -1.0876 -0.5006
 9097TIP3    H251487   1.482   3.794  11.261  0.3634 -1.3923  0.0071
 9098TIP3   OH251488   2.813   4.652   9.267  0.7402 -0.3956  0.4473
 9098TIP3    H151489   2.851   4.688   9.347  2.6994  1.5371 -1.2349
 9098TIP3    H251490   2.865   4.690   9.196 -2.1012 -0.4968 -1.8828
 9099TIP3   OH251491   0.331   1.302  10.204 -0.2706  0.2875  0.6135
 9099TIP3    H151492   0.328   1.397  10.220  1.6374  0.1683  1.9463
 9099TIP3    H251493   0.296   1.293  10.115  1.8962  2.5570 -0.6087
 9100TIP3   OH251494   3.544   1.370  11.246 -0.6286  0.2348 -0.1066
 9100TIP3    H151495   3.552   1.407  11.334 -1.3819  0.5099 -0.1421
 9100TIP3    H251496   3.450   1.377  11.226 -0.3813  0.6882 -1.1561
 9101TIP3   OH251497   6.682   1.195  11.510  0.3592  0.1597  0.2250
 9101TIP3    H151498   6.603   1.226  11.554 -0.0802 -0.8989  0.2007
 9101TIP3    H251499   6.753   1.245  11.550 -0.3551  1.4630 -0.0676
 9102TIP3   OH251500   6.385   3.982   9.380 -0.5254  0.2588  0.0973
 9102TIP3    H151501   6.460   3.932   9.413 -1.0912 -0.5141  0.2317
 9102TIP3    H251502   6.379   4.057   9.439  0.5550  0.6990 -0.3271
 9103TIP3   OH251503   1.657   0.474   9.341  0.0079  0.0667 -0.0751
 9103TIP3    H151504   1.717   0.528   9.290  0.3697  1.0923  1.3798
 9103TIP3    H251505   1.641   0.397   9.286 -0.8718  1.8025 -2.3967
 9104TIP3   OH251506   4.186   6.291  12.152  0.0289  0.1596  0.2844
 9104TIP3    H151507   4.261   6.285  12.211 -0.1867 -0.2619  0.5201
 9104TIP3    H251508   4.114   6.322  12.207 -0.5178 -1.5282  0.5738
 9105TIP3   OH251509   2.980   1.079  12.217 -0.2126 -0.9851  0.1414
 9105TIP3    H151510   2.948   1.154  12.266  0.3090  0.5239 -1.6815
 9105TIP3    H251511   3.068   1.062  12.253 -0.5747 -1.1358  0.9718
 9106TIP3   OH251512   1.703   6.479  10.533  0.1010  0.0473  0.1329
 9106TIP3    H151513   1.624   6.524  10.562 -1.2770 -0.5515 -2.4011
 9106TIP3    H251514   1.775   6.539  10.553 -1.1539  1.2821  1.0665
 9107TIP3   OH251515   1.655   1.507  12.840 -0.0802 -0.1344 -0.4336
 9107TIP3    H151516   1.590   1.575  12.854 -1.1820 -0.6803 -2.4834
 9107TIP3    H251517   1.617   1.429  12.880  0.7906  0.2136  1.1485
 9108TIP3   OH251518   0.860   2.836  10.712 -0.5198 -0.5875  0.0936
 9108TIP3    H151519   0.907   2.919  10.703 -2.1442  0.2885 -0.8563
 9108TIP3    H251520   0.886   2.786  10.634 -0.0768 -0.6925  0.3055
 9109TIP3   OH251521   6.571   6.234  10.679 -0.2991  0.1647 -0.5191
 9109TIP3    H151522   6.579   6.139  10.667 -0.2917  0.3907 -2.9142
 9109TIP3    H251523   6.477   6.252  10.666 -0.5459  0.3673  1.3211
 9110TIP3   OH251524   3.871   0.433  10.167  0.5398  0.3423  0.2265
 9110TIP3    H151525   3.963   0.453  10.185 -0.1267  3.5902  0.5758
 9110TIP3    H251526   3.845   0.374  10.238  2.2437 -0.4728  0.2346
 9111TIP3   OH251527   3.394   0.119  10.162 -0.1246 -0.3525  0.3979
 9111TIP3    H151528   3.458   0.065  10.208  1.3246 -0.4901 -1.6265
 9111TIP3    H251529   3.316   0.118  10.218  0.2048 -3.6736  0.9876
 9112TIP3   OH251530   5.277   6.094   9.957  0.4278  0.4239 -0.2292
 9112TIP3    H151531   5.309   6.176   9.994  0.2523 -0.5666  2.3274
 9112TIP3    H251532   5.351   6.034   9.961 -0.2775 -0.4128  0.8828
 9113TIP3   OH251533   5.393   4.725   9.942  0.1366  0.4320  0.0706
 9113TIP3    H151534   5.434   4.687  10.019  1.8169  0.9141 -0.5470
 9113TIP3    H251535   5.350   4.805   9.974 -0.2752 -0.0357  0.7090
 9114TIP3   OH251536   2.193   5.998  12.539 -0.0563  0.0712 -0.1839
 9114TIP3    H151537   2.165   6.064  12.477  1.4517 -0.3767 -1.4012
 9114TIP3    H251538   2.256   6.042  12.595 -0.7912  0.2553  0.5124
 9115TIP3   OH251539   6.457   1.277  11.614  0.0900 -0.7199  0.2414
 9115TIP3    H151540   6.411   1.354  11.648  0.3020 -1.4642  2.3686
 9115TIP3    H251541   6.397   1.204  11.633 -0.2274 -1.0895 -1.9706
 9116TIP3   OH251542   5.270   4.975  10.096  0.6200 -0.0616 -0.1577
 9116TIP3    H151543   5.358   5.001  10.124  1.2727  1.4598 -3.2018
 9116TIP3    H251544   5.242   5.045  10.037 -2.5839 -0.6202  0.5511
 9117TIP3   OH251545   0.012   6.256  11.332 -0.0084 -0.1476  0.0458
 9117TIP3    H151546   0.027   6.206  11.252 -2.8804 -1.3209  0.1163
 9117TIP3    H251547   0.062   6.337  11.320  2.6673 -1.8482 -1.2257
 9118TIP3   OH251548   2.379   1.204   9.376  0.3964  0.2644 -0.6011
 9118TIP3    H151549   2.320   1.259   9.324  1.4538  1.1300 -0.9293
 9118TIP3    H251550   2.410   1.262   9.445  0.3805 -0.3632 -0.0634
 9119TIP3   OH251551   4.547   5.965   9.816 -0.1843 -0.1036  0.4915
 9119TIP3    H151552   4.626   5.982   9.868 -1.1465  0.6532  1.7674
 9119TIP3    H251553   4.542   6.037   9.754  1.6553 -1.6591 -1.6237
 9120TIP3   OH251554   5.889   1.148  10.024  0.1432 -0.3050 -0.2654
 9120TIP3    H151555   5.802   1.112  10.007 -1.0011  1.9067  0.4205
 9120TIP3    H251556   5.924   1.095  10.095 -0.7626 -1.0379 -0.3460
 9121TIP3   OH251557   3.728   0.441   9.950  0.5742  0.2517  0.6415
 9121TIP3    H151558   3.780   0.450  10.030  0.2652  1.6900  0.6993
 9121TIP3    H251559   3.652   0.497   9.964 -0.7298 -1.3296  0.3122
 9122TIP3   OH251560   0.252   6.166  10.186  0.4998  0.2369  0.5621
 9122TIP3    H151561   0.266   6.218  10.265 -0.2092  1.6226 -0.1846
 9122TIP3    H251562   0.326   6.105  10.183  1.4948  1.3722  1.3336
 9123TIP3   OH251563   4.487   2.473   9.404 -0.2704  0.5430  0.4514
 9123TIP3    H151564   4.541   2.541   9.443  0.2414  0.0219  0.6710
 9123TIP3    H251565   4.434   2.439   9.476  1.1694 -0.8935  0.8903
 9124TIP3   OH251566   0.718   1.553  12.179  0.4797 -0.0667 -0.2943
 9124TIP3    H151567   0.722   1.541  12.274  1.7880 -2.2709 -0.5687
 9124TIP3    H251568   0.706   1.647  12.167  5.3704  1.1579  2.0149
 9125TIP3   OH251569   2.028   3.381  11.790  0.1033 -0.5634 -1.1738
 9125TIP3    H151570   1.964   3.392  11.720  0.5057 -0.3960 -1.5234
 9125TIP3    H251571   1.979   3.394  11.871 -0.1641  0.2896 -1.4574
 9126TIP3   OH251572   0.952   0.798  11.496  0.4087  0.1791 -0.2636
 9126TIP3    H151573   1.020   0.746  11.539  0.0885  0.4199  0.5377
 9126TIP3    H251574   0.997   0.837  11.421  0.3464 -2.2750 -1.6848
 9127TIP3   OH251575   5.519   3.972  10.178  0.1618 -0.4793  0.7670
 9127TIP3    H151576   5.453   3.952  10.245 -0.0876  1.9541  1.3362
 9127TIP3    H251577   5.477   4.037  10.121  1.4380 -0.2389  0.0598
 9128TIP3   OH251578   4.621   5.636   9.818 -0.0326 -0.3323  0.0497
 9128TIP3    H151579   4.585   5.706   9.872 -0.6222  1.6934 -2.7083
 9128TIP3    H251580   4.545   5.602   9.769  0.5848 -1.5146 -0.1310
 9129TIP3   OH251581   0.759   4.509  10.381  0.1586  0.5994  0.5621
 9129TIP3    H151582   0.845   4.549  10.393  0.3683  0.1614  0.5427
 9129TIP3    H251583   0.709   4.537  10.457  0.3836  0.6905  0.6786
 9130TIP3   OH251584   2.283   2.245  10.950 -0.0943 -0.2587  1.2273
 9130TIP3    H151585   2.338   2.242  11.028  1.5371 -1.2805  0.1182
 9130TIP3    H251586   2.344   2.268  10.879 -0.7879 -2.6828 -0.2703
 9131TIP3   OH251587   2.241   2.482  12.237  0.5513  0.3698 -0.1270
 9131TIP3    H151588   2.287   2.465  12.319 -0.0029  0.9599  0.3169
 9131TIP3    H251589   2.162   2.428  12.242  1.0583 -0.4433 -0.7711
 9132TIP3   OH251590   2.697   1.457  11.970 -0.2409 -0.1894 -0.1971
 9132TIP3    H151591   2.663   1.547  11.963  0.0256 -0.1259 -0.7985
 9132TIP3    H251592   2.710   1.443  12.063  0.5932  0.7355 -0.1530
 9133TIP3   OH251593   3.487   3.908  10.562 -0.2136  0.4624  0.5034
 9133TIP3    H151594   3.430   3.951  10.498 -2.3754  0.3363  2.2385
 9133TIP3    H251595   3.430   3.889  10.636  2.0168 -0.1313  2.1647
 9134TIP3   OH251596   6.574   1.674  11.945  0.2360  0.0398  0.1235
 9134TIP3    H151597   6.608   1.606  11.887  0.3145  1.1019 -1.1248
 9134TIP3    H251598   6.628   1.668  12.023  2.7838  1.0342 -1.4109
 9135TIP3   OH251599   0.188   3.241  11.473  0.1116 -0.6160 -0.2924
 9135TIP3    H151600   0.142   3.324  11.486  0.4837 -0.2122 -1.3979
 9135TIP3    H251601   0.146   3.180  11.533  0.5303  0.6201  1.3399
 9136TIP3   OH251602   1.757   4.042  11.818 -0.9263  0.5795 -0.0309
 9136TIP3    H151603   1.806   4.035  11.736 -0.5648 -2.1100  0.3012
 9136TIP3    H251604   1.825   4.041  11.886 -1.3022  0.4529  0.3477
 9137TIP3   OH251605   0.790   5.123  12.221 -0.0828 -0.1397  0.2428
 9137TIP3    H151606   0.834   5.177  12.286 -1.6699  0.6339  0.7352
 9137TIP3    H251607   0.817   5.158  12.137 -0.1918  0.6882  0.5440
 9138TIP3   OH251608   3.787   0.537  12.334 -0.0564  0.2268  0.3804
 9138TIP3    H151609   3.792   0.602  12.404  1.8639 -0.5026  0.9833
 9138TIP3    H251610   3.739   0.463  12.373 -0.0896  0.3152  0.5082
 9139TIP3   OH251611   5.236   1.175  11.526  0.0460  0.4607 -0.4609
 9139TIP3    H151612   5.141   1.173  11.536 -0.0155  1.5150 -0.7211
 9139TIP3    H251613   5.251   1.221  11.443  0.8102  2.1305  0.5472
 9140TIP3   OH251614   5.724   1.065  10.668 -0.3343 -0.4424  0.1545
 9140TIP3    H151615   5.638   1.077  10.626 -0.3598 -0.8739  0.0790
 9140TIP3    H251616   5.722   1.122  10.744 -0.5852 -0.2399 -0.0036
 9141TIP3   OH251617   3.072   4.568   9.783  0.4565 -0.0609  0.5432
 9141TIP3    H151618   3.102   4.644   9.833  0.8298 -0.4029  0.8432
 9141TIP3    H251619   3.040   4.507   9.849 -0.7965  0.2457  0.2356
 9142TIP3   OH251620   0.697   6.362  11.961  0.3037  0.0802 -0.1394
 9142TIP3    H151621   0.609   6.375  11.996  0.2278  0.4501 -0.4666
 9142TIP3    H251622   0.683   6.322  11.875  0.4992 -1.1547  0.3824
 9143TIP3   OH251623   6.365   1.356   9.503  0.7834 -0.5714 -0.4545
 9143TIP3    H151624   6.433   1.293   9.480  0.3786 -1.6749  1.1746
 9143TIP3    H251625   6.295   1.339   9.440  0.6186 -1.8863  0.0484
 9144TIP3   OH251626   4.281   3.680  10.502 -0.0273  0.4076  0.0860
 9144TIP3    H151627   4.258   3.641  10.418 -2.5342 -0.7381  1.1989
 9144TIP3    H251628   4.339   3.616  10.543 -1.1496 -0.4486  0.3802
 9145TIP3   OH251629   5.021   4.940  12.192 -0.2141 -0.0482  0.3083
 9145TIP3    H151630   5.035   5.032  12.213  3.5867 -0.5477  0.5994
 9145TIP3    H251631   5.072   4.892  12.257 -0.2780 -2.2708 -1.1728
 9146TIP3   OH251632   0.207   3.049  10.020  0.2550 -0.3501  0.6478
 9146TIP3    H151633   0.246   3.113   9.960  0.1808 -0.9074 -0.0063
 9146TIP3    H251634   0.166   2.984   9.963 -1.3354  0.0190  1.3179
 9147TIP3   OH251635   2.571   1.786   9.565 -0.8342 -0.1094 -0.0387
 9147TIP3    H151636   2.661   1.757   9.556 -0.6758  0.6818 -1.2907
 9147TIP3    H251637   2.564   1.861   9.506 -1.8769  0.8766  1.2694
 9148TIP3   OH251638   6.026   4.031  10.331 -0.3469 -0.0947  0.2318
 9148TIP3    H151639   5.947   3.981  10.310  0.3728 -0.5613 -1.5871
 9148TIP3    H251640   6.079   3.973  10.385 -1.7299  0.6814  2.5635
 9149TIP3   OH251641   1.019   5.069  11.907  0.2168 -0.2468 -0.0222
 9149TIP3    H151642   1.089   5.047  11.968 -0.1917  0.6237  0.7775
 9149TIP3    H251643   1.057   5.053  11.821  2.2708  2.4147  0.2562
 9150TIP3   OH251644   2.496   4.152  12.130 -0.3073  0.0102  0.6077
 9150TIP3    H151645   2.529   4.235  12.165  0.5021 -0.3284  0.6634
 9150TIP3    H251646   2.537   4.085  12.184  0.1776 -0.4822 -0.3539
 9151TIP3   OH251647   3.466   5.979   9.588 -0.2823 -0.3027 -0.4706
 9151TIP3    H151648   3.448   5.885   9.596 -2.9906 -0.0032 -1.8480
 9151TIP3    H251649   3.535   5.985   9.522 -0.6227 -1.2767 -0.9271
 9152TIP3   OH251650   4.117   5.612  11.654 -0.1024  0.4159  0.1130
 9152TIP3    H151651   4.212   5.615  11.659 -0.0242 -0.8061 -0.3600
 9152TIP3    H251652   4.094   5.677  11.588  0.2674  1.8323  1.3091
 9153TIP3   OH251653   4.527   6.183  10.364 -0.2496 -0.9197  0.0574
 9153TIP3    H151654   4.594   6.160  10.428 -0.4077 -1.3094  0.0846
 9153TIP3    H251655   4.477   6.253  10.406  0.4843 -0.2346 -0.1940
 9154TIP3   OH251656   2.991   2.843  11.956  0.0953 -0.2660 -0.4647
 9154TIP3    H151657   3.000   2.936  11.973  0.5191 -0.5137  0.7598
 9154TIP3    H251658   2.980   2.804  12.043  0.9148 -1.4628 -0.8783
 9155TIP3   OH251659   2.053   3.149  10.918 -0.7468  0.0480 -0.1927
 9155TIP3    H151660   2.051   3.245  10.926  0.4344  0.2918 -2.0764
 9155TIP3    H251661   2.003   3.130  10.839 -1.3020 -0.9513  0.3789
 9156TIP3   OH251662   3.316   0.184   9.774 -0.0496  0.0512  0.1737
 9156TIP3    H151663   3.375   0.220   9.840 -0.7803  1.8266 -0.1094
 9156TIP3    H251664   3.373   0.130   9.719  1.6760  2.7904 -0.9163
 9157TIP3   OH251665   6.144   5.359  11.972  0.0040 -0.1985 -0.4615
 9157TIP3    H151666   6.155   5.264  11.971  0.1632 -0.1767 -0.7810
 9157TIP3    H251667   6.051   5.373  11.953  0.2184 -0.2515 -1.5761
 9158TIP3   OH251668   6.701   4.545  11.647 -0.0772 -0.0237 -0.3933
 9158TIP3    H151669   6.782   4.596  11.655  0.1946 -0.5289  0.1839
 9158TIP3    H251670   6.656   4.583  11.572  0.2918  0.8194 -0.2009
 9159TIP3   OH251671   1.023   4.446  10.549  0.3649 -0.5222  0.1746
 9159TIP3    H151672   0.988   4.531  10.520 -2.4712 -1.2559  1.1066
 9159TIP3    H251673   1.057   4.462  10.636 -1.9637 -0.6252  1.1836
 9160TIP3   OH251674   5.499   5.755  10.723 -0.2951 -0.1761  0.2786
 9160TIP3    H151675   5.565   5.769  10.656 -1.2652  1.7951 -0.3557
 9160TIP3    H251676   5.425   5.716  10.677 -0.8149  0.8209  0.2188
 9161TIP3   OH251677   2.333   0.383   9.814 -0.1605 -0.0566  0.5249
 9161TIP3    H151678   2.342   0.478   9.803 -1.0212 -0.0045  0.2202
 9161TIP3    H251679   2.239   0.368   9.825  0.1181 -0.7094  2.2802
 9162TIP3   OH251680   0.979   4.270  11.703  0.3709  0.0149 -0.0351
 9162TIP3    H151681   0.907   4.324  11.670  0.7190  1.6091  1.5892
 9162TIP3    H251682   0.965   4.268  11.798  1.6500 -0.8972  0.1583
 9163TIP3   OH251683   2.196   1.340  11.753  0.6774  0.6743 -0.4462
 9163TIP3    H151684   2.145   1.407  11.708  0.2824  0.0626 -0.9277
 9163TIP3    H251685   2.286   1.370  11.747  0.5284  1.0467 -0.8696
 9164TIP3   OH251686   4.067   6.237  11.913  0.3289 -0.1919  0.2990
 9164TIP3    H151687   3.973   6.235  11.892  0.5154  0.3682 -0.6702
 9164TIP3    H251688   4.070   6.243  12.008 -0.6348  0.2866  0.3162
 9165TIP3   OH251689   0.133   0.932  10.740  0.2287 -0.0574  0.9826
 9165TIP3    H151690   0.106   0.854  10.692  0.4285  0.2882  0.3021
 9165TIP3    H251691   0.222   0.912  10.770 -0.1337 -0.5253  1.7702
 9166TIP3   OH251692   4.638   6.090  11.644 -0.1892  0.5330 -0.8020
 9166TIP3    H151693   4.687   6.148  11.702 -1.4884  0.4327  0.4338
 9166TIP3    H251694   4.548   6.124  11.645 -0.9100 -1.2655 -0.3328
 9167TIP3   OH251695   1.427   0.582   9.684 -0.1286 -0.4602 -0.1341
 9167TIP3    H151696   1.503   0.549   9.732  0.6813 -0.5426 -1.4422
 9167TIP3    H251697   1.403   0.662   9.731 -0.3626 -1.3750  1.3576
 9168TIP3   OH251698   5.882   6.563  12.066  0.0087 -0.2919  0.1540
 9168TIP3    H151699   5.926   6.633  12.114 -0.0021  0.0027 -0.2594
 9168TIP3    H251700   5.863   6.497  12.132  1.3763 -0.5827  0.2847
 9169TIP3   OH251701   6.468   4.216  10.493 -0.1313 -0.4698 -0.0152
 9169TIP3    H151702   6.491   4.164  10.570  1.0029  1.3115  0.9220
 9169TIP3    H251703   6.515   4.299  10.505  0.2319 -0.2007 -2.7358
 9170TIP3   OH251704   0.199   4.342  10.837  0.0526  0.5983  0.2038
 9170TIP3    H151705   0.250   4.325  10.758 -0.2460 -0.8374  0.2988
 9170TIP3    H251706   0.264   4.372  10.901  0.9842 -1.9023  0.5479
 9171TIP3   OH251707   0.715   2.319   9.938 -0.5167 -0.4131 -0.2680
 9171TIP3    H151708   0.729   2.265   9.860  1.2408  0.6172 -0.7258
 9171TIP3    H251709   0.783   2.292   9.999 -0.9722 -0.1990  0.3516
 9172TIP3   OH251710   0.732   5.015  11.793  0.0993  0.3171  0.3893
 9172TIP3    H151711   0.734   5.085  11.728 -0.7257  2.0132  2.1087
 9172TIP3    H251712   0.823   5.008  11.823 -0.0211  1.6822  1.1833
 9173TIP3   OH251713   0.206   4.768  10.454 -0.2986 -0.3922  0.1346
 9173TIP3    H151714   0.268   4.698  10.472  1.5737  0.4396 -2.4372
 9173TIP3    H251715   0.142   4.730  10.394 -1.0448 -0.6454  1.0605
 9174TIP3   OH251716   5.878   5.977  11.045 -0.2709  0.1134 -0.1775
 9174TIP3    H151717   5.810   5.917  11.074 -1.1534  1.0486 -0.2584
 9174TIP3    H251718   5.887   5.958  10.951  0.8104 -1.1730  0.1462
 9175TIP3   OH251719   5.340   3.622  11.729  0.8731  0.4173 -0.1835
 9175TIP3    H151720   5.395   3.573  11.667 -0.2842 -0.5838 -0.4476
 9175TIP3    H251721   5.336   3.567  11.807 -0.1920  0.2218 -0.3689
 9176TIP3   OH251722   0.653   4.389   9.567 -0.0848  0.2558  0.0249
 9176TIP3    H151723   0.665   4.484   9.560  0.3382  0.3130  1.2414
 9176TIP3    H251724   0.707   4.352   9.497 -1.7029  0.9596 -1.6742
 9177TIP3   OH251725   1.188   2.494  11.829  0.6341 -0.0115  0.2215
 9177TIP3    H151726   1.137   2.420  11.864  0.6860 -0.1414  0.0258
 9177TIP3    H251727   1.153   2.507  11.741  1.8061 -0.9385 -0.4150
 9178TIP3   OH251728   2.324   4.997   9.703 -0.5162  0.1112  0.3514
 9178TIP3    H151729   2.339   5.080   9.749 -0.0923  1.9492 -2.8275
 9178TIP3    H251730   2.233   4.975   9.723 -1.4442  2.6968 -0.6363
 9179TIP3   OH251731   3.174   3.240  10.938 -0.2632 -0.4874 -0.1816
 9179TIP3    H151732   3.241   3.218  11.003  1.0833  0.8108 -1.0769
 9179TIP3    H251733   3.092   3.214  10.980  0.6899 -1.2115  1.3601
 9180TIP3   OH251734   4.179   3.968   9.185  0.2754  0.0617 -0.1065
 9180TIP3    H151735   4.261   3.920   9.199 -0.0024 -0.2504  0.5235
 9180TIP3    H251736   4.134   3.962   9.269  0.5703  2.0888  0.2497
 9181TIP3   OH251737   5.870   4.153  10.969  0.0463  0.1065 -0.2159
 9181TIP3    H151738   5.912   4.176  11.052 -1.2478 -1.1480  0.8430
 9181TIP3    H251739   5.854   4.237  10.926  0.1187  0.8497  1.1417
 9182TIP3   OH251740   2.092   5.632  11.043 -0.7560 -0.0344 -0.0701
 9182TIP3    H151741   2.037   5.671  11.112 -0.9035 -0.0310 -0.1879
 9182TIP3    H251742   2.144   5.705  11.011 -0.7853 -0.0064 -0.0547
 9183TIP3   OH251743   1.464   2.736   9.401 -0.3634  0.5174  0.0417
 9183TIP3    H151744   1.480   2.701   9.314 -0.2427  0.0224  0.2587
 9183TIP3    H251745   1.370   2.726   9.416 -0.4233  0.8234 -0.1240
 9184TIP3   OH251746   0.327   1.150  12.588  0.0276 -0.0474 -0.0572
 9184TIP3    H151747   0.232   1.147  12.574  0.1558 -2.4096 -0.9812
 9184TIP3    H251748   0.341   1.099  12.667  0.4881  1.0395  0.5811
 9185TIP3   OH251749   2.875   1.726   9.577  0.0946 -0.4445 -0.1226
 9185TIP3    H151750   2.939   1.655   9.579 -0.0595 -0.5828  1.1588
 9185TIP3    H251751   2.901   1.780   9.503  1.3459 -0.8306  0.0143
 9186TIP3   OH251752   1.685   3.426   9.427  0.1157  0.7243  0.1723
 9186TIP3    H151753   1.617   3.492   9.412  1.4979  2.5144  1.3469
 9186TIP3    H251754   1.648   3.366   9.491 -1.0012  0.5691 -0.5892
 9187TIP3   OH251755   0.666   1.860  11.740  0.1603 -0.0072 -0.0340
 9187TIP3    H151756   0.579   1.898  11.746 -0.4680 -0.3353 -4.1610
 9187TIP3    H251757   0.653   1.766  11.754 -0.5120 -0.2458 -1.8673
 9188TIP3   OH251758   5.971   2.850   9.380  0.3730 -0.2314  0.1372
 9188TIP3    H151759   6.065   2.861   9.365  0.1825 -0.1243 -1.0134
 9188TIP3    H251760   5.948   2.771   9.332  0.0243 -0.7261  1.1039
 9189TIP3   OH251761   1.508   6.112  10.099  0.1980  0.2529  0.0287
 9189TIP3    H151762   1.457   6.178  10.146 -0.1905 -0.6496  0.9199
 9189TIP3    H251763   1.592   6.154  10.082 -0.6051  1.5503 -0.9267
 9190TIP3   OH251764   3.824   6.722  11.460 -0.0352  0.2509  0.0591
 9190TIP3    H151765   3.743   6.769  11.436 -0.0548 -1.1051 -3.0197
 9190TIP3    H251766   3.816   6.637  11.417  1.7924 -1.0654  2.1281
 9191TIP3   OH251767   0.705   0.992  10.654 -0.2697  0.3979  0.4236
 9191TIP3    H151768   0.638   1.053  10.682  0.1228  1.3611 -0.6741
 9191TIP3    H251769   0.743   1.031  10.575 -0.1792 -1.3715 -0.4740
 9192TIP3   OH251770   2.947   4.888  11.798  0.4981 -0.3920 -0.5766
 9192TIP3    H151771   2.965   4.833  11.874 -2.0804 -0.0149  0.3973
 9192TIP3    H251772   2.940   4.826  11.725  1.5861 -0.8963 -0.2770
 9193TIP3   OH251773   1.004   2.692   9.648 -0.3822  0.2950 -0.0115
 9193TIP3    H151774   1.039   2.781   9.649  0.8398 -0.1758  1.3118
 9193TIP3    H251775   0.959   2.682   9.731 -0.4253 -0.3565 -0.1049
 9194TIP3   OH251776   2.598   1.014   9.364 -0.1412 -0.0076 -0.3718
 9194TIP3    H151777   2.638   1.071   9.430 -2.6477  0.3031  1.0070
 9194TIP3    H251778   2.521   1.063   9.333 -0.4523 -1.2395 -1.6663
 9195TIP3   OH251779   5.620   6.630  10.104 -0.3219  0.0319 -0.4270
 9195TIP3    H151780   5.713   6.622  10.125  0.1489 -0.3583 -2.4814
 9195TIP3    H251781   5.576   6.569  10.165  0.5954  1.0599  1.3362
 9196TIP3   OH251782   6.106   2.733  12.007 -0.5678  0.3533 -0.5476
 9196TIP3    H151783   6.201   2.725  12.017 -0.4804  0.2888 -1.3349
 9196TIP3    H251784   6.088   2.825  12.029 -0.3774  0.2768 -0.0533
 9197TIP3   OH251785   2.336   0.168  12.377  0.4575 -0.7978  0.5632
 9197TIP3    H151786   2.347   0.259  12.348 -3.5242 -0.4639 -0.4798
 9197TIP3    H251787   2.379   0.116  12.309  1.1166  0.2338  0.1610
 9198TIP3   OH251788   3.697   3.443  10.390  0.4585  0.4308 -0.0172
 9198TIP3    H151789   3.707   3.381  10.317  0.8104  0.7548 -0.2456
 9198TIP3    H251790   3.774   3.427  10.445 -0.9651 -1.4887  1.5714
 9199TIP3   OH251791   5.382   2.081   9.346  0.2213  0.1867  0.7281
 9199TIP3    H151792   5.323   2.015   9.309 -1.3175  2.1126 -0.4362
 9199TIP3    H251793   5.339   2.108   9.428  0.9717 -0.3873  1.3261
 9200TIP3   OH251794   3.691   5.228   9.693 -0.0514  1.2958 -0.0401
 9200TIP3    H151795   3.633   5.163   9.732  0.1828  0.5961 -0.8151
 9200TIP3    H251796   3.730   5.274   9.767  1.4255 -0.8968  0.6477
 9201TIP3   OH251797   5.097   2.572  10.594  0.0139  0.7887  0.1558
 9201TIP3    H151798   5.160   2.555  10.524 -0.2353  1.1270 -0.1512
 9201TIP3    H251799   5.094   2.490  10.643  0.3639  0.6243 -0.0880
 9202TIP3   OH251800   4.096   3.488  10.165 -0.2160  0.0789 -0.4986
 9202TIP3    H151801   4.132   3.405  10.193  2.9638  1.4056 -0.2710
 9202TIP3    H251802   4.105   3.487  10.069 -1.1725 -0.2128 -0.5999
 9203TIP3   OH251803   1.059   5.469  10.510  0.7642  0.0273  0.0755
 9203TIP3    H151804   1.152   5.468  10.487  1.0717  2.4872  0.8855
 9203TIP3    H251805   1.056   5.437  10.600  1.1916  2.1505  0.8969
 9204TIP3   OH251806   3.999   6.301  11.597  0.7511  0.2868  0.0790
 9204TIP3    H151807   3.914   6.324  11.560  0.0499 -1.6562  0.3930
 9204TIP3    H251808   3.986   6.303  11.692  0.7494 -1.0097  0.1208
 9205TIP3   OH251809   3.692   1.553  11.924  0.4343  0.5520  0.5011
 9205TIP3    H151810   3.647   1.468  11.924  0.2794  0.6247 -0.2858
 9205TIP3    H251811   3.623   1.617  11.913  0.4387  0.8722  2.1044
 9206TIP3   OH251812   5.745   2.154  10.134 -0.0206  0.4103  0.1444
 9206TIP3    H151813   5.803   2.188  10.202  0.3637 -1.7598  0.9874
 9206TIP3    H251814   5.677   2.221  10.125  2.0550  2.6010 -0.2335
 9207TIP3   OH251815   2.206   3.674  10.390  0.4575  0.2498  0.0509
 9207TIP3    H151816   2.231   3.729  10.315 -0.9580 -1.0548 -1.4379
 9207TIP3    H251817   2.218   3.584  10.359 -0.2560 -0.3251  1.3670
 9208TIP3   OH251818   0.979   4.454   9.024 -0.1059  0.4331 -0.3313
 9208TIP3    H151819   0.962   4.458   8.930 -0.0369  2.7092 -0.2943
 9208TIP3    H251820   0.984   4.545   9.052 -0.1143 -0.1847  1.8981
 9209TIP3   OH251821   1.041   6.579  12.290  0.0940  0.6955 -0.2613
 9209TIP3    H151822   1.108   6.570  12.222 -0.4454  1.4415 -0.9294
 9209TIP3    H251823   0.965   6.531  12.255 -0.9020  2.8153 -1.2343
 9210TIP3   OH251824   4.810   1.588  11.141 -0.8316  0.6521  0.6939
 9210TIP3    H151825   4.777   1.566  11.228 -3.0319 -1.4894 -0.5632
 9210TIP3    H251826   4.735   1.579  11.084  0.9399  0.2094 -1.7279
 9211TIP3   OH251827   2.027   6.471  10.992 -0.5263  0.3163  0.2678
 9211TIP3    H151828   2.048   6.529  11.065 -1.8527  0.7786  0.3099
 9211TIP3    H251829   1.973   6.524  10.934 -0.3013 -0.3484 -0.5732
 9212TIP3   OH251830   0.908   2.435  11.001 -0.4626  0.3648 -0.0506
 9212TIP3    H151831   0.992   2.396  11.026 -0.9591 -0.2915  0.6474
 9212TIP3    H251832   0.928   2.490  10.926  0.8024  1.1289  0.8030
 9213TIP3   OH251833   5.509   5.088   9.505 -0.6252  0.1269 -0.4154
 9213TIP3    H151834   5.581   5.122   9.559 -0.7691 -0.5290  0.1951
 9213TIP3    H251835   5.442   5.156   9.509 -0.2477  0.5167 -0.5742
 9214TIP3   OH251836   6.714   5.421  12.803 -0.5905  0.6836 -0.1703
 9214TIP3    H151837   6.802   5.454  12.782 -0.0021 -0.1178  0.9376
 9214TIP3    H251838   6.712   5.419  12.899 -1.7900  0.5858 -0.1862
 9215TIP3   OH251839   2.219   1.084  10.676 -0.0984 -0.9879  0.2991
 9215TIP3    H151840   2.246   1.089  10.584  1.6712  0.0192  0.8227
 9215TIP3    H251841   2.263   1.158  10.718  1.4178 -2.9788  2.5166
 9216TIP3   OH251842   4.912   5.736  10.368 -0.0096 -0.4975 -0.2759
 9216TIP3    H151843   4.916   5.676  10.294 -1.4176  0.0478 -0.8231
 9216TIP3    H251844   4.968   5.810  10.342 -0.6564 -0.2146 -0.9042
 9217TIP3   OH251845   0.751   3.085  10.272 -0.4515  0.0702 -0.0879
 9217TIP3    H151846   0.741   3.060  10.181 -0.4213 -1.1548  0.2294
 9217TIP3    H251847   0.793   3.171  10.269  0.2730 -0.3084 -1.2028
 9218TIP3   OH251848   2.901   1.635  10.567 -0.6038  0.3644 -0.0823
 9218TIP3    H151849   2.962   1.641  10.493 -0.2172  0.1297  0.2111
 9218TIP3    H251850   2.929   1.703  10.627 -1.0541  0.6990 -0.2457
 9219TIP3   OH251851   6.111   1.951  12.235 -0.0672  0.6696 -0.0327
 9219TIP3    H151852   6.034   2.007  12.237  0.2704  1.1528 -0.2770
 9219TIP3    H251853   6.077   1.862  12.222 -0.5252  1.0103 -1.2898
 9220TIP3   OH251854   5.682   5.485  10.554  0.0769  0.3267 -0.3237
 9220TIP3    H151855   5.672   5.550  10.485 -2.5322  0.2637 -0.1065
 9220TIP3    H251856   5.760   5.436  10.531 -0.9103  0.0531 -3.4678
 9221TIP3   OH251857   3.967   1.530  11.564 -0.4049  0.0711  0.2000
 9221TIP3    H151858   4.020   1.523  11.485  0.2713  0.9681  0.5485
 9221TIP3    H251859   3.922   1.614  11.556 -1.4868 -0.5071  0.0926
 9222TIP3   OH251860   0.090   1.090  10.988 -0.1886  0.4736 -0.1020
 9222TIP3    H151861   0.129   1.056  11.069 -0.6246  0.5921  0.1588
 9222TIP3    H251862   0.108   1.023  10.922  2.9297  1.7059 -0.6862
 9223TIP3   OH251863   0.946   1.520  11.457  0.2817  0.1116  0.4868
 9223TIP3    H151864   0.890   1.514  11.535 -0.0903  0.0957  0.2213
 9223TIP3    H251865   0.995   1.601  11.469 -0.4667  0.6050  0.2916
 9224TIP3   OH251866   5.914   5.992  10.191  0.1022  1.1161 -0.1972
 9224TIP3    H151867   6.009   5.990  10.179  0.0218 -2.0726 -0.9522
 9224TIP3    H251868   5.878   5.987  10.103 -0.6676 -1.3114  0.1761
 9225TIP3   OH251869   3.366   3.725  11.196  0.0322 -0.0924 -0.2458
 9225TIP3    H151870   3.344   3.651  11.139  0.6058 -0.7304  0.3450
 9225TIP3    H251871   3.285   3.776  11.200 -1.5988 -2.5826  2.1878
 9226TIP3   OH251872   0.396   0.675  11.862  0.0334 -0.0401 -0.5408
 9226TIP3    H151873   0.326   0.647  11.921 -0.2140  0.5250 -0.5588
 9226TIP3    H251874   0.357   0.669  11.774 -0.8899  2.6949 -0.4085
 9227TIP3   OH251875   4.708   4.780   9.120 -0.0659  0.0531  0.4346
 9227TIP3    H151876   4.646   4.839   9.163 -0.7051  2.1306 -2.9850
 9227TIP3    H251877   4.653   4.715   9.075  0.1636  1.1915 -1.6193
 9228TIP3   OH251878   2.189   4.447  10.007  0.3561  0.4175  0.2592
 9228TIP3    H151879   2.180   4.354  10.026 -0.9508  0.9640  2.6974
 9228TIP3    H251880   2.111   4.469   9.956  0.9004  0.1365 -0.7347
 9229TIP3   OH251881   1.107   3.610  11.622  0.2610 -0.5321  0.0016
 9229TIP3    H151882   1.093   3.528  11.576 -1.4936 -1.1033  1.4597
 9229TIP3    H251883   1.126   3.585  11.713 -0.0097  0.6526  0.4095
 9230TIP3   OH251884   6.657   5.764  10.503  0.8489  0.4784 -0.3052
 9230TIP3    H151885   6.585   5.708  10.532  0.2625  1.6284  0.5505
 9230TIP3    H251886   6.724   5.704  10.471 -0.7196 -0.6263 -1.7044
 9231TIP3   OH251887   4.742   4.281  11.757 -0.1869  0.2274 -0.3010
 9231TIP3    H151888   4.723   4.284  11.850  1.5713  2.0966  0.0839
 9231TIP3    H251889   4.834   4.252  11.752 -0.3308 -0.1058 -1.4638
 9232TIP3   OH251890   0.473   4.595   9.705 -0.7417  0.2927 -0.3388
 9232TIP3    H151891   0.548   4.612   9.648 -0.5903 -0.9393 -0.5534
 9232TIP3    H251892   0.510   4.593   9.793 -0.9595  2.1063 -0.1810
 9233TIP3   OH251893   6.446   1.083  10.890  0.1271 -0.1441  0.5539
 9233TIP3    H151894   6.516   1.021  10.871 -0.4240 -0.6127  0.0035
 9233TIP3    H251895   6.443   1.140  10.813 -0.6303 -0.6382  0.2081
 9234TIP3   OH251896   2.855   0.435   9.965 -0.2374 -0.4176 -0.3994
 9234TIP3    H151897   2.763   0.425   9.939 -0.7996 -0.2926  1.4413
 9234TIP3    H251898   2.869   0.366  10.030  0.9163 -0.2955 -0.4988
 9235TIP3   OH251899   5.995   2.241  11.163 -0.2721 -0.0263  0.4994
 9235TIP3    H151900   5.959   2.174  11.221  0.2724 -0.3473  0.4738
 9235TIP3    H251901   5.935   2.316  11.172 -1.0373 -0.6036  0.3350
 9236TIP3   OH251902   3.008   2.609  12.548  0.3787 -0.2392  0.1912
 9236TIP3    H151903   3.068   2.543  12.584 -1.2134 -1.0148  1.5884
 9236TIP3    H251904   2.969   2.650  12.626 -1.5198 -0.3652 -0.6436
 9237TIP3   OH251905   2.611   1.744   9.930  0.3358 -0.4947 -0.1757
 9237TIP3    H151906   2.633   1.795   9.853  0.2654 -0.5741 -0.2494
 9237TIP3    H251907   2.690   1.744   9.983  0.3574 -0.3695 -0.2090
 9238TIP3   OH251908   3.135   4.314  11.133 -0.0707 -0.7492  0.4575
 9238TIP3    H151909   3.105   4.232  11.094 -0.1972 -0.1281 -0.7972
 9238TIP3    H251910   3.217   4.291  11.177 -0.7414 -1.7975  1.2277
 9239TIP3   OH251911   4.342   1.522  11.041  0.2282  0.5096 -0.4443
 9239TIP3    H151912   4.353   1.478  11.125 -0.8729 -1.2879 -1.1761
 9239TIP3    H251913   4.310   1.609  11.063  0.3204  0.1897  1.0178
 9240TIP3   OH251914   6.152   6.217  10.359  0.3961  0.1135  0.4857
 9240TIP3    H151915   6.107   6.302  10.364 -0.3588 -0.2556  0.0793
 9240TIP3    H251916   6.153   6.196  10.266  0.7366 -0.2498  0.5691
 9241TIP3   OH251917   1.668   4.026  10.140 -0.0341 -0.1430  0.2079
 9241TIP3    H151918   1.610   4.061  10.208  2.0682  1.1189  1.4400
 9241TIP3    H251919   1.697   3.942  10.175  1.6330  0.8381  1.3012
 9242TIP3   OH251920   4.494   5.617  12.242  0.0134 -0.2284  0.1800
 9242TIP3    H151921   4.541   5.664  12.311 -0.6525  1.7891 -0.6489
 9242TIP3    H251922   4.402   5.637  12.258 -0.2636 -0.9775 -0.4089
 9243TIP3   OH251923   0.028   2.460  11.113  0.4634  0.2710 -0.3437
 9243TIP3    H151924  -0.033   2.444  11.041 -0.4905  0.8129  0.3163
 9243TIP3    H251925   0.012   2.389  11.175  0.9906  0.0368 -0.4690
 9244TIP3   OH251926   4.384   6.213  11.633 -0.7735  0.0526  0.4296
 9244TIP3    H151927   4.339   6.257  11.705 -2.2993 -1.3698  0.4082
 9244TIP3    H251928   4.327   6.140  11.611 -0.5217  0.6261 -2.4607
 9245TIP3   OH251929   0.983   4.358   9.681 -0.0211  0.0723 -0.1922
 9245TIP3    H151930   0.986   4.440   9.632 -1.4462  0.9869  1.1671
 9245TIP3    H251931   1.032   4.376   9.761 -2.2402  0.4243  1.1788
 9246TIP3   OH251932   4.136   0.775  11.702  0.0499 -0.0101 -0.2824
 9246TIP3    H151933   4.119   0.773  11.796 -1.2673  0.9303 -0.4773
 9246TIP3    H251934   4.090   0.698  11.668  0.9024 -0.6108 -0.1337
 9247TIP3   OH251935   0.876   0.793  10.512  0.1647 -0.7402  0.1979
 9247TIP3    H151936   0.848   0.828  10.597 -1.6357  1.2762 -1.1128
 9247TIP3    H251937   0.971   0.803  10.512  0.0279  1.1562  1.2431
 9248TIP3   OH251938   1.253   2.799  12.985 -0.0688 -0.5860  0.5502
 9248TIP3    H151939   1.158   2.800  12.974 -0.0557  1.3069  0.2496
 9248TIP3    H251940   1.287   2.773  12.899 -0.2895 -0.1684  0.3364
 9249TIP3   OH251941   6.019   3.328  10.602  0.0998 -0.1450 -0.3672
 9249TIP3    H151942   6.053   3.303  10.688  1.1948  1.6154 -0.2349
 9249TIP3    H251943   6.095   3.323  10.544 -0.0779  0.9504 -0.7168
 9250TIP3   OH251944   4.589   5.814  11.664  0.0024 -0.1204  0.6018
 9250TIP3    H151945   4.589   5.782  11.574  0.6344  0.3826  0.4092
 9250TIP3    H251946   4.621   5.904  11.657 -0.3218  0.0529  1.2875
 9251TIP3   OH251947   5.208   4.968  10.980 -0.2859  0.2249 -0.2117
 9251TIP3    H151948   5.150   4.892  10.982  0.0491 -0.0212  0.5856
 9251TIP3    H251949   5.257   4.959  10.898 -2.2521  1.1211 -1.5611
 9252TIP3   OH251950   6.304   2.824  11.279 -0.5757  0.1042 -0.2351
 9252TIP3    H151951   6.359   2.838  11.356 -0.0600  1.7978 -0.8735
 9252TIP3    H251952   6.351   2.760  11.226  1.5455  2.4308 -1.3874
 9253TIP3   OH251953   1.258   3.982   9.291 -0.3920 -0.0710  0.0563
 9253TIP3    H151954   1.343   4.012   9.325  0.4339 -1.1746 -0.9746
 9253TIP3    H251955   1.203   4.061   9.294  0.3119  0.4234  1.7520
 9254TIP3   OH251956   4.060   3.108  12.530 -0.1668 -0.1131  0.2261
 9254TIP3    H151957   4.058   3.204  12.528  2.0770 -0.0298 -1.1911
 9254TIP3    H251958   4.148   3.086  12.557 -0.8003 -1.8233  1.0336
 9255TIP3   OH251959   0.639   5.917  12.430 -0.0196 -0.2358 -0.6121
 9255TIP3    H151960   0.635   5.913  12.525  0.3162  0.5173 -0.5614
 9255TIP3    H251961   0.732   5.907  12.409  0.0980  1.0181 -0.7746
 9256TIP3   OH251962   4.430   2.107   9.962 -0.1681  0.2902  0.2513
 9256TIP3    H151963   4.518   2.069   9.972 -0.6330 -1.2947 -1.0958
 9256TIP3    H251964   4.421   2.120   9.867 -1.2148  0.9119  0.4212
 9257TIP3   OH251965   0.322   1.619  11.108 -0.1281  0.0583  0.3276
 9257TIP3    H151966   0.324   1.527  11.133 -1.4667 -0.2440 -0.5689
 9257TIP3    H251967   0.231   1.635  11.084  0.2396  1.4286 -0.2279
 9258TIP3   OH251968   3.311   0.421  10.588  0.0120  0.6061 -0.1071
 9258TIP3    H151969   3.391   0.408  10.537 -0.4932 -0.5319 -0.6519
 9258TIP3    H251970   3.341   0.453  10.672  0.9046  2.0116 -0.9254
 9259TIP3   OH251971   1.880   5.628  11.452  0.2832  0.0506  0.9751
 9259TIP3    H151972   1.930   5.549  11.469 -0.6822 -1.0965 -1.0576
 9259TIP3    H251973   1.909   5.658  11.365 -0.8312  0.6938  0.7871
 9260TIP3   OH251974   3.695   1.318   9.305 -0.3402 -0.2576  0.2041
 9260TIP3    H151975   3.730   1.313   9.393  1.9773  1.0654 -0.5405
 9260TIP3    H251976   3.686   1.228   9.276 -2.2920 -0.7589  2.1436
 9261TIP3   OH251977   0.534   1.216  10.705 -0.2786 -0.1618 -0.7603
 9261TIP3    H151978   0.593   1.281  10.667  1.0726 -0.4150  0.7613
 9261TIP3    H251979   0.450   1.261  10.712  0.3412  1.0587 -0.7768
 9262TIP3   OH251980   1.705   3.631  10.722  0.5052 -0.6143 -0.2014
 9262TIP3    H151981   1.796   3.629  10.750  0.4771  0.0175 -0.0463
 9262TIP3    H251982   1.657   3.663  10.798  0.2245 -0.4535 -0.4436
 9263TIP3   OH251983   2.062   2.001  12.072  0.6701  0.1424 -0.2903
 9263TIP3    H151984   1.974   2.034  12.093  0.6703 -0.0999  0.0953
 9263TIP3    H251985   2.069   1.919  12.120  1.2303  0.3187 -0.0664
 9264TIP3   OH251986   5.933   6.702   9.193 -0.7714  0.5607 -0.2683
 9264TIP3    H151987   5.923   6.659   9.107 -1.4695  1.1621 -0.4941
 9264TIP3    H251988   5.844   6.713   9.225 -0.4829 -2.2495  1.8824
 9265TIP3   OH251989   3.775   2.129   9.382 -0.0736 -0.1834 -0.0111
 9265TIP3    H151990   3.732   2.202   9.338  1.8534 -0.5824 -2.7817
 9265TIP3    H251991   3.726   2.051   9.353 -0.6656 -0.2305  1.0548
 9266TIP3   OH251992   3.207   3.542  11.069  0.2534  0.0044  0.1086
 9266TIP3    H151993   3.180   3.452  11.091 -3.5290  0.9351  0.0234
 9266TIP3    H251994   3.196   3.547  10.974  1.9659  0.1798 -0.1004
 9267TIP3   OH251995   6.356   1.473  11.957 -0.1462 -0.2608  0.6635
 9267TIP3    H151996   6.396   1.507  12.037 -1.0986  1.8797  0.3006
 9267TIP3    H251997   6.355   1.548  11.897  0.4768 -1.7806 -1.3660
 9268TIP3   OH251998   1.593   4.165   9.186 -0.2583 -0.1222  0.0085
 9268TIP3    H151999   1.537   4.196   9.257 -0.2656  0.1872 -0.1321
 9268TIP3    H252000   1.628   4.244   9.145 -2.1684 -0.1600 -1.8802
 9269TIP3   OH252001   4.047   3.699   9.383  0.4350 -0.7389  0.0811
 9269TIP3    H152002   4.129   3.673   9.341  0.5144  0.3602 -0.4643
 9269TIP3    H252003   4.066   3.784   9.423  0.1592 -1.4205  1.7760
 9270TIP3   OH252004   0.621   1.812   9.462 -0.2023  0.0832  0.4954
 9270TIP3    H152005   0.647   1.759   9.387 -0.0044 -0.6312  1.0663
 9270TIP3    H252006   0.661   1.898   9.445 -0.9992  0.2414 -0.7093
 9271TIP3   OH252007   6.569   0.531  11.657  0.1208 -0.4690 -0.0344
 9271TIP3    H152008   6.534   0.455  11.704 -1.9475 -0.7707 -1.8928
 9271TIP3    H252009   6.608   0.585  11.725 -3.3870 -0.4789  2.2472
 9272TIP3   OH252010   5.061   3.431   9.455 -0.1116  0.4585 -0.1673
 9272TIP3    H152011   5.079   3.504   9.397 -0.8716  0.8232  0.0504
 9272TIP3    H252012   5.035   3.359   9.397 -0.4764  0.7002 -0.3049
 9273TIP3   OH252013   4.063   1.136  10.523 -0.2541 -0.5902 -0.2722
 9273TIP3    H152014   4.127   1.067  10.540 -0.7259 -1.1984 -0.9197
 9273TIP3    H252015   3.989   1.116  10.581  1.2631  1.8322  2.8350
 9274TIP3   OH252016   5.742   0.171  11.843 -0.3267 -0.1781  0.1936
 9274TIP3    H152017   5.830   0.193  11.812 -0.3420  0.8940  0.8545
 9274TIP3    H252018   5.684   0.200  11.773 -0.2067 -0.0135  0.1595
 9275TIP3   OH252019   4.978   0.965   9.672  0.5529  0.0511 -0.1328
 9275TIP3    H152020   5.013   1.031   9.732  1.7822  0.1905 -0.9626
 9275TIP3    H252021   5.053   0.939   9.619 -0.3917 -0.4177 -1.2882
 9276TIP3   OH252022   2.449   5.484  10.127 -0.0535  0.0347 -0.5342
 9276TIP3    H152023   2.496   5.539  10.190  0.8398  0.3116 -1.4299
 9276TIP3    H252024   2.517   5.428  10.089 -0.3014  0.8914 -2.3365
 9277TIP3   OH252025   2.323   5.546   9.881  0.3204  0.2865 -0.4812
 9277TIP3    H152026   2.369   5.535   9.964  0.3440  0.7766 -0.4283
 9277TIP3    H252027   2.282   5.461   9.866  0.5366  0.1083 -0.1048
 9278TIP3   OH252028   2.988   4.200  11.561 -0.1462 -0.2155 -0.0533
 9278TIP3    H152029   3.055   4.206  11.630 -0.3143  0.6822  0.0460
 9278TIP3    H252030   3.020   4.259  11.492  0.3530 -1.5958 -1.0527
 9279TIP3   OH252031   5.119   0.363  12.593 -0.1157 -0.7083  0.1684
 9279TIP3    H152032   5.105   0.416  12.672 -1.5171 -0.3851 -0.2600
 9279TIP3    H252033   5.190   0.408  12.547 -1.1214  0.7047 -0.0710
 9280TIP3   OH252034   4.964   1.033  10.352 -0.2722  0.1953 -0.4497
 9280TIP3    H152035   4.909   1.013  10.277  1.1116  2.9255 -2.3694
 9280TIP3    H252036   4.933   1.119  10.381  3.3531  2.3277 -2.2235
 9281TIP3   OH252037   1.175   0.719  10.222 -0.4940  0.3284 -0.0583
 9281TIP3    H152038   1.095   0.680  10.187  0.2224 -0.3235 -1.0129
 9281TIP3    H252039   1.209   0.773  10.151  1.8988 -2.3606 -1.1786
 9282TIP3   OH252040   3.257   5.830  10.266  0.5606  0.4985 -0.1640
 9282TIP3    H152041   3.280   5.781  10.345  0.8615  2.1811  0.8346
 9282TIP3    H252042   3.333   5.819  10.208  1.4023  1.1927  0.7653
 9283TIP3   OH252043   5.565   2.370  10.190  0.6701 -0.5874 -0.5003
 9283TIP3    H152044   5.525   2.377  10.103 -1.7432 -2.3159  0.3688
 9283TIP3    H252045   5.491   2.364  10.250  2.2067 -2.9712  1.3395
 9284TIP3   OH252046   3.714   1.670  11.102 -0.1996  0.9014  0.0664
 9284TIP3    H152047   3.719   1.703  11.012  0.5927 -0.4069 -0.3904
 9284TIP3    H252048   3.782   1.718  11.149 -0.5064  1.4698 -0.0568
 9285TIP3   OH252049   0.003   4.355  11.817  0.1747  0.3442 -0.3291
 9285TIP3    H152050  -0.000   4.422  11.748 -0.7431 -1.5832 -2.2952
 9285TIP3    H252051   0.096   4.347  11.838  0.6691  0.0972 -2.3422
 9286TIP3   OH252052   3.510   1.735  10.503 -0.1384 -0.2899  0.3818
 9286TIP3    H152053   3.508   1.684  10.421  0.1971 -0.2749  0.3634
 9286TIP3    H252054   3.601   1.730  10.531 -0.1060  0.3138  0.3777
 9287TIP3   OH252055   6.082   2.526  11.175  0.6680 -0.5527  0.4099
 9287TIP3    H152056   6.116   2.442  11.145  0.3190 -0.2251 -1.0058
 9287TIP3    H252057   5.988   2.510  11.189  0.9495 -0.8911  2.1437
 9288TIP3   OH252058   3.754   3.471  10.696 -0.1027  0.0157 -0.2943
 9288TIP3    H152059   3.764   3.563  10.671  0.2979  0.9529  2.7653
 9288TIP3    H252060   3.694   3.474  10.772 -0.9201 -2.3928 -0.7724
 9289TIP3   OH252061   0.717   1.557  11.202 -0.1804  0.7523  0.5068
 9289TIP3    H152062   0.719   1.520  11.290 -0.0563  0.0176  0.1967
 9289TIP3    H252063   0.723   1.482  11.144 -0.4744  1.2194 -0.1356
 9290TIP3   OH252064   1.093   0.403  11.223 -0.4156  0.1147  0.3846
 9290TIP3    H152065   1.014   0.454  11.208 -0.1660  0.4440  0.1696
 9290TIP3    H252066   1.158   0.442  11.164 -0.2810 -0.5931  0.0499
 9291TIP3   OH252067   3.926   2.552  12.435  0.0938 -0.1716 -0.3678
 9291TIP3    H152068   3.879   2.481  12.479  1.1274 -1.5448 -1.3888
 9291TIP3    H252069   3.969   2.600  12.506 -1.9199  0.4781  0.4845
 9292TIP3   OH252070   2.129   4.607   9.526  0.3417  0.5855 -0.0847
 9292TIP3    H152071   2.165   4.525   9.494  1.2350  1.2769 -0.9163
 9292TIP3    H252072   2.205   4.663   9.540 -0.0120  0.4694  2.9925
 9293TIP3   OH252073   1.567   2.470  11.159  0.0220  0.4471  0.0876
 9293TIP3    H152074   1.643   2.415  11.141 -0.6743 -0.5468  0.0500
 9293TIP3    H252075   1.592   2.522  11.235  0.9347  0.5440 -0.2629
 9294TIP3   OH252076   0.375   4.984  10.484 -0.0870 -0.1330 -0.0129
 9294TIP3    H152077   0.312   4.911  10.488  0.5101 -0.6051  1.3419
 9294TIP3    H252078   0.461   4.942  10.490  0.3028  0.6297 -0.1467
 9295TIP3   OH252079   1.124   3.115   9.478  0.2023 -0.0255 -0.2301
 9295TIP3    H152080   1.150   3.055   9.548 -0.3716 -0.2118 -0.1665
 9295TIP3    H252081   1.100   3.058   9.405 -1.0123  0.0810  0.0589
 9296TIP3   OH252082   4.056   1.323  11.279 -0.3472  0.2063 -0.3858
 9296TIP3    H152083   4.104   1.405  11.293 -0.1954  0.0781 -0.1368
 9296TIP3    H252084   3.973   1.350  11.240 -0.7115  0.5800  0.5991
 9297TIP3   OH252085   3.070   2.681   9.829  0.5002  0.1615 -0.0767
 9297TIP3    H152086   3.130   2.607   9.834  0.7631  0.3956  0.3515
 9297TIP3    H252087   2.984   2.642   9.814  0.6683 -0.2156 -0.0671
 9298TIP3   OH252088   6.236   3.304  11.643 -0.0635 -0.3261  0.3248
 9298TIP3    H152089   6.185   3.253  11.581  0.3029  1.3310 -1.4482
 9298TIP3    H252090   6.325   3.305  11.606  0.3502  0.0222  1.3034
 9299TIP3   OH252091   1.784   4.729  12.525  0.6294 -0.1751 -0.2660
 9299TIP3    H152092   1.871   4.743  12.561  0.8613  2.9868 -1.6897
 9299TIP3    H252093   1.798   4.675  12.447  1.3967  0.5660 -0.6532
 9300TIP3   OH252094   6.531   5.257  11.207 -0.0924  0.5895  0.0429
 9300TIP3    H152095   6.581   5.339  11.200  0.3820  0.1629 -2.5010
 9300TIP3    H252096   6.593   5.189  11.179 -1.4476 -0.2073 -1.1049
 9301TIP3   OH252097   2.591   6.656  11.083  0.6347  0.2127  0.0280
 9301TIP3    H152098   2.502   6.639  11.114 -0.0873  2.7836 -0.3756
 9301TIP3    H252099   2.640   6.578  11.108 -1.2582 -0.4274  2.1420
 9302TIP3   OH252100   5.665   4.033  10.704  0.0382 -0.2004  0.2109
 9302TIP3    H152101   5.594   3.977  10.673  0.0574  0.5708 -1.3244
 9302TIP3    H252102   5.673   4.013  10.797 -1.1785 -1.3880  0.0865
 9303TIP3   OH252103   4.586   3.228   9.417  0.0108  0.3295 -0.3630
 9303TIP3    H152104   4.559   3.227   9.325 -0.9620 -0.4405 -0.0737
 9303TIP3    H252105   4.681   3.241   9.414  0.3370 -1.9243 -1.5591
 9304TIP3   OH252106   3.059   5.521  12.532 -0.3402 -0.1193  0.2447
 9304TIP3    H152107   3.057   5.441  12.480 -0.6918  0.1369 -0.1457
 9304TIP3    H252108   3.144   5.520  12.575 -1.0916 -1.6622  1.7757
 9305TIP3   OH252109   0.927   6.133   9.815  0.1646 -0.5252  0.2608
 9305TIP3    H152110   0.962   6.130   9.904 -0.5357 -0.5668  0.5387
 9305TIP3    H252111   1.002   6.112   9.759  0.9744  0.9558  0.7283
 9306TIP3   OH252112   6.397   0.126   9.497  0.2117  0.2461 -0.0043
 9306TIP3    H152113   6.332   0.104   9.564  0.2980  0.2493  0.0804
 9306TIP3    H252114   6.345   0.147   9.420  0.0883  0.8856  0.2488
 9307TIP3   OH252115   3.849   1.038  11.038 -0.1136  0.2133 -0.7735
 9307TIP3    H152116   3.933   1.014  11.000 -0.8438 -0.9581 -1.6892
 9307TIP3    H252117   3.809   1.095  10.973 -0.4584 -0.0582 -0.7992
 9308TIP3   OH252118   4.807   3.389  10.986 -0.6463  0.2316  0.3441
 9308TIP3    H152119   4.815   3.394  10.891 -1.7566 -0.0712  0.2184
 9308TIP3    H252120   4.860   3.462  11.019 -0.6209  0.6178 -0.5267
 9309TIP3   OH252121   0.831   4.453  12.186 -0.2485  0.0679  0.4486
 9309TIP3    H152122   0.774   4.417  12.254 -1.4141  2.3860  0.8150
 9309TIP3    H252123   0.772   4.474  12.114  0.8456 -1.5197 -0.9891
 9310TIP3   OH252124   3.744   5.758  11.653  0.1852 -0.1904 -0.2807
 9310TIP3    H152125   3.741   5.735  11.560 -0.5543  0.4855 -0.4411
 9310TIP3    H252126   3.658   5.797  11.670  0.3289 -0.2778  0.6817
 9311TIP3   OH252127   3.786   3.922   9.295 -0.2371  0.4666 -0.3001
 9311TIP3    H152128   3.810   3.833   9.321 -0.0189  1.1430  2.0719
 9311TIP3    H252129   3.690   3.922   9.295 -0.3198 -0.3632 -2.8162
 9312TIP3   OH252130   6.183   4.603  10.975 -0.2578 -0.8227 -0.1366
 9312TIP3    H152131   6.095   4.613  11.011  0.2885 -0.6657  1.2240
 9312TIP3    H252132   6.188   4.667  10.905 -1.4787 -1.3792 -0.7602
 9313TIP3   OH252133   1.529   0.077   9.525 -0.8038 -0.1498 -0.3139
 9313TIP3    H152134   1.569   0.157   9.491  2.0044 -1.9796 -1.6373
 9313TIP3    H252135   1.435   0.097   9.528 -0.3639  2.7071 -1.8907
 9314TIP3   OH252136   1.051   4.181  12.825  0.0145  0.1634 -0.0474
 9314TIP3    H152137   1.073   4.221  12.909 -0.1226  0.0710  0.0338
 9314TIP3    H252138   1.056   4.087  12.842  2.3758  0.0961 -0.7474
 9315TIP3   OH252139   5.188   3.278   9.655 -0.4791  0.4370  0.0721
 9315TIP3    H152140   5.126   3.325   9.598  0.5390  2.9031  0.8398
 9315TIP3    H252141   5.263   3.259   9.599  0.2086  2.1937  0.3149
 9316TIP3   OH252142   0.424   2.546   9.865 -0.5322 -0.1671  0.2236
 9316TIP3    H152143   0.415   2.467   9.812  1.1871 -0.7853  0.8225
 9316TIP3    H252144   0.434   2.515   9.955  0.6735  0.6887  0.4076
 9317TIP3   OH252145   6.053   2.563  10.534  0.5970 -0.9323 -0.3107
 9317TIP3    H152146   5.962   2.573  10.507  1.3376 -0.1172 -2.7187
 9317TIP3    H252147   6.049   2.504  10.610 -2.1623  1.3086  1.4763
 9318TIP3   OH252148   0.449   0.206  12.779  0.3810  0.1931  0.2878
 9318TIP3    H152149   0.469   0.120  12.815  1.5540  0.2683 -0.1592
 9318TIP3    H252150   0.533   0.251  12.774 -0.2722  1.5805  1.0293
 9319TIP3   OH252151   4.366   2.740   9.929  0.3191 -0.1378  0.2970
 9319TIP3    H152152   4.455   2.714   9.908  1.1154  1.6976  1.1118
 9319TIP3    H252153   4.359   2.829   9.895 -0.4123  0.5791  2.2048
 9320TIP3   OH252154   5.865   2.136  11.385  0.1299  0.2048 -0.4364
 9320TIP3    H152155   5.868   2.044  11.410  1.0004  0.5732  0.9535
 9320TIP3    H252156   5.774   2.162  11.400  0.0649 -0.2308 -0.0304
 9321TIP3   OH252157   6.154   4.084  10.755 -0.3163 -0.2412 -0.4401
 9321TIP3    H152158   6.159   4.172  10.794  0.7040 -0.4039 -0.1765
 9321TIP3    H252159   6.071   4.084  10.709 -1.4282  0.0741  1.4650
 9322TIP3   OH252160   5.443   5.631  12.468  0.8161  0.3543  0.1638
 9322TIP3    H152161   5.415   5.548  12.505  0.7332  1.0244  1.6886
 9322TIP3    H252162   5.380   5.695  12.502 -0.0209  0.8634 -2.1606
 9323TIP3   OH252163   0.147   2.767  10.899 -0.9504  0.3520  0.0388
 9323TIP3    H152164   0.073   2.772  10.839 -1.1517  0.6306  0.3102
 9323TIP3    H252165   0.216   2.818  10.856 -0.1024 -1.8064 -1.3513
 9324TIP3   OH252166   1.943   3.021  12.426  0.1801 -0.1754  0.3646
 9324TIP3    H152167   1.865   3.077  12.430  0.3002 -0.0871  2.1978
 9324TIP3    H252168   1.938   2.980  12.339 -1.4323  0.4900  0.1011
 9325TIP3   OH252169   1.473   5.419   9.819  0.0564 -0.2866 -0.0234
 9325TIP3    H152170   1.496   5.458   9.734  2.3667 -0.5375  0.4190
 9325TIP3    H252171   1.442   5.493   9.871 -0.4120  0.0520 -0.7643
 9326TIP3   OH252172   3.034   3.611  10.131  0.3074 -0.6600  0.5393
 9326TIP3    H152173   3.046   3.623  10.225  1.2585 -3.3549  0.8649
 9326TIP3    H252174   3.123   3.618  10.094 -0.0212  0.1156 -0.1468
 9327TIP3   OH252175   3.175   2.573  11.843 -0.2775  0.5458 -0.2516
 9327TIP3    H152176   3.192   2.533  11.757  0.3539 -0.6116  0.3878
 9327TIP3    H252177   3.083   2.599  11.840 -0.0840  1.1612 -1.5279
 9328TIP3   OH252178   6.355   3.193  11.163 -0.4474 -0.1171  0.2765
 9328TIP3    H152179   6.380   3.193  11.255 -1.2536 -0.2846  0.4998
 9328TIP3    H252180   6.279   3.251  11.158 -1.0164 -0.8678 -0.0985
 9329TIP3   OH252181   3.179   6.204  11.904 -0.0801 -0.0612 -0.7651
 9329TIP3    H152182   3.153   6.173  11.818 -0.1428 -1.2317 -0.3387
 9329TIP3    H252183   3.122   6.279  11.922 -0.0848  0.1669 -1.7144
 9330TIP3   OH252184   0.136   3.316  10.346 -0.4040 -0.3612  0.1594
 9330TIP3    H152185   0.052   3.362  10.338  0.2103  1.5211  3.0764
 9330TIP3    H252186   0.195   3.364  10.288 -0.8753 -0.4753 -0.4275
 9331TIP3   OH252187   5.961   4.987  10.103  0.0205  0.2234 -0.0710
 9331TIP3    H152188   5.968   4.995  10.198 -0.7225 -3.7157  0.4918
 9331TIP3    H252189   6.028   5.046  10.069  0.2355  1.8447  2.8450
 9332TIP3   OH252190   4.726   4.912  12.709  0.6324 -0.0920 -0.4690
 9332TIP3    H152191   4.795   4.932  12.773  1.5313  0.5822 -1.6278
 9332TIP3    H252192   4.743   4.821  12.683  0.4966 -0.2396 -0.0637
 9333TIP3   OH252193   1.786   3.208  11.078  0.3636  0.3901  0.7440
 9333TIP3    H152194   1.849   3.263  11.031  1.2908  0.0091  1.4968
 9333TIP3    H252195   1.840   3.161  11.142 -0.6492 -0.2151  1.1604
 9334TIP3   OH252196   0.164   0.350  11.731 -0.2145 -0.3240  0.2005
 9334TIP3    H152197   0.163   0.326  11.824 -1.5941 -1.3924 -0.0650
 9334TIP3    H252198   0.193   0.441  11.731 -1.3065  0.0720  1.7793
 9335TIP3   OH252199   4.273   0.947  10.559 -0.2081 -0.2453  0.4090
 9335TIP3    H152200   4.288   0.858  10.588  0.4174 -0.2335  0.1434
 9335TIP3    H252201   4.293   0.945  10.465 -1.6725 -0.1688  0.0605
 9336TIP3   OH252202   2.188   5.836  11.298 -0.1161  0.2376 -0.1222
 9336TIP3    H152203   2.168   5.897  11.226 -1.2944 -0.8977 -0.8031
 9336TIP3    H252204   2.248   5.772  11.260 -0.3149 -0.0554  0.0477
 9337TIP3   OH252205   3.064   3.975  10.322  0.1208 -0.0217  0.0903
 9337TIP3    H152206   2.970   3.994  10.324 -0.5809 -2.8582 -0.9283
 9337TIP3    H252207   3.090   3.988  10.231  0.5999  0.2686  0.2647
 9338TIP3   OH252208   1.937   0.330  11.771 -0.1910  0.4289  0.0707
 9338TIP3    H152209   2.011   0.277  11.743  0.5319  0.7795  1.2170
 9338TIP3    H252210   1.969   0.420  11.768  0.2750  0.4384  2.7900
 9339TIP3   OH252211   4.830   1.937   9.677  0.7359 -0.7133  0.3726
 9339TIP3    H152212   4.871   2.014   9.639 -1.5127 -0.3705 -1.6000
 9339TIP3    H252213   4.806   1.883   9.601 -1.3177 -1.4084  1.4336
 9340TIP3   OH252214   1.469   2.770  11.733 -0.3132 -0.3170  0.2262
 9340TIP3    H152215   1.410   2.825  11.682  1.7748  0.9658 -0.9815
 9340TIP3    H252216   1.492   2.824  11.810  0.3913 -0.1721 -0.0736
 9341TIP3   OH252217   4.819   4.686   9.777 -0.4649  0.2483 -0.2611
 9341TIP3    H152218   4.851   4.715   9.692 -0.5662  2.1095  0.2911
 9341TIP3    H252219   4.895   4.647   9.819 -0.0854  0.5045 -0.7013
 9342TIP3   OH252220   4.644   0.277  12.252 -0.0715  0.4763  0.0527
 9342TIP3    H152221   4.586   0.320  12.189 -1.5864 -1.5173 -0.0061
 9342TIP3    H252222   4.588   0.262  12.329  0.3503 -1.3815  0.0373
 9343TIP3   OH252223   4.244   6.116  10.486  0.2279 -0.0285  0.1975
 9343TIP3    H152224   4.312   6.181  10.506  0.9678  0.0102 -2.1119
 9343TIP3    H252225   4.172   6.168  10.449 -0.0101 -0.3334  0.2342
 9344TIP3   OH252226   6.628   5.665  10.197  0.0427  0.0532  0.6801
 9344TIP3    H152227   6.634   5.724  10.122  0.6992  0.1415  0.7899
 9344TIP3    H252228   6.584   5.716  10.265  0.7509  0.4836  0.8274
 9345TIP3   OH252229   6.566   5.067  11.649  0.6484 -0.4702 -0.2382
 9345TIP3    H152230   6.514   5.100  11.576 -0.4919 -1.5500  0.0439
 9345TIP3    H252231   6.656   5.088  11.627  0.2425 -0.0428 -1.5540
 9346TIP3   OH252232   1.384   4.864  11.751  0.3413 -0.2053 -0.3953
 9346TIP3    H152233   1.392   4.957  11.731  0.2715 -0.4895 -1.7835
 9346TIP3    H252234   1.471   4.828  11.734  0.2176 -0.5004 -0.4064
 9347TIP3   OH252235   1.021   3.700  11.356  1.0934  0.4848  0.1705
 9347TIP3    H152236   0.976   3.626  11.316  3.0039  0.3297 -1.8401
 9347TIP3    H252237   0.987   3.703  11.446  0.2573 -2.2131  0.0159
 9348TIP3   OH252238   4.848   4.434  12.642  0.0299 -0.3158  0.2318
 9348TIP3    H152239   4.778   4.368  12.644 -1.6720  1.0989 -3.2958
 9348TIP3    H252240   4.916   4.394  12.588 -0.1841  0.1010 -0.3498
 9349TIP3   OH252241   0.704   4.613  11.828 -0.6071  0.0860 -0.2105
 9349TIP3    H152242   0.675   4.550  11.894 -1.6713  0.0423 -0.7095
 9349TIP3    H252243   0.776   4.660  11.870  0.0431 -1.2848  0.2573
 9350TIP3   OH252244   3.934   1.604   9.613 -0.2194 -0.1110  0.4502
 9350TIP3    H152245   3.994   1.617   9.539  0.1534 -0.5100  0.6754
 9350TIP3    H252246   3.872   1.676   9.607 -0.9017 -0.7669 -0.9490
 9351TIP3   OH252247   0.308   1.494  12.161 -0.4061 -0.1831  0.1230
 9351TIP3    H152248   0.375   1.513  12.095 -1.5156  1.1279 -0.6631
 9351TIP3    H252249   0.325   1.403  12.186  1.2962 -0.0699 -0.4691
 9352TIP3   OH252250   1.872   1.264  11.915 -0.0449  0.0584  0.0935
 9352TIP3    H152251   1.959   1.302  11.918 -0.1655  0.2805  1.2051
 9352TIP3    H252252   1.814   1.333  11.947 -0.5006 -0.3959  0.2737
 9353TIP3   OH252253   0.239   2.564  11.888 -0.6535 -0.6079  0.0867
 9353TIP3    H152254   0.197   2.555  11.802  0.6309 -1.3028 -0.5090
 9353TIP3    H252255   0.315   2.506  11.883  1.5600  2.0591  0.3177
 9354TIP3   OH252256   6.250   2.485  11.725 -0.1220 -0.4900  0.4101
 9354TIP3    H152257   6.336   2.472  11.684 -0.2887 -0.6362  0.1011
 9354TIP3    H252258   6.225   2.398  11.755  0.4710 -0.2151  1.7966
 9355TIP3   OH252259   6.717   5.829  10.810  0.1159 -0.2540 -0.2625
 9355TIP3    H152260   6.638   5.862  10.852  0.7774  1.7804 -0.4858
 9355TIP3    H252261   6.689   5.807  10.721 -0.3292 -0.1816 -0.1444
 9356TIP3   OH252262   5.423   2.120  10.376 -0.1820 -0.4536  0.2010
 9356TIP3    H152263   5.479   2.174  10.432  0.3392 -1.1358  0.3564
 9356TIP3    H252264   5.370   2.182  10.327  0.5859  0.2033  0.1883
 9357TIP3   OH252265   3.523   4.029  10.865  0.3647  0.0834 -0.1572
 9357TIP3    H152266   3.437   4.071  10.858 -1.7356 -3.8816 -1.0534
 9357TIP3    H252267   3.575   4.069  10.795 -1.1928  1.5887 -0.5334
 9358TIP3   OH252268   5.449   1.942   9.900  0.0228  0.4824  0.0940
 9358TIP3    H152269   5.411   1.912   9.982  1.8886 -2.1023  0.1332
 9358TIP3    H252270   5.374   1.971   9.848 -1.4115  0.2017  1.9067
 9359TIP3   OH252271   1.681   6.118   9.743  0.3853 -0.1018  0.1223
 9359TIP3    H152272   1.765   6.153   9.770 -0.2272  2.1371 -0.6545
 9359TIP3    H252273   1.694   6.091   9.652  0.4014 -0.2969  0.1808
 9360TIP3   OH252274   5.339   6.207  10.767  0.4352  0.3641  0.4496
 9360TIP3    H152275   5.412   6.178  10.712 -0.3905 -0.0728 -0.4382
 9360TIP3    H252276   5.324   6.134  10.828  0.1654  0.0797  0.0459
 9361TIP3   OH252277   2.513   3.030  11.151 -0.2217  0.0548  0.1405
 9361TIP3    H152278   2.533   3.030  11.058 -3.4579 -0.8206 -0.7075
 9361TIP3    H252279   2.483   3.119  11.170 -0.9946 -0.1572 -0.0557
 9362TIP3   OH252280   5.639   6.495  10.547 -0.7974  0.1608  0.0544
 9362TIP3    H152281   5.649   6.402  10.565 -0.3532  0.4406  1.3496
 9362TIP3    H252282   5.718   6.535  10.585 -2.0092  1.2979  1.4842
 9363TIP3   OH252283   1.166   2.324  11.027  0.4775  0.3674 -0.3263
 9363TIP3    H152284   1.211   2.406  11.049  1.3439 -0.0241 -0.5799
 9363TIP3    H252285   1.236   2.267  10.995 -0.0313 -0.6261  0.2845
 9364TIP3   OH252286   5.507   2.915  10.718  0.1907 -0.4823 -0.4130
 9364TIP3    H152287   5.437   2.933  10.781 -0.2739  0.9366 -1.2846
 9364TIP3    H252288   5.586   2.951  10.758  0.0878 -0.4996 -0.1950
 9365TIP3   OH252289   4.906   5.785  12.196 -0.0079  0.5285 -0.1036
 9365TIP3    H152290   4.930   5.714  12.256  0.0047  1.4057  0.9562
 9365TIP3    H252291   4.830   5.826  12.237 -0.9271  0.2444 -1.4459
 9366TIP3   OH252292   6.117   0.466   9.559  0.0752  0.1745 -0.3475
 9366TIP3    H152293   6.186   0.442   9.497  1.3587 -0.8513  1.3743
 9366TIP3    H252294   6.163   0.501   9.635 -1.0015 -2.7259  1.8564
 9367TIP3   OH252295   0.749   1.256   9.126 -0.5602 -0.4828 -0.0735
 9367TIP3    H152296   0.756   1.230   9.034 -1.4742  3.1126 -1.3209
 9367TIP3    H252297   0.832   1.300   9.144 -0.3458 -1.2593  0.8807
 9368TIP3   OH252298   5.355   1.222  11.281  0.0036  0.4428  0.6307
 9368TIP3    H152299   5.330   1.278  11.207 -0.0768 -0.0144  0.3049
 9368TIP3    H252300   5.447   1.201  11.264 -0.5738 -1.3973 -0.5051
 9369TIP3   OH252301   6.477   1.715  12.751 -0.1590 -0.3844  0.5045
 9369TIP3    H152302   6.561   1.758  12.741  0.4793 -1.7466 -0.1750
 9369TIP3    H252303   6.417   1.764  12.695  0.0207  0.9185  1.4021
 9370TIP3   OH252304   3.858   5.356  10.434  0.6688  0.0481  0.2692
 9370TIP3    H152305   3.833   5.416  10.364  0.5161  0.3661  0.5948
 9370TIP3    H252306   3.780   5.301  10.447  0.2900  0.7427  0.9745
 9371TIP3   OH252307   1.143   0.886  11.314  0.0386  0.3126  0.3063
 9371TIP3    H152308   1.162   0.971  11.274 -1.5016  0.3209 -0.4748
 9371TIP3    H252309   1.104   0.835  11.243 -1.9714  0.0210  1.5404
 9372TIP3   OH252310   6.422   2.080   9.676 -0.3081  0.0040  0.3355
 9372TIP3    H152311   6.515   2.088   9.697 -0.2319  1.1138 -0.3488
 9372TIP3    H252312   6.418   2.010   9.611 -0.0888 -0.7364  1.0929
 9373TIP3   OH252313   2.588   0.911  12.463  0.1663  0.8271 -0.0513
 9373TIP3    H152314   2.555   0.824  12.441 -1.2512  1.3524 -0.1392
 9373TIP3    H252315   2.638   0.899  12.543 -1.5380  0.2059  0.9622
 9374TIP3   OH252316   4.274   6.200  12.405  0.1064  0.0194 -0.1920
 9374TIP3    H152317   4.200   6.196  12.465 -0.4062  0.2535 -0.8060
 9374TIP3    H252318   4.293   6.108  12.385  0.9683 -0.1279  1.1418
 9375TIP3   OH252319   1.474   2.592  10.881 -0.9335  0.5126 -0.3729
 9375TIP3    H152320   1.464   2.578  10.975  0.2673 -0.9651 -0.4374
 9375TIP3    H252321   1.547   2.536  10.855 -1.0193  1.1354 -2.1412
 9376TIP3   OH252322   2.489   0.770  10.318 -0.1994  0.0515  0.1998
 9376TIP3    H152323   2.530   0.690  10.284 -1.2799 -1.2539  1.8117
 9376TIP3    H252324   2.449   0.810  10.241  1.5858 -0.1476 -0.8968
 9377TIP3   OH252325   3.648   1.869   9.379  0.2515 -0.3217 -0.5921
 9377TIP3    H152326   3.690   1.845   9.462 -0.5299  0.9137  0.1932
 9377TIP3    H252327   3.623   1.785   9.340  0.6231 -0.9270  0.4224
 9378TIP3   OH252328   6.169   0.341  10.014  0.0892 -0.4054  0.3595
 9378TIP3    H152329   6.152   0.433   9.996  1.9374 -0.2954 -1.0913
 9378TIP3    H252330   6.123   0.294   9.944  0.4774 -0.4746  0.1476
 9379TIP3   OH252331   4.405   3.756  12.534 -0.0157 -0.1244 -0.1652
 9379TIP3    H152332   4.329   3.814  12.528  0.7905  1.1721  1.3274
 9379TIP3    H252333   4.382   3.692  12.600 -0.8445 -1.4819 -1.7008
 9380TIP3   OH252334   2.059   1.572  10.527  0.2505  0.6846 -0.4928
 9380TIP3    H152335   1.985   1.601  10.579 -0.1016  1.0548 -1.1816
 9380TIP3    H252336   2.135   1.618  10.564  0.3163 -0.4119  0.8190
 9381TIP3   OH252337   4.085   1.785  10.175  0.6979  0.1034  0.0351
 9381TIP3    H152338   4.103   1.709  10.121 -0.3049  0.2360 -0.5101
 9381TIP3    H252339   4.170   1.829  10.184  1.1081 -0.5869 -0.3953
 9382TIP3   OH252340   0.612   5.311   9.749 -0.3270  0.1639 -0.1884
 9382TIP3    H152341   0.587   5.395   9.711 -1.0751  0.3111  0.6251
 9382TIP3    H252342   0.557   5.247   9.703  0.5449  0.0464 -1.1155
 9383TIP3   OH252343   5.361   5.892  11.177 -0.3255 -0.5685 -0.4133
 9383TIP3    H152344   5.275   5.913  11.213  0.2003  1.3338 -0.1348
 9383TIP3    H252345   5.343   5.865  11.087 -1.1651  0.7878 -0.6829
 9384TIP3   OH252346   2.299   0.763   9.382 -0.2208 -0.0725 -0.5930
 9384TIP3    H152347   2.294   0.773   9.477 -0.2294 -0.0283 -0.5978
 9384TIP3    H252348   2.393   0.756   9.363 -0.1551  0.8571 -0.6756
 9385TIP3   OH252349   6.387   0.207  11.103  0.4513  0.4534 -0.6138
 9385TIP3    H152350   6.315   0.259  11.137  0.9104  1.1016 -0.5974
 9385TIP3    H252351   6.348   0.153  11.035  0.0596  1.2406 -1.0269
 9386TIP3   OH252352   3.734   2.409   9.314 -0.4740  0.4700  0.4482
 9386TIP3    H152353   3.671   2.430   9.384 -0.6089  1.5997  0.0115
 9386TIP3    H252354   3.753   2.494   9.273  0.6595  0.0171 -0.0027
 9387TIP3   OH252355   1.272   0.280  10.861  0.7243 -0.3281 -0.2733
 9387TIP3    H152356   1.183   0.268  10.828  0.9807 -1.8692 -0.4546
 9387TIP3    H252357   1.291   0.201  10.912  0.3505  1.9171  3.7418
 9388TIP3   OH252358   0.083   5.985  12.318  0.0431  0.1235 -0.1552
 9388TIP3    H152359   0.056   6.053  12.380  0.7548 -0.5577  0.9437
 9388TIP3    H252360   0.006   5.929  12.310  0.3600 -0.5711  1.2405
 9389TIP3   OH252361   0.503   3.366  11.153  0.4336 -0.1026 -0.2329
 9389TIP3    H152362   0.456   3.329  11.078  0.4137  0.1876 -0.3643
 9389TIP3    H252363   0.449   3.440  11.181  0.3478 -0.3243  0.1839
 9390TIP3   OH252364   0.093   5.086  11.501  0.0244  0.2411 -0.0727
 9390TIP3    H152365   0.121   5.150  11.436 -3.2267  0.9736 -0.8793
 9390TIP3    H252366   0.143   5.007  11.479  1.2528  1.3551 -1.4821
 9391TIP3   OH252367   2.902   6.460   9.671 -0.3926 -0.3326 -0.7066
 9391TIP3    H152368   2.985   6.436   9.712  0.9550  3.2881 -0.9474
 9391TIP3    H252369   2.835   6.430   9.733  1.1656 -1.3768  0.5666
 9392TIP3   OH252370   4.058   4.377  10.566 -0.4303 -0.5177  0.1556
 9392TIP3    H152371   4.064   4.282  10.557 -0.0151 -0.6720  1.7645
 9392TIP3    H252372   4.062   4.392  10.660  0.0856  1.1359 -0.1024
 9393TIP3   OH252373   3.488   5.825  10.096 -0.1145 -0.2085 -0.1394
 9393TIP3    H152374   3.526   5.841  10.010 -1.1569 -3.8723 -1.4331
 9393TIP3    H252375   3.557   5.779  10.145  0.2475  1.2956  0.8427
 9394TIP3   OH252376   1.550   3.127  13.065 -0.1474  0.9368  0.7866
 9394TIP3    H152377   1.566   3.070  13.141  0.9642  0.5270  0.2712
 9394TIP3    H252378   1.555   3.069  12.990 -0.0498  1.5350  0.3229
 9395TIP3   OH252379   5.590   1.376  10.023 -0.5976 -0.3283  0.0743
 9395TIP3    H152380   5.517   1.315  10.015 -1.7301  0.9905 -0.1281
 9395TIP3    H252381   5.642   1.362   9.944 -0.1149 -1.8958  0.6409
 9396TIP3   OH252382   1.955   5.180   9.035  0.2738 -0.5811 -0.0439
 9396TIP3    H152383   1.993   5.123   9.102  0.2564 -0.0949  0.3866
 9396TIP3    H252384   2.019   5.179   8.964  1.4224  0.6943  0.9067
 9397TIP3   OH252385   1.579   0.346   9.811 -0.0174  0.1484  0.3348
 9397TIP3    H152386   1.656   0.315   9.762  0.2419 -1.2654  1.5716
 9397TIP3    H252387   1.600   0.328   9.902 -1.1276  1.3282  0.8448
 9398TIP3   OH252388   6.310   0.125  10.119  0.2354 -0.2488 -0.0815
 9398TIP3    H152389   6.263   0.199  10.081  0.7690  0.1236 -0.0258
 9398TIP3    H252390   6.398   0.158  10.136  0.3333 -0.7494  0.4190
 9399TIP3   OH252391   6.459   4.997  10.833 -0.5916  0.0310  0.1226
 9399TIP3    H152392   6.488   5.053  10.761  1.7107 -0.6211  0.4592
 9399TIP3    H252393   6.365   5.012  10.839 -0.1832  3.4861 -0.1097
 9400TIP3   OH252394   2.220   4.728   9.124  0.6004  0.6170 -0.2843
 9400TIP3    H152395   2.134   4.711   9.162  0.5056  2.3454  0.3325
 9400TIP3    H252396   2.278   4.737   9.199  0.9342  1.4006 -0.6250
 9401TIP3   OH252397   2.823   5.221   9.561 -0.1873 -0.4947 -0.5602
 9401TIP3    H152398   2.750   5.224   9.623  2.1442  0.2763  2.4101
 9401TIP3    H252399   2.811   5.297   9.505 -1.6326 -0.3555 -0.0917
 9402TIP3   OH252400   5.467   1.144  10.584 -0.5576  0.1126 -0.4515
 9402TIP3    H152401   5.383   1.182  10.612 -0.0611  1.7092 -1.0105
 9402TIP3    H252402   5.445   1.056  10.555 -1.5514 -0.6595  2.2899
 9403TIP3   OH252403   5.203   1.988  11.395  0.7002  0.1968  0.0975
 9403TIP3    H152404   5.243   2.064  11.354  0.6451  0.5997  0.7802
 9403TIP3    H252405   5.275   1.945  11.441  1.0274 -0.9389 -1.3748
 9404TIP3   OH252406   5.444   2.462  11.126 -0.0301 -0.1204  0.0192
 9404TIP3    H152407   5.535   2.441  11.149  1.3109  0.8763 -3.5849
 9404TIP3    H252408   5.435   2.554  11.151  0.6730  0.3286 -1.2564
 9405TIP3   OH252409   4.254   0.490  11.344  0.1026 -0.6261 -0.4463
 9405TIP3    H152410   4.304   0.563  11.308  0.6699 -0.9895 -0.4047
 9405TIP3    H252411   4.286   0.413  11.297  0.6226 -1.0632  0.5840
 9406TIP3   OH252412   2.526   4.317  12.484 -0.2760 -0.1839 -0.3130
 9406TIP3    H152413   2.443   4.300  12.529  1.0767 -1.0223  2.0966
 9406TIP3    H252414   2.501   4.332  12.393 -3.2547  1.7607  0.6500
 9407TIP3   OH252415   4.243   6.545   9.408  0.0319 -0.5391  0.2721
 9407TIP3    H152416   4.283   6.625   9.373  0.0475 -0.4755  0.4358
 9407TIP3    H252417   4.269   6.544   9.500  1.3199 -1.5060 -0.0607
 9408TIP3   OH252418   5.315   1.868  12.069  0.1170  0.9691  0.5822
 9408TIP3    H152419   5.372   1.793  12.056  0.8534  1.6844 -0.4194
 9408TIP3    H252420   5.345   1.908  12.150  0.4203  0.8036  0.5507
 9409TIP3   OH252421   1.179   2.576  11.501 -0.2322 -0.2073 -0.3033
 9409TIP3    H152422   1.263   2.530  11.498  0.3632  0.8500 -0.3200
 9409TIP3    H252423   1.135   2.552  11.420  1.3978  1.6595 -1.8534
 9410TIP3   OH252424   3.318   2.087  11.359 -0.6362  0.4797  0.0855
 9410TIP3    H152425   3.364   2.135  11.428 -1.1089 -1.3158  1.7397
 9410TIP3    H252426   3.388   2.042  11.311 -0.5023 -1.2431  1.8029
 9411TIP3   OH252427   1.901   1.788  11.025  0.3111 -0.3322 -0.0971
 9411TIP3    H152428   1.879   1.775  11.117 -0.5876 -0.6976 -0.3514
 9411TIP3    H252429   1.876   1.706  10.982 -0.4171  0.2615 -0.8524
 9412TIP3   OH252430   0.525   1.680  10.892 -0.4936  0.1839  0.2454
 9412TIP3    H152431   0.479   1.652  10.972 -0.1690  1.6224  0.9738
 9412TIP3    H252432   0.457   1.720  10.838 -0.6686 -0.5790 -0.1183
 9413TIP3   OH252433   6.407   4.710  11.143 -0.3528 -0.3129 -0.0257
 9413TIP3    H152434   6.396   4.804  11.131 -0.6214 -0.3620 -0.1552
 9413TIP3    H252435   6.320   4.673  11.127 -0.9601 -0.3145  2.7656
 9414TIP3   OH252436   5.382   6.026  11.482  0.0461  0.3104 -0.2243
 9414TIP3    H152437   5.461   5.985  11.447 -0.0634 -0.2877  0.2118
 9414TIP3    H252438   5.313   5.961  11.468 -0.5875  1.2095 -1.5037
 9415TIP3   OH252439   2.232   4.102  12.048 -0.1659  0.6245 -0.1389
 9415TIP3    H152440   2.229   4.007  12.055 -0.4817  0.6659  0.3521
 9415TIP3    H252441   2.322   4.125  12.073  0.6250  0.3052 -2.4653
 9416TIP3   OH252442   0.836   1.923   9.936 -0.2680 -0.0063 -0.0088
 9416TIP3    H152443   0.784   1.978   9.878 -0.9732 -1.6358 -0.9962
 9416TIP3    H252444   0.835   1.836   9.894  2.4821 -0.3276  0.3959
 9417TIP3   OH252445   0.322   4.328  13.124 -0.2260 -0.0900 -0.3792
 9417TIP3    H152446   0.340   4.234  13.121 -0.6416 -0.1716 -0.3399
 9417TIP3    H252447   0.409   4.369  13.121 -0.0681 -0.4542 -1.0853
 9418TIP3   OH252448   2.060   0.540   9.924  0.0132 -0.3489  0.7803
 9418TIP3    H152449   2.090   0.540   9.834  0.4732 -1.4162  0.9164
 9418TIP3    H252450   1.976   0.493   9.922  0.3483 -0.9690  0.9947
 9419TIP3   OH252451   1.351   2.566   9.646  0.0154 -0.4036 -0.0951
 9419TIP3    H152452   1.279   2.560   9.583 -0.2251  0.0245  0.1357
 9419TIP3    H252453   1.399   2.645   9.620 -0.9120  0.5890  1.1044
 9420TIP3   OH252454   0.263   4.336  10.556  0.5021  0.3284  0.0348
 9420TIP3    H152455   0.198   4.284  10.509  2.1628 -1.2502 -0.6598
 9420TIP3    H252456   0.323   4.366  10.488  1.3075  0.5123  0.8034
 9421TIP3   OH252457   2.425   0.020  11.726 -0.1225 -0.1519  0.5663
 9421TIP3    H152458   2.377  -0.062  11.739 -0.4712 -0.1955 -0.8651
 9421TIP3    H252459   2.514   0.001  11.756  0.0161 -1.3214 -0.5158
 9422TIP3   OH252460   1.587   5.161  10.488 -0.8996 -0.1344  0.0245
 9422TIP3    H152461   1.607   5.130  10.400 -1.3767 -0.8976  0.1771
 9422TIP3    H252462   1.604   5.255  10.485  0.4651 -0.3745 -0.4856
 9423TIP3   OH252463   0.382   2.219  11.992  0.6374  0.3898 -0.2257
 9423TIP3    H152464   0.420   2.304  11.970 -2.2356  1.5176 -1.3034
 9423TIP3    H252465   0.292   2.239  12.018  0.7034 -2.0729  2.4410
 9424TIP3   OH252466   1.153   0.727  12.108  0.2594  0.3441 -0.1585
 9424TIP3    H152467   1.179   0.757  12.021  0.1046 -1.2674 -0.7776
 9424TIP3    H252468   1.061   0.753  12.115 -0.1069 -0.6597 -1.0194
 9425TIP3   OH252469   0.877   1.180  10.169  0.4409  0.1525 -0.1385
 9425TIP3    H152470   0.824   1.255  10.143 -0.8651 -0.6677  0.0532
 9425TIP3    H252471   0.866   1.117  10.098 -0.5053 -0.8202  0.8404
 9426TIP3   OH252472   1.715   5.818   9.787 -0.0390 -0.1829 -0.1573
 9426TIP3    H152473   1.703   5.810   9.692 -1.8702  2.0347 -0.1943
 9426TIP3    H252474   1.734   5.910   9.801  0.0421 -0.4522  1.6585
 9427TIP3   OH252475   2.648   2.564  11.928  0.1182 -1.2505 -0.4598
 9427TIP3    H152476   2.556   2.558  11.955  0.1532  0.2832  0.0932
 9427TIP3    H252477   2.646   2.607  11.843  0.3983  0.4930  0.3823
 9428TIP3   OH252478   0.743   3.876   9.628  0.5452 -0.2185  0.0777
 9428TIP3    H152479   0.749   3.841   9.539  2.5464  1.3822 -0.4869
 9428TIP3    H252480   0.708   3.965   9.616  1.1071  0.1103  0.8530
 9429TIP3   OH252481   4.178   5.032  11.951 -0.7121 -0.6604  0.0960
 9429TIP3    H152482   4.272   5.045  11.940 -0.5983 -0.5897  1.1207
 9429TIP3    H252483   4.150   4.996  11.867  0.0238  0.3736 -0.6238
 9430TIP3   OH252484   5.930   5.184   9.861  0.2763  0.0384  0.0520
 9430TIP3    H152485   5.878   5.249   9.908 -0.5359 -1.9876  2.1979
 9430TIP3    H252486   6.001   5.162   9.920  0.8521 -0.6216 -0.8557
 9431TIP3   OH252487   0.906   0.355  10.216  0.2224 -0.5386 -0.1293
 9431TIP3    H152488   0.830   0.319  10.262  1.2131 -0.4336  1.6817
 9431TIP3    H252489   0.922   0.439  10.258 -0.1596  0.6538 -2.2013
 9432TIP3   OH252490   1.651   3.492  10.486  0.2002  0.5001 -0.1251
 9432TIP3    H152491   1.673   3.537  10.567  1.5378 -1.0352  0.4135
 9432TIP3    H252492   1.653   3.561  10.419  1.4004  1.3893  0.7777
 9433TIP3   OH252493   5.097   3.161  12.362 -0.1825  0.4570  0.1003
 9433TIP3    H152494   5.002   3.169  12.356 -0.1806  0.3720 -0.0499
 9433TIP3    H252495   5.116   3.166  12.456 -0.3442  0.3740  0.1373
 9434TIP3   OH252496   2.327   4.616   8.883  0.1329  0.1366  0.1332
 9434TIP3    H152497   2.258   4.625   8.949  2.0489  1.5308  2.0754
 9434TIP3    H252498   2.356   4.706   8.867  0.7375 -0.3247 -1.5015
 9435TIP3   OH252499   3.791   2.366  11.326  0.1655  0.1114 -0.6354
 9435TIP3    H152500   3.774   2.333  11.414  1.1968  0.2621 -0.3683
 9435TIP3    H252501   3.886   2.380  11.323  0.1271  0.2388 -1.7239
 9436TIP3   OH252502   1.751   6.122  12.422  0.0177 -0.2159 -0.3144
 9436TIP3    H152503   1.714   6.077  12.497  0.9916  1.5592  1.3287
 9436TIP3    H252504   1.767   6.211  12.453  1.2400  0.3635 -2.3803
 9437TIP3   OH252505   5.884   4.465  10.968 -0.4210  0.2784 -0.5729
 9437TIP3    H152506   5.858   4.508  10.886  1.3819 -0.0797 -1.3738
 9437TIP3    H252507   5.966   4.420  10.947  0.5409  0.8657  1.6401
 9438TIP3   OH252508   6.651   2.612  11.852  0.6139  0.1012 -0.1019
 9438TIP3    H152509   6.613   2.551  11.790 -1.0846 -0.7197  1.6346
 9438TIP3    H252510   6.651   2.565  11.936 -0.2152  2.2314  1.1925
 9439TIP3   OH252511   0.782   3.548  12.621  0.1042 -0.2341 -0.0923
 9439TIP3    H152512   0.799   3.638  12.649  0.3023  0.0866 -1.1880
 9439TIP3    H252513   0.867   3.515  12.592  0.1255 -0.9437  0.7180
 9440TIP3   OH252514   0.877   4.867  12.198 -0.0623  0.4535  0.0625
 9440TIP3    H152515   0.834   4.951  12.214  0.0073  0.1924  1.8962
 9440TIP3    H252516   0.963   4.876  12.239  0.1488 -0.3271 -0.1959
 9441TIP3   OH252517   6.704   1.750   9.479  0.0501 -0.3075  0.1532
 9441TIP3    H152518   6.724   1.835   9.439  0.3679  0.7178  2.3628
 9441TIP3    H252519   6.611   1.736   9.461 -0.3665  1.2238  0.9498
 9442TIP3   OH252520   3.787   2.320  12.530 -0.0909 -0.6812  0.3921
 9442TIP3    H152521   3.871   2.280  12.554  0.6473 -0.3807 -1.4829
 9442TIP3    H252522   3.722   2.252  12.546 -0.0644  0.1099  5.0534
 9443TIP3   OH252523   1.373   0.083  10.998 -0.0576  0.4623 -0.4865
 9443TIP3    H152524   1.318   0.008  10.979 -0.2779  0.3347  0.6070
 9443TIP3    H252525   1.458   0.046  11.020 -0.1153  0.5386 -0.1271
 9444TIP3   OH252526   4.535   4.798  12.041  0.2232  0.4205  0.1692
 9444TIP3    H152527   4.623   4.810  12.077  0.2003  0.6798  0.1406
 9444TIP3    H252528   4.477   4.810  12.116  0.2053  0.3985  0.1583
 9445TIP3   OH252529   4.558   6.736  11.442  0.0703  0.1932  0.3954
 9445TIP3    H152530   4.542   6.788  11.521  0.2058  0.3269  0.3359
 9445TIP3    H252531   4.479   6.684  11.431 -1.3109  2.4628 -1.1328
 9446TIP3   OH252532   3.383   4.743   9.766 -0.1511 -0.1423  0.0715
 9446TIP3    H152533   3.452   4.677   9.763 -0.1175 -0.1352  0.6555
 9446TIP3    H252534   3.325   4.714   9.836  0.3273  0.8863  0.9202
 9447TIP3   OH252535   2.166   1.760  12.178 -0.1860 -0.4341 -0.0352
 9447TIP3    H152536   2.146   1.755  12.272 -2.0763  1.3567 -0.2536
 9447TIP3    H252537   2.117   1.688  12.139 -2.0325  0.6918  0.0679
 9448TIP3   OH252538   2.712   5.384  10.381  0.0073 -0.0768  0.1850
 9448TIP3    H152539   2.761   5.378  10.463  1.0392 -1.8046 -0.4940
 9448TIP3    H252540   2.728   5.473  10.350  0.6313  0.2003  1.2353
 9449TIP3   OH252541   4.559   3.909  10.096 -0.6076  0.2486  0.4339
 9449TIP3    H152542   4.532   4.000  10.085 -1.6677 -0.2460 -1.3865
 9449TIP3    H252543   4.483   3.866  10.135 -0.9417 -0.2903 -0.7776
 9450TIP3   OH252544   1.750   1.706  10.288  0.4568 -0.4176 -0.5443
 9450TIP3    H152545   1.684   1.720  10.220 -0.7926 -0.7667  0.5681
 9450TIP3    H252546   1.799   1.630  10.258 -0.7851 -1.2427 -0.5518
 9451TIP3   OH252547   3.473   4.377  10.847 -0.1892 -0.4152  1.2628
 9451TIP3    H152548   3.406   4.319  10.884 -1.7019 -0.2057 -0.9753
 9451TIP3    H252549   3.423   4.446  10.803  1.5241  0.0558 -0.0135
 9452TIP3   OH252550   5.540   6.243  11.579  0.4282 -0.0690 -0.2430
 9452TIP3    H152551   5.528   6.164  11.527 -1.2535  0.5681 -0.9200
 9452TIP3    H252552   5.551   6.313  11.515  2.8237  0.1819  0.3481
 9453TIP3   OH252553   6.469   4.926   9.620 -0.2546  0.0394 -0.4633
 9453TIP3    H152554   6.527   4.893   9.689 -1.6548  0.1434  0.8121
 9453TIP3    H252555   6.464   4.854   9.557  1.9939  0.3853 -1.1252
 9454TIP3   OH252556   4.932   2.667  10.185  0.4372  0.0078  0.2179
 9454TIP3    H152557   5.016   2.711  10.175  1.8465 -2.1982  1.5228
 9454TIP3    H252558   4.904   2.649  10.096  1.0782  1.2023 -0.2556
 9455TIP3   OH252559   3.276   3.545  10.572  0.4026  0.6392 -0.2620
 9455TIP3    H152560   3.272   3.600  10.494  0.2105  0.6485 -0.2456
 9455TIP3    H252561   3.369   3.524  10.582  0.3755  0.2763 -0.7419
 9456TIP3   OH252562   0.545   1.122  10.226 -0.2366 -0.4157 -0.7948
 9456TIP3    H152563   0.486   1.066  10.175 -1.8718 -0.8501  1.4108
 9456TIP3    H252564   0.495   1.203  10.239 -0.3053 -0.7006  0.9232
 9457TIP3   OH252565   0.588   4.885  12.463 -0.4942 -0.4106  0.0756
 9457TIP3    H152566   0.514   4.884  12.523 -1.0100  0.1928 -0.5370
 9457TIP3    H252567   0.643   4.957  12.494 -1.7741  1.2460 -1.3451
 9458TIP3   OH252568   2.615   5.698   9.174 -0.3183 -0.4754  0.1600
 9458TIP3    H152569   2.605   5.678   9.081  2.2829 -1.2443 -0.0355
 9458TIP3    H252570   2.564   5.630   9.219  0.2388 -1.4911 -0.6958
 9459TIP3   OH252571   5.570   4.985  10.250 -0.3777 -0.0049 -0.0119
 9459TIP3    H152572   5.553   5.039  10.173 -2.2086 -0.7608 -0.1992
 9459TIP3    H252573   5.629   4.916  10.219  1.0088  1.1492 -0.0529
 9460TIP3   OH252574   2.870   4.991  12.260 -0.3560  0.2277 -0.4898
 9460TIP3    H152575   2.807   4.925  12.291  0.2468  0.8052  2.2872
 9460TIP3    H252576   2.821   5.043  12.197 -2.6964  0.5944  1.4781
 9461TIP3   OH252577   0.332   6.477  11.500 -0.3111  0.7733  0.6285
 9461TIP3    H152578   0.307   6.389  11.474 -1.0157  1.3907 -0.9661
 9461TIP3    H252579   0.425   6.472  11.519 -0.1245 -0.1161 -0.4567
 9462TIP3   OH252580   1.121   1.625   9.599  0.1334  1.0635 -0.0430
 9462TIP3    H152581   1.207   1.643   9.639  0.3524  0.2270 -0.1318
 9462TIP3    H252582   1.136   1.632   9.505 -0.6045  4.0577 -0.0416
 9463TIP3   OH252583   3.834   6.060  10.117  0.4052 -0.3429  0.1147
 9463TIP3    H152584   3.916   6.012  10.129  1.9468  2.1946  0.4861
 9463TIP3    H252585   3.843   6.101  10.030  0.0169  0.7393  0.5619
 9464TIP3   OH252586   6.713   1.250  10.532 -0.4867  0.3089 -0.5717
 9464TIP3    H152587   6.787   1.196  10.504  0.4548  1.1002  0.3021
 9464TIP3    H252588   6.649   1.187  10.566  0.3295 -0.3061 -0.1361
 9465TIP3   OH252589   2.138   1.429  10.909 -0.1041  0.4069  0.9569
 9465TIP3    H152590   2.118   1.419  11.002  0.4917 -1.7684  0.9074
 9465TIP3    H252591   2.233   1.417  10.903 -0.1826  0.1125  0.0483
 9466TIP3   OH252592   6.166   3.727  10.817  0.1652  0.7091 -0.0906
 9466TIP3    H152593   6.251   3.754  10.852 -0.0407  0.8985  0.2629
 9466TIP3    H252594   6.178   3.636  10.791 -0.1264  0.0262  1.9729
 9467TIP3   OH252595   1.970   5.394   9.711 -0.0536 -0.2420  0.1368
 9467TIP3    H152596   1.916   5.380   9.789  0.0752  3.7772  1.1373
 9467TIP3    H252597   1.910   5.431   9.646  0.7685  0.9281  0.0242
 9468TIP3   OH252598   2.026   3.207  12.653 -0.1137  0.0409  0.2303
 9468TIP3    H152599   2.043   3.148  12.580  0.9071  1.2449 -0.5396
 9468TIP3    H252600   2.031   3.294  12.615  0.8818  0.7192  1.8145
 9469TIP3   OH252601   2.232   2.746  12.965 -0.4573  0.1671  0.9540
 9469TIP3    H152602   2.211   2.802  12.890  0.6667  0.0102  0.5121
 9469TIP3    H252603   2.154   2.751  13.020 -1.3280  0.2701 -0.2317
 9470TIP3   OH252604   5.201   6.574  10.344  0.5803  0.1506 -0.0419
 9470TIP3    H152605   5.164   6.549  10.428  1.4770 -0.7732  0.0919
 9470TIP3    H252606   5.253   6.653  10.363  0.6887  0.0095  0.2522
 9471TIP3   OH252607   1.850   2.359  11.470  0.0928 -0.3483 -0.3301
 9471TIP3    H152608   1.887   2.395  11.551  0.3117  0.4456 -0.7645
 9471TIP3    H252609   1.905   2.284  11.451  1.6973  0.9434 -1.0800
 9472TIP3   OH252610   6.038   0.972  10.238  0.1482  0.4295  0.0381
 9472TIP3    H152611   6.015   0.916  10.312 -0.1999  0.9872  0.3584
 9472TIP3    H252612   6.112   0.928  10.196 -0.1782 -0.3180  0.2300
 9473TIP3   OH252613   0.552   3.230  10.002  0.3916 -0.3789  0.3960
 9473TIP3    H152614   0.645   3.215  10.019  0.8172 -2.4759 -2.8954
 9473TIP3    H252615   0.546   3.324   9.985  1.7671 -0.1199  1.1408
 9474TIP3   OH252616   3.500   3.325   9.224 -0.1124  0.2552  0.2246
 9474TIP3    H152617   3.489   3.266   9.298  0.4855 -0.0529  0.0670
 9474TIP3    H252618   3.557   3.279   9.163 -1.6357 -0.0445 -1.0400
 9475TIP3   OH252619   5.361   4.056  10.564 -0.9050 -0.0473 -0.3233
 9475TIP3    H152620   5.448   4.026  10.538 -1.5913 -0.4311 -2.3441
 9475TIP3    H252621   5.343   4.009  10.645  0.6704 -0.1112  0.0269
 9476TIP3   OH252622   4.139   1.053  10.811  0.4034 -0.1269  0.1893
 9476TIP3    H152623   4.229   1.056  10.780  0.1470  0.8042 -0.5302
 9476TIP3    H252624   4.141   0.993  10.885  1.8059  0.5709  0.7652
 9477TIP3   OH252625   2.266   1.982   9.580  0.1773 -0.6299  0.1599
 9477TIP3    H152626   2.177   1.949   9.581  0.3302 -1.0658  0.9677
 9477TIP3    H252627   2.259   2.072   9.612  0.0864 -0.8647  0.8215
 9478TIP3   OH252628   4.627   0.156   9.350  0.6034 -0.1783 -0.1084
 9478TIP3    H152629   4.571   0.202   9.287  0.1383 -0.5043  0.0621
 9478TIP3    H252630   4.593   0.182   9.436 -0.9791 -2.3392  0.0202
 9479TIP3   OH252631   5.332   1.116  10.251 -0.5341  0.0120 -0.3115
 9479TIP3    H152632   5.297   1.190  10.299  0.3977  1.1419 -1.3210
 9479TIP3    H252633   5.405   1.152  10.200  1.6787 -2.0629  1.1434
 9480TIP3   OH252634   3.922   4.256   9.583  0.1369 -0.1580 -0.0077
 9480TIP3    H152635   3.970   4.335   9.608 -1.0430  0.4413  0.4660
 9480TIP3    H252636   3.858   4.287   9.519 -0.5008 -0.6638  0.3696
 9481TIP3   OH252637   3.175   6.401  12.204 -0.1092 -0.1865 -0.4163
 9481TIP3    H152638   3.217   6.437  12.282  0.2260  0.7366 -1.0050
 9481TIP3    H252639   3.113   6.337  12.238  0.7550 -0.5442  0.5498
 9482TIP3   OH252640   2.599   4.923  10.565  0.7023  0.5487 -0.2767
 9482TIP3    H152641   2.675   4.873  10.536  1.0582  0.6726  0.4096
 9482TIP3    H252642   2.634   5.010  10.584  0.4703  0.4954  0.4140
 9483TIP3   OH252643   5.609   4.375  12.177  0.2537 -0.4028  0.2692
 9483TIP3    H152644   5.681   4.430  12.207  0.5863 -1.5468  1.6892
 9483TIP3    H252645   5.630   4.288  12.209 -0.4124 -1.3373 -1.6592
 9484TIP3   OH252646   2.977   6.248  10.869 -0.7073  0.2376 -0.2103
 9484TIP3    H152647   2.951   6.165  10.831 -0.9205  0.3170 -0.2376
 9484TIP3    H252648   3.054   6.274  10.819 -2.6147  1.7609 -2.5926
 9485TIP3   OH252649   6.307   5.563  10.187  0.3642 -0.3018  0.3609
 9485TIP3    H152650   6.323   5.646  10.232 -0.1655 -0.3923  0.7208
 9485TIP3    H252651   6.296   5.499  10.258 -0.4103 -0.4553  0.1077
 9486TIP3   OH252652   1.144   2.374   9.937 -0.2450  0.2372  0.1919
 9486TIP3    H152653   1.169   2.457   9.977  0.6682  1.0587 -1.9223
 9486TIP3    H252654   1.200   2.309   9.979  1.6568  1.2689 -0.6574
 9487TIP3   OH252655   2.234   0.365  12.037  0.2696  0.0777  0.1674
 9487TIP3    H152656   2.257   0.273  12.022 -0.2781  0.1540 -1.3149
 9487TIP3    H252657   2.305   0.399  12.090 -0.3647 -1.6276  2.2592
 9488TIP3   OH252658   1.270   4.666   9.262 -0.3908 -0.0921 -0.6973
 9488TIP3    H152659   1.308   4.595   9.314 -2.4248 -0.1992  0.7687
 9488TIP3    H252660   1.336   4.734   9.263  0.9574 -1.3524 -0.7795
 9489TIP3   OH252661   1.233   3.295   8.952 -0.1630 -0.2637  0.2807
 9489TIP3    H152662   1.222   3.359   9.022  0.3262  0.9441 -0.6883
 9489TIP3    H252663   1.312   3.247   8.975 -0.2254 -0.1383  0.7597
 9490TIP3   OH252664   3.759   5.520  10.233 -0.2844  0.4325  0.1992
 9490TIP3    H152665   3.850   5.534  10.206 -0.3805 -1.8606 -1.5568
 9490TIP3    H252666   3.720   5.607  10.227  1.4216  1.2061 -0.5159
 9491TIP3   OH252667   0.272   3.359  12.382  0.4372 -0.1275 -0.2121
 9491TIP3    H152668   0.243   3.268  12.381 -0.2607  0.0831  0.3489
 9491TIP3    H252669   0.361   3.355  12.417  0.4490 -0.6063 -0.2950
 9492TIP3   OH252670   3.427   0.872  12.228 -0.3505  0.1055  0.2442
 9492TIP3    H152671   3.372   0.908  12.158 -0.5980  0.0222  0.3960
 9492TIP3    H252672   3.510   0.918  12.218  0.7983 -2.2055 -2.2129
 9493TIP3   OH252673   3.310   1.634   9.317  0.1889  0.6356  0.1635
 9493TIP3    H152674   3.404   1.619   9.319 -0.1104 -1.8151 -0.6988
 9493TIP3    H252675   3.285   1.617   9.226 -0.8975  2.9262 -0.0487
 9494TIP3   OH252676   4.443   1.221   9.722 -0.1776  0.2264  0.0939
 9494TIP3    H152677   4.447   1.213   9.626  1.1902 -1.4226  0.2442
 9494TIP3    H252678   4.533   1.238   9.749 -0.5602  0.7459  1.0949
 9495TIP3   OH252679   2.499   4.064  10.185 -0.3113 -0.4194  0.7059
 9495TIP3    H152680   2.518   4.115  10.106  0.6588  0.6951  1.6154
 9495TIP3    H252681   2.446   3.991  10.154  1.2075 -0.8019 -1.2067
 9496TIP3   OH252682   3.775   3.597  11.847  0.8062 -0.0948  0.2475
 9496TIP3    H152683   3.706   3.660  11.825 -0.3625 -1.4702 -0.1171
 9496TIP3    H252684   3.789   3.608  11.941  1.0763  1.1292  0.0875
 9497TIP3   OH252685   4.088   1.500  10.511  0.3247  0.0822  0.2184
 9497TIP3    H152686   4.026   1.471  10.444 -0.4547 -0.6776  1.2299
 9497TIP3    H252687   4.070   1.594  10.521  0.4205  0.1934 -0.5834
 9498TIP3   OH252688   3.268   4.130  10.867 -0.2425  0.1269  0.5711
 9498TIP3    H152689   3.188   4.177  10.844  0.9877  0.7775 -2.8794
 9498TIP3    H252690   3.237   4.047  10.903 -2.4517  0.8166  0.4218
 9499TIP3   OH252691   4.546   1.377  12.407 -0.3748 -0.1691  0.1574
 9499TIP3    H152692   4.524   1.293  12.448 -2.8637 -0.8980 -2.3935
 9499TIP3    H252693   4.554   1.438  12.481  0.9487 -2.4544  2.0426
 9500TIP3   OH252694   6.349   5.669  11.076  0.1567  0.3988 -0.2846
 9500TIP3    H152695   6.394   5.696  11.155 -0.7019 -0.8923  0.6839
 9500TIP3    H252696   6.376   5.578  11.061 -0.4168  0.3141 -0.9143
 9501TIP3   OH252697   2.754   2.477  12.322 -0.5459  0.3333 -0.0037
 9501TIP3    H152698   2.799   2.522  12.393  1.3171 -1.4114  0.0009
 9501TIP3    H252699   2.676   2.439  12.364  1.2121 -1.8259  1.5211
 9502TIP3   OH252700   6.646   0.318   9.465  0.0943  0.3406  0.2118
 9502TIP3    H152701   6.652   0.311   9.560  2.2697 -0.3968  0.0778
 9502TIP3    H252702   6.580   0.253   9.440  1.5007 -1.4542  1.0323
 9503TIP3   OH252703   6.506   5.768   9.720 -0.6067 -0.4015  0.8657
 9503TIP3    H152704   6.510   5.855   9.760  0.0514  0.6835 -1.3812
 9503TIP3    H252705   6.464   5.713   9.786 -1.6505  1.7662  2.1144
 9504TIP3   OH252706   1.187   2.301   9.676  0.0320 -0.2639 -0.2281
 9504TIP3    H152707   1.161   2.333   9.762 -0.7469 -0.1835 -0.4889
 9504TIP3    H252708   1.271   2.343   9.659 -0.3980  0.6869 -0.0409
 9505TIP3   OH252709   0.534   0.525  11.432 -0.6675  0.1840  0.2489
 9505TIP3    H152710   0.588   0.506  11.355 -0.9741 -1.5835  0.4399
 9505TIP3    H252711   0.581   0.596  11.477  0.5580 -0.1123 -0.5191
 9506TIP3   OH252712   1.107   5.178  12.776  0.5555 -0.1469  0.3951
 9506TIP3    H152713   1.156   5.232  12.713  1.2405 -0.1193  0.9388
 9506TIP3    H252714   1.068   5.241  12.836 -2.4546  0.0459 -1.5589
 9507TIP3   OH252715   3.775   3.044   9.942 -0.1803  0.3586  0.1110
 9507TIP3    H152716   3.779   2.954   9.912 -0.4572  0.4192 -0.1112
 9507TIP3    H252717   3.865   3.066   9.966 -0.3827 -0.5845  1.9366
 9508TIP3   OH252718   2.821   0.540  11.003  0.4913  0.0576 -0.2039
 9508TIP3    H152719   2.834   0.495  11.086 -2.9027 -1.0291 -0.0929
 9508TIP3    H252720   2.880   0.496  10.942  0.3908 -1.6287  0.8589
 9509TIP3   OH252721   6.720   6.391  10.128 -0.6332 -0.2184 -0.4432
 9509TIP3    H152722   6.704   6.474  10.171 -1.9608  0.2365 -1.7063
 9509TIP3    H252723   6.753   6.333  10.197 -0.9254  0.9776  0.7307
 9510TIP3   OH252724   3.238   6.690  10.814 -0.0782 -0.9929  0.3383
 9510TIP3    H152725   3.252   6.784  10.826 -0.3253 -1.0130  0.8307
 9510TIP3    H252726   3.248   6.676  10.720  0.1497 -0.5052  0.2855
 9511TIP3   OH252727   0.608   3.545  11.696  0.1485 -0.3439  0.4049
 9511TIP3    H152728   0.665   3.550  11.619  0.8430 -0.4008  0.9034
 9511TIP3    H252729   0.636   3.465  11.741 -0.5613 -0.5575  0.4777
 9512TIP3   OH252730   4.306   1.340  11.795 -0.2734  0.0274  0.7409
 9512TIP3    H152731   4.249   1.325  11.719 -0.9045  0.6654  1.0732
 9512TIP3    H252732   4.328   1.433  11.789  0.2181 -0.0742  0.9738
 9513TIP3   OH252733   0.664   0.498  13.040  0.0525 -0.0226 -0.5051
 9513TIP3    H152734   0.716   0.499  13.121 -1.0327 -3.0362  0.3578
 9513TIP3    H252735   0.714   0.445  12.979  0.1657  1.0224 -1.3593
 9514TIP3   OH252736   2.615   4.784  11.667 -0.1201 -0.1361  0.0906
 9514TIP3    H152737   2.652   4.860  11.712  0.1626 -0.7260  0.8745
 9514TIP3    H252738   2.566   4.738  11.735  3.2199 -3.0129  0.8161
 9515TIP3   OH252739   1.137   1.580  11.781 -0.0720 -0.7391  0.3978
 9515TIP3    H152740   1.206   1.647  11.786 -0.3908 -0.4099  0.3925
 9515TIP3    H252741   1.161   1.527  11.704 -0.8428  0.5307 -0.7743
 9516TIP3   OH252742   4.985   4.505   9.401 -0.5149 -0.3100  0.7468
 9516TIP3    H152743   4.963   4.414   9.379  0.0687 -0.1284 -0.6978
 9516TIP3    H252744   4.969   4.553   9.320 -1.3142  0.9914  1.6374
 9517TIP3   OH252745   3.370   2.164   9.466 -0.1053  0.0317  0.2459
 9517TIP3    H152746   3.457   2.165   9.425 -0.5671  0.3988 -0.7602
 9517TIP3    H252747   3.327   2.087   9.428 -0.6941  0.6212 -0.2958
 9518TIP3   OH252748   1.312   5.300  11.416  0.2510  0.7080  0.0423
 9518TIP3    H152749   1.217   5.288  11.410  0.2627  1.0892 -1.5725
 9518TIP3    H252750   1.348   5.213  11.400  0.1785  0.5680  0.6275
 9519TIP3   OH252751   6.583   0.844   9.840  0.0495 -0.1013  0.0313
 9519TIP3    H152752   6.619   0.758   9.817  0.2259 -0.2639  0.8846
 9519TIP3    H252753   6.568   0.887   9.756  1.7459 -0.2464 -0.3902
 9520TIP3   OH252754   1.117   4.925  12.324  0.3470 -0.0931 -0.5879
 9520TIP3    H152755   1.170   5.001  12.298 -0.3464  0.3061 -0.8649
 9520TIP3    H252756   1.127   4.920  12.419 -0.0093  0.6560 -0.5052
 9521TIP3   OH252757   6.493   6.112  11.069 -0.4043 -0.1765 -0.1881
 9521TIP3    H152758   6.454   6.137  11.152  0.6914 -2.0320  0.9554
 9521TIP3    H252759   6.424   6.062  11.024  0.1722 -2.5158  1.3540
 9522TIP3   OH252760   0.341   0.413  10.535 -0.2718 -0.1072  0.2824
 9522TIP3    H152761   0.324   0.319  10.521  3.7874 -0.5347 -4.6744
 9522TIP3    H252762   0.267   0.457  10.493 -0.0691 -1.3156 -1.4818
 9523TIP3   OH252763   3.712   4.283  10.286 -0.0070 -0.1500 -0.1659
 9523TIP3    H152764   3.747   4.352  10.341  0.4807  0.3855 -1.1253
 9523TIP3    H252765   3.636   4.250  10.334  0.4125  0.2916  0.8172
 9524TIP3   OH252766   4.111   1.266  11.597  0.2492 -0.4938  0.0205
 9524TIP3    H152767   4.087   1.175  11.617 -2.5140  0.1351  0.0996
 9524TIP3    H252768   4.046   1.294  11.532  1.1682  1.3581 -0.1592
 9525TIP3   OH252769   3.638   0.663   9.524  0.3033 -0.4277  0.1579
 9525TIP3    H152770   3.602   0.695   9.606  0.6818 -0.0645  0.1831
 9525TIP3    H252771   3.594   0.715   9.456  0.2017 -0.5305  0.1443
 9526TIP3   OH252772   3.683   0.389  11.196  0.4375  0.0881 -0.8540
 9526TIP3    H152773   3.642   0.456  11.251  0.6833 -1.3595  1.2140
 9526TIP3    H252774   3.770   0.425  11.176  0.3976  0.5880 -0.1661
 9527TIP3   OH252775   2.642   3.567  11.285 -0.1500 -0.4924 -0.2400
 9527TIP3    H152776   2.673   3.522  11.207  1.3738 -0.3659  0.2553
 9527TIP3    H252777   2.655   3.660  11.266 -1.0070 -0.3858 -0.3291
 9528TIP3   OH252778   5.837   3.334  10.376  0.0617 -0.3467 -0.3572
 9528TIP3    H152779   5.915   3.342  10.322 -0.3640 -0.5170 -1.0101
 9528TIP3    H252780   5.870   3.303  10.461  0.6713 -0.6988 -0.7125
 9529TIP3   OH252781   1.157   5.932   9.208 -0.3366 -0.2379 -0.0889
 9529TIP3    H152782   1.225   5.984   9.250 -0.8254 -0.3780  0.9134
 9529TIP3    H252783   1.204   5.866   9.157  0.3355  1.9763 -2.5421
 9530TIP3   OH252784   2.237   5.357   9.244 -0.2929 -0.2419  0.1682
 9530TIP3    H152785   2.279   5.271   9.248  0.6775  0.2758  1.9211
 9530TIP3    H252786   2.189   5.364   9.326  0.5632  1.3327  0.5624
 9531TIP3   OH252787   6.331   3.513  12.249 -0.1488 -0.0335  0.1463
 9531TIP3    H152788   6.358   3.597  12.285  0.3803  0.6551 -1.7398
 9531TIP3    H252789   6.340   3.452  12.322  1.2306  1.2027  1.0808
 9532TIP3   OH252790   1.735   1.188  10.337  0.2374  0.0156  0.2814
 9532TIP3    H152791   1.671   1.245  10.379 -1.4490 -2.3690  1.1831
 9532TIP3    H252792   1.815   1.201  10.387  0.2010  2.1886 -0.1148
 9533TIP3   OH252793   5.528   4.729  11.214  0.0367  0.5760 -0.4559
 9533TIP3    H152794   5.511   4.770  11.129  0.4474 -0.6532 -1.1583
 9533TIP3    H252795   5.593   4.661  11.195  0.9506  0.9900  1.0374
 9534TIP3   OH252796   0.064   6.089   9.897 -0.1742 -0.2150  0.6200
 9534TIP3    H152797   0.151   6.126   9.880 -0.7077  0.7388 -0.0921
 9534TIP3    H252798   0.063   6.008   9.846 -0.4060  0.7745 -1.0224
 9535TIP3   OH252799   3.277   3.811  11.889 -0.1133 -0.0239 -0.5650
 9535TIP3    H152800   3.207   3.875  11.904  1.1446  1.0150  1.4082
 9535TIP3    H252801   3.295   3.817  11.796 -2.3468 -0.0214 -1.0438
 9536TIP3   OH252802   1.677   2.472  10.722  0.6349 -0.1028  0.3499
 9536TIP3    H152803   1.616   2.403  10.696 -0.0603  0.7828 -0.4480
 9536TIP3    H252804   1.764   2.435  10.706  0.2781  0.0769 -2.5802
 9537TIP3   OH252805   0.974   1.160   9.496  0.0420  0.6123 -0.3336
 9537TIP3    H152806   1.019   1.206   9.425 -1.2145  2.2528 -0.1363
 9537TIP3    H252807   0.883   1.154   9.466 -0.0298 -0.8938  0.0985
 9538TIP3   OH252808   0.972   2.572   9.407  0.1777  0.0340  0.1618
 9538TIP3    H152809   0.964   2.633   9.480  0.3963  0.3403 -0.0687
 9538TIP3    H252810   1.063   2.544   9.408 -0.1102 -0.9373  0.7760
 9539TIP3   OH252811   2.342   0.868  12.672  0.5313  0.1457  0.5586
 9539TIP3    H152812   2.307   0.950  12.705 -0.3705 -0.1542  0.3864
 9539TIP3    H252813   2.401   0.893  12.601 -1.1737  0.5865 -0.7831
 9540TIP3   OH252814   0.732   6.562   9.657  0.3022  0.2279  0.0122
 9540TIP3    H152815   0.824   6.544   9.640  0.0591 -0.0691 -1.0737
 9540TIP3    H252816   0.691   6.476   9.662  0.1162  0.3471  0.7844
 9541TIP3   OH252817   1.156   5.402   9.685  0.1426 -0.2460  0.0425
 9541TIP3    H152818   1.073   5.433   9.723 -0.2002 -0.4152 -0.5532
 9541TIP3    H252819   1.173   5.461   9.612  0.1857 -0.6253 -0.2611
 9542TIP3   OH252820   1.754   3.888  12.129  0.1742 -0.0005 -0.0172
 9542TIP3    H152821   1.759   3.983  12.123 -2.5350  0.5073  3.2510
 9542TIP3    H252822   1.678   3.865  12.075  1.9604 -0.6909 -2.4215
 9543TIP3   OH252823   0.533   2.037  12.667 -0.0838  0.0379 -0.7160
 9543TIP3    H152824   0.526   1.955  12.716  0.0260  0.0950 -0.6061
 9543TIP3    H252825   0.567   2.010  12.581  2.0481  0.2152  0.0242
 9544TIP3   OH252826   2.891   1.467   9.858 -0.0792 -0.1184  0.4759
 9544TIP3    H152827   2.811   1.417   9.844  0.4498 -0.7083 -0.4915
 9544TIP3    H252828   2.859   1.553   9.887 -1.0509 -0.3869  0.2624
 9545TIP3   OH252829   4.636   1.914  11.005 -0.3188 -0.2134 -0.2355
 9545TIP3    H152830   4.574   1.984  11.025  1.0051  0.8165  0.3908
 9545TIP3    H252831   4.662   1.880  11.090 -0.5420 -1.1451 -0.5201
 9546TIP3   OH252832   3.442   2.149   9.798 -0.1472  0.1567 -0.2999
 9546TIP3    H152833   3.479   2.062   9.813 -0.5707  0.0150 -0.0578
 9546TIP3    H252834   3.413   2.147   9.707  0.6765  0.3605 -0.5739
 9547TIP3   OH252835   0.121   1.761  10.232 -0.1047  0.1031 -0.0692
 9547TIP3    H152836   0.124   1.721  10.145  1.4535 -2.0754  0.8667
 9547TIP3    H252837   0.118   1.855  10.216 -1.5249 -0.2689 -2.4539
 9548TIP3   OH252838   1.521   5.138   9.784 -0.1066 -0.4831 -0.0741
 9548TIP3    H152839   1.611   5.136   9.817 -1.1702 -1.9887  3.1903
 9548TIP3    H252840   1.500   5.231   9.776  1.3249 -0.0987  0.3838
 9549TIP3   OH252841   6.018   2.607  11.787  0.1056  0.0647  0.3240
 9549TIP3    H152842   6.100   2.562  11.770 -0.0346 -0.2013  0.3379
 9549TIP3    H252843   6.037   2.666  11.860  0.6932  1.1521 -0.6733
 9550TIP3   OH252844   0.918   1.245  12.376 -0.7147  0.3293 -0.3341
 9550TIP3    H152845   0.831   1.207  12.391  0.0653 -1.4855 -0.1616
 9550TIP3    H252846   0.936   1.296  12.456 -1.9123  1.3927 -0.7030
 9551TIP3   OH252847   1.105   5.730   9.966  0.1201 -0.4294  0.0781
 9551TIP3    H152848   1.014   5.746   9.943  0.2382  0.1342 -0.0136
 9551TIP3    H252849   1.130   5.804  10.021  1.3825  1.0936 -2.3365
 9552TIP3   OH252850   2.194   5.707   9.725  0.2920  0.1354 -0.2494
 9552TIP3    H152851   2.248   5.656   9.785  1.1501  1.9667  0.6032
 9552TIP3    H252852   2.105   5.676   9.741  0.6643 -0.3757  0.9801
 9553TIP3   OH252853   6.230   3.902   8.937  0.0781 -0.2247  0.1574
 9553TIP3    H152854   6.207   3.879   8.847 -0.0305 -0.4191  0.2348
 9553TIP3    H252855   6.325   3.885   8.942  0.3734  1.1515 -0.3337
 9554TIP3   OH252856   5.529   1.578  10.216  1.1514  0.0631 -0.2552
 9554TIP3    H152857   5.565   1.494  10.188  0.2071 -0.3131 -0.3698
 9554TIP3    H252858   5.577   1.643  10.163  1.4660 -0.4367 -0.5906
 9555TIP3   OH252859   0.430   4.717  10.218  0.0462  0.2301  0.1900
 9555TIP3    H152860   0.377   4.796  10.208 -1.7351 -0.7906  1.0329
 9555TIP3    H252861   0.500   4.726  10.153 -0.8337  1.8962 -0.5843
 9556TIP3   OH252862   4.390   6.495  10.169 -0.0348  0.2433  0.1443
 9556TIP3    H152863   4.425   6.485  10.257 -0.6867  2.1127  0.6611
 9556TIP3    H252864   4.438   6.570  10.132 -0.4814  0.1257 -0.7123
 9557TIP3   OH252865   4.049   5.266  11.816 -0.0206 -0.3780  0.5289
 9557TIP3    H152866   4.061   5.268  11.721  1.1886 -1.4681  0.6292
 9557TIP3    H252867   4.003   5.184  11.834 -1.1717  0.3017  0.8248
 9558TIP3   OH252868   5.132   4.244  11.294 -0.0624 -0.1967 -0.4555
 9558TIP3    H152869   5.131   4.330  11.337  1.3563 -0.6684  0.6129
 9558TIP3    H252870   5.054   4.200  11.326  1.8753 -1.2906  3.4637
 9559TIP3   OH252871   4.842   0.001  11.898  0.3529  0.4107 -0.1263
 9559TIP3    H152872   4.751   0.001  11.871  0.4811  1.4224 -0.6195
 9559TIP3    H252873   4.839   0.025  11.991  0.0748 -0.4309  0.0916
 9560TIP3   OH252874   3.098   4.013  11.046 -0.3902 -0.4520  0.4101
 9560TIP3    H152875   3.052   3.939  11.006 -0.7810 -0.2995  0.5841
 9560TIP3    H252876   3.135   3.977  11.127  0.6172 -0.8308 -0.1887
 9561TIP3   OH252877   2.853   1.269  10.931 -0.0442 -0.1344 -0.6837
 9561TIP3    H152878   2.912   1.344  10.947 -0.5111  0.4519 -1.5842
 9561TIP3    H252879   2.854   1.259  10.836  0.2591 -1.5018 -0.5565
 9562TIP3   OH252880   0.173   6.710  11.490  0.2289  0.5801 -0.2782
 9562TIP3    H152881   0.243   6.645  11.492  0.7094  1.1031  0.2178
 9562TIP3    H252882   0.213   6.787  11.448 -0.4703  0.4059 -1.2880
 9563TIP3   OH252883   6.446   5.420   9.822 -0.0437  0.5167 -0.6490
 9563TIP3    H152884   6.363   5.391   9.785 -0.4718  0.2846  0.4838
 9563TIP3    H252885   6.424   5.494   9.878  0.3159 -0.3700  0.7106
 9564TIP3   OH252886   1.239   4.559  10.326  0.4626  0.1825  0.0792
 9564TIP3    H152887   1.244   4.613  10.248 -1.5960 -0.9491 -0.9019
 9564TIP3    H252888   1.152   4.574  10.362 -0.2525 -2.5009 -0.3076
 9565TIP3   OH252889   3.536   0.282   9.276  0.1642  0.4855 -0.4791
 9565TIP3    H152890   3.478   0.323   9.212 -1.6054 -0.6743  0.3187
 9565TIP3    H252891   3.516   0.325   9.359  0.1686 -0.1735 -0.1253
 9566TIP3   OH252892   0.102   4.500  10.034  0.5069  0.5151  0.0019
 9566TIP3    H152893   0.161   4.446   9.981  0.0782  0.5820 -0.5537
 9566TIP3    H252894   0.021   4.450  10.038 -0.1473  1.4551 -1.1567
 9567TIP3   OH252895   0.842   0.473  12.433 -0.0271  0.2722  0.0588
 9567TIP3    H152896   0.869   0.428  12.513  0.9413  0.4977 -0.1190
 9567TIP3    H252897   0.906   0.544  12.424 -2.7196  3.1134  1.5280
 9568TIP3   OH252898   4.729   4.340  10.765 -0.1966  0.0959 -0.1489
 9568TIP3    H152899   4.726   4.379  10.678 -0.2011  0.2821 -0.0657
 9568TIP3    H252900   4.793   4.269  10.757  0.2027  0.4522 -0.1688
 9569TIP3   OH252901   1.180   5.797   9.682 -0.1596  0.0894  0.1344
 9569TIP3    H152902   1.189   5.892   9.684  2.1879 -0.0070 -1.7373
 9569TIP3    H252903   1.195   5.770   9.773  2.2790  1.3677  0.1986
 9570TIP3   OH252904   4.741   5.301  11.594 -0.3245  0.4926  0.1380
 9570TIP3    H152905   4.766   5.369  11.532  1.0626 -0.6401 -0.5923
 9570TIP3    H252906   4.719   5.349  11.674 -0.1079  1.8445 -0.5831
 9571TIP3   OH252907   3.391   3.150  10.322  0.3841 -0.2344  0.2834
 9571TIP3    H152908   3.338   3.226  10.299 -0.2554 -0.6374  0.3866
 9571TIP3    H252909   3.452   3.182  10.388 -0.8625 -0.1319  1.4255
 9572TIP3   OH252910   1.179   2.168  12.360  0.4758 -0.2590  0.0826
 9572TIP3    H152911   1.200   2.186  12.269  0.7385  0.6084  0.3061
 9572TIP3    H252912   1.175   2.073  12.366 -4.5719 -0.4699 -2.0041
 9573TIP3   OH252913   3.149   4.754   9.983 -0.3382  0.1833 -0.6811
 9573TIP3    H152914   3.218   4.726  10.043  0.5398  1.2254 -1.1668
 9573TIP3    H252915   3.170   4.845   9.964 -2.4851  0.8776  0.0109
 9574TIP3   OH252916   1.188   2.884  12.264 -0.2658 -0.4067  0.7588
 9574TIP3    H152917   1.093   2.898  12.259 -0.1440  0.6244  1.3055
 9574TIP3    H252918   1.207   2.828  12.188 -1.0128  1.0477 -0.5543
 9575TIP3   OH252919   4.878   0.035  10.341  0.1701  0.1124  0.1048
 9575TIP3    H152920   4.833  -0.032  10.289 -0.6163 -0.4559  1.4743
 9575TIP3    H252921   4.819   0.111  10.336  0.7708  0.5333 -0.9488
 9576TIP3   OH252922   6.398   3.898  11.509 -0.2197 -0.2203 -0.6883
 9576TIP3    H152923   6.370   3.926  11.422 -0.5257 -0.6152 -0.7161
 9576TIP3    H252924   6.325   3.920  11.566  0.3000  0.8007 -0.3782
 9577TIP3   OH252925   5.033   4.433  10.925  0.3142  0.0678  0.2862
 9577TIP3    H152926   5.098   4.371  10.956  0.0540 -0.6170 -0.4841
 9577TIP3    H252927   5.004   4.397  10.841 -1.0977  0.3041  0.6349
 9578TIP3   OH252928   0.586   5.805   9.736 -0.1612 -0.4403 -0.1844
 9578TIP3    H152929   0.670   5.783   9.776 -0.0235 -1.5983 -1.0376
 9578TIP3    H252930   0.608   5.867   9.666 -0.5913  2.9931  2.4625
 9579TIP3   OH252931   1.193   2.159  10.384  0.0445  0.2999 -0.2157
 9579TIP3    H152932   1.135   2.084  10.394  0.7068 -0.2457 -0.3960
 9579TIP3    H252933   1.143   2.233  10.419 -0.8068 -0.1305 -0.5029
 9580TIP3   OH252934   2.602   0.262  12.079 -0.7364  0.1800 -0.4307
 9580TIP3    H152935   2.565   0.187  12.125 -1.2443 -0.2664 -1.5484
 9580TIP3    H252936   2.683   0.229  12.040  1.0734  1.1873  2.1384
 9581TIP3   OH252937   4.751   3.695  11.692 -0.0990 -0.2125 -0.1539
 9581TIP3    H152938   4.660   3.671  11.672  0.4781 -0.9279 -2.1507
 9581TIP3    H252939   4.784   3.622  11.745 -0.7263  0.1558  0.7718
 9582TIP3   OH252940   1.404   3.084  10.674  0.5477  0.4834 -0.4440
 9582TIP3    H152941   1.425   3.031  10.751  0.2154  2.5303  1.1392
 9582TIP3    H252942   1.472   3.062  10.610  0.5159 -1.6629  0.1998
 9583TIP3   OH252943   1.306   3.653  10.473 -0.0021  0.4851 -0.5163
 9583TIP3    H152944   1.383   3.700  10.506  0.7136 -0.4757 -0.7539
 9583TIP3    H252945   1.301   3.676  10.380  0.7088 -0.3603 -0.7736
 9584TIP3   OH252946   2.585   0.669  10.926 -0.2747  0.2849  0.0216
 9584TIP3    H152947   2.577   0.668  10.830  0.4299 -0.3828 -0.0407
 9584TIP3    H252948   2.666   0.622  10.944 -1.4328 -1.4306  1.0490
 9585TIP3   OH252949   6.662   3.804  12.004 -0.1113  0.0830 -0.0563
 9585TIP3    H152950   6.578   3.838  11.973  0.9348  0.8080 -2.3187
 9585TIP3    H252951   6.641   3.759  12.086 -2.5603  0.8858 -0.1621
 9586TIP3   OH252952   4.573   2.988  10.143 -0.0211  0.3957  0.1921
 9586TIP3    H152953   4.605   3.004  10.054 -0.9205  1.7510  0.0778
 9586TIP3    H252954   4.652   2.969  10.194  0.4686 -0.7238 -0.9477
 9587TIP3   OH252955   0.453   0.207  10.270  0.0030 -0.2396 -0.3355
 9587TIP3    H152956   0.357   0.206  10.261  0.0900  1.2944 -2.1142
 9587TIP3    H252957   0.484   0.213  10.179  1.8043 -0.6540  0.2271
 9588TIP3   OH252958   1.655   1.437  10.734 -0.0977 -0.4563  0.5242
 9588TIP3    H152959   1.671   1.342  10.736  0.4766 -0.3658  0.5539
 9588TIP3    H252960   1.563   1.447  10.759 -0.8892 -1.1606 -1.9109
 9589TIP3   OH252961   0.941   1.906  10.710  0.5757  0.6789 -0.4900
 9589TIP3    H152962   0.984   1.826  10.740 -0.9397 -0.2905 -0.8292
 9589TIP3    H252963   1.010   1.972  10.713  1.3796 -0.1532  1.7352
 9590TIP3   OH252964   2.858   6.668  11.252  0.0915  0.4306  0.7365
 9590TIP3    H152965   2.850   6.586  11.300 -1.3460 -0.3211 -0.7014
 9590TIP3    H252966   2.902   6.644  11.170 -1.1666  0.8768 -0.1037
 9591TIP3   OH252967   5.178   0.465  12.197 -0.6526 -0.3619 -0.1702
 9591TIP3    H152968   5.190   0.371  12.180 -0.1061 -0.2514 -0.3995
 9591TIP3    H252969   5.196   0.475  12.290  0.9057 -0.2292 -0.4641
 9592TIP3   OH252970   0.507   4.072  10.999 -0.5563 -0.1473 -0.0624
 9592TIP3    H152971   0.513   4.156  10.953 -0.3396  0.0244  0.2723
 9592TIP3    H252972   0.435   4.026  10.955 -0.2918 -0.0271 -0.6280
 9593TIP3   OH252973   1.760   4.922  11.152  0.2746  0.8808  0.2493
 9593TIP3    H152974   1.830   4.948  11.212 -0.2300  1.5252  0.5827
 9593TIP3    H252975   1.734   5.004  11.109  1.1818  0.3088 -1.4747
 9594TIP3   OH252976   3.940   4.379   9.934 -0.3779 -0.7124  0.0452
 9594TIP3    H152977   4.005   4.330   9.983 -0.3129  0.6118  1.3400
 9594TIP3    H252978   3.869   4.317   9.920  0.6986 -1.8726 -0.4967
 9595TIP3   OH252979   3.775   0.717  11.909  0.2321  0.4978  0.1699
 9595TIP3    H152980   3.748   0.753  11.993 -0.3419  1.4687 -0.4045
 9595TIP3    H252981   3.864   0.686  11.923 -0.0852  0.0700  1.2967
 9596TIP3   OH252982   2.995   2.526  10.203 -0.6565 -0.2303 -0.1858
 9596TIP3    H152983   2.973   2.585  10.275 -1.6631 -0.4325 -0.3096
 9596TIP3    H252984   3.090   2.531  10.195 -0.7347  1.4813 -0.2901
 9597TIP3   OH252985   5.777   6.712  11.109 -0.4592  0.0257  0.1347
 9597TIP3    H152986   5.775   6.654  11.185  2.4043 -0.2129  0.1405
 9597TIP3    H252987   5.807   6.796  11.144 -1.4561  0.6217 -0.3867
 9598TIP3   OH252988   4.500   6.385  12.004 -0.1915  0.0665 -0.0729
 9598TIP3    H152989   4.494   6.391  12.099  0.0523 -1.5446  0.0656
 9598TIP3    H252990   4.582   6.339  11.987 -0.7771 -0.6849 -1.0042
 9599TIP3   OH252991   0.860   4.223  10.458  0.0661  0.5184 -0.5879
 9599TIP3    H152992   0.781   4.233  10.511  0.2533 -0.6148 -0.0735
 9599TIP3    H252993   0.911   4.302  10.477 -0.7656  1.0853 -0.6478
 9600TIP3   OH252994   3.656   3.077  11.780  0.5344  0.2071  0.3313
 9600TIP3    H152995   3.680   3.169  11.793  0.2608  0.0181  2.4460
 9600TIP3    H252996   3.695   3.031  11.854 -0.4221 -1.1921  0.0083
 9601TIP3   OH252997   0.117   6.629  10.500 -0.0168 -0.1361  0.7306
 9601TIP3    H152998   0.050   6.594  10.558 -0.9334 -1.5235 -1.0690
 9601TIP3    H252999   0.070   6.688  10.441  0.8399  1.0015  1.1331
 9602TIP3   OH253000   2.755   0.158   9.991 -0.3565 -0.9964  0.5727
 9602TIP3    H153001   2.754   0.136   9.898  1.6458  1.0886 -0.0307
 9602TIP3    H253002   2.664   0.180  10.012 -0.9333 -2.0204 -0.7214
 9603TIP3   OH253003   0.056   1.493  10.526  0.1677 -0.5093  0.4231
 9603TIP3    H153004   0.015   1.411  10.555  0.8622 -0.1037  2.8374
 9603TIP3    H253005   0.144   1.468  10.499 -0.3636 -0.8489 -1.0340
 9604TIP3   OH253006   5.780   2.146  11.722 -0.0376  0.2798 -0.3566
 9604TIP3    H153007   5.833   2.223  11.700 -0.3522  0.2038 -1.4108
 9604TIP3    H253008   5.691   2.171  11.697 -0.5124  0.3795  1.3324
 9605TIP3   OH253009   4.564   0.469  11.275 -0.7167  0.4554  0.0015
 9605TIP3    H153010   4.594   0.555  11.304  2.7224 -0.8857  0.8530
 9605TIP3    H253011   4.522   0.431  11.353 -2.2715  1.2769 -0.3851
 9606TIP3   OH253012   4.657   1.630  12.364 -0.0748 -0.2342  0.5311
 9606TIP3    H153013   4.738   1.580  12.375  0.9411  0.9039 -1.1724
 9606TIP3    H253014   4.653   1.686  12.442 -0.1715 -1.5171  1.4790
 9607TIP3   OH253015   1.652   0.292  10.098  0.4008  0.2577  0.1073
 9607TIP3    H153016   1.692   0.248  10.173 -2.7527 -1.7265  0.8136
 9607TIP3    H253017   1.569   0.326  10.132  0.1516  1.7639 -1.8552
 9608TIP3   OH253018   5.981   5.863  11.668  0.1247  0.3388 -0.1323
 9608TIP3    H153019   5.929   5.935  11.705  0.5533  0.8806 -0.5635
 9608TIP3    H253020   6.049   5.847  11.733 -0.0147  0.2679 -0.0017
 9609TIP3   OH253021   5.665   4.772  12.334  0.5852  0.1387 -0.3803
 9609TIP3    H153022   5.713   4.826  12.396  1.0073 -0.4314 -0.1998
 9609TIP3    H253023   5.576   4.807  12.336  0.5730  0.0861  0.6012
 9610TIP3   OH253024   1.705   4.067  11.386  0.2019 -0.2726  0.4724
 9610TIP3    H153025   1.713   4.000  11.318 -0.7801 -0.0686  0.1319
 9610TIP3    H253026   1.622   4.048  11.429  0.1405  0.4389  0.6852
 9611TIP3   OH253027   3.972   2.668   9.956 -0.6369 -0.6542  0.1893
 9611TIP3    H153028   4.012   2.729  10.018  0.4547  0.1756 -1.2631
 9611TIP3    H253029   3.884   2.702   9.942 -0.9691 -0.9704  1.4162
 9612TIP3   OH253030   5.048   3.036  12.652 -0.1418 -0.2392  0.2895
 9612TIP3    H153031   5.009   3.112  12.695  0.6369 -0.9602  2.4078
 9612TIP3    H253032   4.975   2.974  12.644 -0.0500 -0.6301  1.9706
 9613TIP3   OH253033   0.938   3.081  11.716 -0.1751  0.4692  0.6843
 9613TIP3    H153034   0.936   3.029  11.796 -1.0245 -0.2141  0.2342
 9613TIP3    H253035   0.908   3.022  11.648 -0.4156  1.3259  0.0240
 9614TIP3   OH253036   0.313   2.383  13.032  0.0985  0.2140  0.7931
 9614TIP3    H153037   0.236   2.416  12.987 -0.0881 -1.3161 -0.0644
 9614TIP3    H253038   0.304   2.288  13.030  2.2072 -0.0380  0.2640
 9615TIP3   OH253039   1.081   3.834   9.147  0.1814  0.3805 -0.4257
 9615TIP3    H153040   1.103   3.816   9.056 -0.0518  0.6831 -0.5409
 9615TIP3    H253041   1.164   3.859   9.187  0.4192 -0.4496 -0.3809
 9616TIP3   OH253042   1.450   2.552  11.543  0.3452 -0.1967  0.3390
 9616TIP3    H153043   1.521   2.565  11.480 -0.2099  3.0027  0.1865
 9616TIP3    H253044   1.464   2.621  11.609 -1.4333 -0.8429  1.4625
 9617TIP3   OH253045   2.090   6.696  12.177 -0.4666  0.0116  0.1393
 9617TIP3    H153046   2.151   6.719  12.246  0.4571 -0.6707 -0.4295
 9617TIP3    H253047   2.044   6.619  12.209 -0.2117 -0.1572  0.1026
 9618TIP3   OH253048   0.495   1.766  12.361 -0.1172  0.2547  0.1795
 9618TIP3    H153049   0.520   1.722  12.441  0.9953 -1.7304 -1.1833
 9618TIP3    H253050   0.406   1.735  12.343  1.4661 -3.7841 -2.0686
 9619TIP3   OH253051   3.078   1.117  11.261 -0.1615 -0.0170  0.5746
 9619TIP3    H153052   3.100   1.091  11.171 -0.2119  0.4235  0.4276
 9619TIP3    H253053   3.131   1.060  11.317  0.1884 -0.0120  0.2541
 9620TIP3   OH253054   5.736   4.157  11.651  0.3789  0.2725 -0.4968
 9620TIP3    H153055   5.708   4.218  11.720  0.5895 -0.3416  0.1466
 9620TIP3    H253056   5.827   4.138  11.671  0.7044  0.7681 -1.4701
 9621TIP3   OH253057   1.783   1.152  12.126 -0.0260 -0.3559 -0.3422
 9621TIP3    H153058   1.839   1.190  12.058  2.3997  0.9686  2.2038
 9621TIP3    H253059   1.806   1.059  12.126  1.0962 -0.1034 -0.3909
 9622TIP3   OH253060   5.897   4.965   9.400  0.3198  0.1045  0.0353
 9622TIP3    H153061   5.991   4.956   9.388  0.3288 -0.3999  0.4979
 9622TIP3    H253062   5.885   4.980   9.493  0.1342  2.7074 -0.3249
 9623TIP3   OH253063   4.521   2.939  11.866  0.3635 -0.3630 -0.1921
 9623TIP3    H153064   4.474   2.901  11.940 -0.8595  0.6662 -0.3990
 9623TIP3    H253065   4.547   2.864  11.812  0.3716 -1.0548  0.7588
 9624TIP3   OH253066   3.875   2.910   9.126 -0.0535  0.2833  0.1439
 9624TIP3    H153067   3.899   2.964   9.050  3.7136 -2.4182 -0.8724
 9624TIP3    H253068   3.933   2.940   9.196  1.9643 -2.0653 -0.3827
 9625TIP3   OH253069   1.567   4.495  12.489 -0.2058  0.5163  0.2059
 9625TIP3    H153070   1.481   4.490  12.446  0.4379  0.2121 -1.0857
 9625TIP3    H253071   1.565   4.424  12.553 -0.4996 -0.2718 -0.6472
 9626TIP3   OH253072   3.362   6.737   8.989 -0.0921 -0.7021 -0.1632
 9626TIP3    H153073   3.406   6.658   8.959 -1.7723 -1.5649 -0.5256
 9626TIP3    H253074   3.389   6.747   9.081  1.0807 -0.9906 -0.4666
 9627TIP3   OH253075   4.314   3.451  11.860  0.1933 -0.2742 -0.5085
 9627TIP3    H153076   4.297   3.544  11.875 -0.6827 -0.0594 -2.5385
 9627TIP3    H253077   4.234   3.407  11.890  0.3860 -0.3258 -0.0646
 9628TIP3   OH253078   5.707   6.368  11.131 -0.0874  0.2459  0.2689
 9628TIP3    H153079   5.706   6.435  11.199 -0.6948 -0.5929  1.1147
 9628TIP3    H253080   5.692   6.286  11.178 -0.1144 -0.3988 -0.8321
 9629TIP3   OH253081   1.938   5.069  11.638 -0.2385  0.5728  0.8874
 9629TIP3    H153082   1.864   5.038  11.689 -0.5392  0.9506  0.6864
 9629TIP3    H253083   1.983   5.131  11.695 -1.9757  2.9153 -0.1151
 9630TIP3   OH253084   3.215   0.191   9.334 -0.2190  0.1021  0.6605
 9630TIP3    H153085   3.259   0.262   9.381 -0.6311  0.9279 -0.1760
 9630TIP3    H253086   3.229   0.211   9.242 -1.9082  0.1029  0.3826
 9631TIP3   OH253087   1.208   0.866  11.855 -0.7675  0.4851 -0.2926
 9631TIP3    H153088   1.256   0.947  11.845 -0.9184  0.3797 -2.1619
 9631TIP3    H253089   1.261   0.800  11.810 -1.1387 -0.2531  0.3206
 9632TIP3   OH253090   6.623   2.411  11.483  0.0426  0.3604  0.3005
 9632TIP3    H153091   6.717   2.422  11.471  0.1264 -0.6591 -0.0411
 9632TIP3    H253092   6.589   2.392  11.396 -0.4976  0.7630  0.4112
 9633TIP3   OH253093   0.016   2.882   8.907  0.0425 -0.2921 -0.2095
 9633TIP3    H153094  -0.044   2.814   8.937  0.7065 -0.9471 -0.3200
 9633TIP3    H253095   0.028   2.863   8.814  0.7983 -0.4749 -0.0824
 9634TIP3   OH253096   3.032   0.892  10.034 -0.0184  0.3603 -0.5328
 9634TIP3    H153097   2.953   0.945  10.037 -0.3464 -0.1855  1.0275
 9634TIP3    H253098   3.026   0.834  10.109  1.4419 -0.3144 -0.8915
 9635TIP3   OH253099   6.607   3.385   9.057  0.2340  0.5460  0.3768
 9635TIP3    H153100   6.583   3.463   9.006 -0.8166  1.9047  2.7500
 9635TIP3    H253101   6.703   3.386   9.059  0.3985 -0.3027 -2.5064
 9636TIP3   OH253102   1.251   3.122  11.935  0.4488  0.5697  0.4413
 9636TIP3    H153103   1.220   3.067  12.008  0.8252 -0.4454 -0.1428
 9636TIP3    H253104   1.280   3.203  11.977  1.4667 -0.3154  1.5473
 9637TIP3   OH253105   1.996   1.244  10.725 -0.2724  0.2202  0.1837
 9637TIP3    H153106   2.029   1.323  10.766  0.8392  0.1514 -0.5401
 9637TIP3    H253107   2.072   1.186  10.720 -1.0453 -0.8585  0.6193
 9638TIP3   OH253108   3.112   0.967  11.006  0.1131  0.4994 -0.0152
 9638TIP3    H153109   3.192   0.916  11.019 -0.6506 -0.8634 -0.5016
 9638TIP3    H253110   3.041   0.904  11.016 -0.8839  1.5066 -0.4656
 9639TIP3   OH253111   3.205   5.412  10.302 -0.2320  0.0790 -0.2236
 9639TIP3    H153112   3.136   5.352  10.275 -0.8539  1.1312 -1.0703
 9639TIP3    H253113   3.285   5.375  10.265 -0.1902 -1.5132  1.3367
 9640TIP3   OH253114   6.590   5.289  10.349  0.3509  0.1087  1.0311
 9640TIP3    H153115   6.582   5.364  10.408  0.1414  0.6858  0.2936
 9640TIP3    H253116   6.557   5.322  10.265 -3.0181 -1.7227  1.4324
 9641TIP3   OH253117   2.151   4.980  11.949 -0.0443  0.4819  0.0617
 9641TIP3    H153118   2.242   5.008  11.947  0.2973 -0.5712  0.3575
 9641TIP3    H253119   2.104   5.048  11.900  1.0409  0.4953 -1.0194
 9642TIP3   OH253120   0.428   5.769   9.410 -0.1675  0.2130 -0.0251
 9642TIP3    H153121   0.372   5.691   9.405 -1.1089  0.9143 -0.9158
 9642TIP3    H253122   0.401   5.813   9.490 -0.1986  0.0364  0.0626
 9643TIP3   OH253123   0.595   2.564  11.411 -0.0135 -0.6972 -0.0854
 9643TIP3    H153124   0.582   2.652  11.376  0.6536 -0.1999  0.8852
 9643TIP3    H253125   0.646   2.519  11.343 -0.0944 -0.2411 -0.4518
 9644TIP3   OH253126   5.077   3.736  11.252 -0.3453  0.0011  0.0148
 9644TIP3    H153127   4.999   3.773  11.294 -0.9754 -0.0976 -1.0233
 9644TIP3    H253128   5.139   3.809  11.248  0.6477 -0.5537  3.1537
 9645TIP3   OH253129   4.619   6.163  10.717 -0.0240 -0.9838 -0.5091
 9645TIP3    H153130   4.576   6.247  10.734  1.7161 -0.2020  0.2985
 9645TIP3    H253131   4.556   6.097  10.744 -1.4297  0.0447 -1.1428
 9646TIP3   OH253132   2.609   5.717   9.854  0.2032 -0.0268  0.5913
 9646TIP3    H153133   2.622   5.804   9.891  0.3448  1.7957 -3.2695
 9646TIP3    H253134   2.513   5.706   9.852  0.0860  1.0177 -0.7904
 9647TIP3   OH253135   4.280   1.316  10.490 -0.8930 -0.0890 -0.7406
 9647TIP3    H153136   4.246   1.403  10.469 -1.3034 -0.3239 -1.0682
 9647TIP3    H253137   4.202   1.261  10.497 -0.5538 -0.9524 -2.8987
 9648TIP3   OH253138   4.391   5.045  11.543  0.3286 -0.0615  0.1014
 9648TIP3    H153139   4.378   5.038  11.637 -1.3658  0.0839 -0.0994
 9648TIP3    H253140   4.387   5.139  11.525 -1.3440 -0.2036 -0.3556
 9649TIP3   OH253141   3.372   4.691  10.128 -0.6468 -0.6115 -0.5243
 9649TIP3    H153142   3.403   4.613  10.083  0.6838 -0.0791 -0.5590
 9649TIP3    H253143   3.448   4.724  10.176 -1.5173 -0.0557  0.5347
 9650TIP3   OH253144   3.699   6.336  10.843 -0.1486 -0.0457 -0.0140
 9650TIP3    H153145   3.657   6.292  10.917  0.1450  0.2748  0.3499
 9650TIP3    H253146   3.628   6.353  10.781 -0.4683  0.0456  0.3719
 9651TIP3   OH253147   1.313   6.444   9.511  0.0178 -0.1863  0.7352
 9651TIP3    H153148   1.369   6.390   9.456  1.2182  1.6221  0.1205
 9651TIP3    H253149   1.373   6.490   9.569 -0.6771  2.4439 -0.5039
 9652TIP3   OH253150   3.580   2.133  12.580  0.3191 -0.0231  0.3394
 9652TIP3    H153151   3.539   2.127  12.667  0.0446  0.1900  0.2291
 9652TIP3    H253152   3.530   2.202  12.536  1.6346  1.1854  0.6569
 9653TIP3   OH253153   2.575   5.219   9.685  0.0001 -0.0914  0.7159
 9653TIP3    H153154   2.521   5.286   9.643 -0.0257 -0.8175 -0.4669
 9653TIP3    H253155   2.579   5.245   9.777 -2.6966 -0.1970  0.9448
 9654TIP3   OH253156   1.615   0.324  11.466  0.1275 -0.0826 -0.0110
 9654TIP3    H153157   1.700   0.336  11.424  0.6017  2.8021  1.5003
 9654TIP3    H253158   1.617   0.383  11.542 -3.8405  1.5557 -0.8930
 9655TIP3   OH253159   0.644   6.495  11.479 -0.3289  0.1984  0.1894
 9655TIP3    H153160   0.694   6.494  11.397  1.5952  2.3867  1.2459
 9655TIP3    H253161   0.649   6.585  11.510  0.7757 -0.9024  3.7285
 9656TIP3   OH253162   2.803   3.566   9.216  0.2126  0.4529 -0.0951
 9656TIP3    H153163   2.711   3.574   9.194  0.1524 -2.7417 -1.5438
 9656TIP3    H253164   2.809   3.485   9.268  2.5147 -1.6707 -3.2998
 9657TIP3   OH253165   5.636   4.279  10.611  0.4916  0.0133  0.1269
 9657TIP3    H153166   5.540   4.284  10.604  0.4733  0.0603  0.4059
 9657TIP3    H253167   5.652   4.202  10.665  0.5659  0.7262  1.1596
 9658TIP3   OH253168   0.784   5.506   9.444 -0.1897  0.1675 -0.0023
 9658TIP3    H153169   0.688   5.504   9.443 -0.2963  0.8887 -3.6013
 9658TIP3    H253170   0.808   5.447   9.515 -3.3281 -2.3049 -0.7471
 9659TIP3   OH253171   4.492   1.959   9.388 -0.0273 -0.1236 -0.0007
 9659TIP3    H153172   4.563   2.022   9.403  1.1566 -1.1260 -1.1835
 9659TIP3    H253173   4.521   1.879   9.430 -0.7565 -0.3735  0.0446
 9660TIP3   OH253174   5.882   6.616   9.890  0.3530  0.4367 -0.2662
 9660TIP3    H153175   5.977   6.629   9.880  0.6329 -1.1041  0.0369
 9660TIP3    H253176   5.847   6.629   9.802  0.9322  0.4521 -0.5021
 9661TIP3   OH253177   4.410   2.747   8.916 -0.0788  0.8573 -0.1725
 9661TIP3    H153178   4.427   2.684   8.846 -1.4982  0.1358  0.0892
 9661TIP3    H253179   4.372   2.695   8.986  0.1501  1.7758  0.6513
 9662TIP3   OH253180   1.224   3.847  11.840  0.4243  0.3938  0.2567
 9662TIP3    H153181   1.291   3.782  11.817  0.0734  0.1773 -0.1555
 9662TIP3    H253182   1.250   3.925  11.791 -0.1545  0.0228 -0.6710
 9663TIP3   OH253183   0.794   1.050  11.454  0.1425  0.1822 -0.4483
 9663TIP3    H153184   0.710   1.043  11.408  0.5645  1.5295 -1.4761
 9663TIP3    H253185   0.859   1.061  11.385  0.9265  1.1616  0.4116
 9664TIP3   OH253186   1.561   2.952  10.506 -0.5133 -0.3130 -0.1427
 9664TIP3    H153187   1.620   2.897  10.558 -0.3384 -1.2288 -1.2479
 9664TIP3    H253188   1.593   2.941  10.416 -2.0922 -0.4684 -0.7132
 9665TIP3   OH253189   0.711   0.313  12.241  0.4240  0.3851 -0.0461
 9665TIP3    H153190   0.764   0.366  12.302  0.6149  0.8041 -0.5694
 9665TIP3    H253191   0.704   0.367  12.162  1.9756 -1.0330 -1.2175
 9666TIP3   OH253192   6.598   4.883  11.993  0.1462 -0.0657 -0.1625
 9666TIP3    H153193   6.601   4.954  12.057 -1.9643 -0.3003  0.2746
 9666TIP3    H253194   6.588   4.804  12.045 -0.7896 -0.3339 -0.7214
 9667TIP3   OH253195   0.769   0.425  10.835 -0.0200 -0.3277  0.2650
 9667TIP3    H153196   0.730   0.497  10.884 -0.7265 -1.2145  1.0410
 9667TIP3    H253197   0.725   0.427  10.750  0.9994  1.0329 -0.2774
 9668TIP3   OH253198   6.066   4.882  11.126  0.5261  0.1268 -0.1693
 9668TIP3    H153199   5.975   4.861  11.105  0.2082  0.9353  0.3423
 9668TIP3    H253200   6.060   4.961  11.179  1.4362 -0.6187  1.0862
 9669TIP3   OH253201   4.869   3.589   9.880  0.0436 -0.1833 -0.2464
 9669TIP3    H153202   4.894   3.639   9.802  0.2739 -0.5326 -0.3978
 9669TIP3    H253203   4.876   3.652   9.951  0.9313 -0.1520 -0.3484
 9670TIP3   OH253204   4.729   1.271  11.032 -0.3954  0.0280 -0.7089
 9670TIP3    H153205   4.725   1.190  11.082  1.2147  0.1556 -0.3057
 9670TIP3    H253206   4.661   1.327  11.070 -1.3543 -1.0260 -0.8362
 9671TIP3   OH253207   4.982   1.314  10.925  0.1522  0.1397 -0.0480
 9671TIP3    H153208   4.898   1.307  10.970  0.3086  0.7977  0.3600
 9671TIP3    H253209   4.963   1.363  10.844 -0.3028 -1.8371 -1.2000
 9672TIP3   OH253210   1.317   1.853   9.611 -0.3642  0.0843  0.6558
 9672TIP3    H153211   1.347   1.773   9.653  0.4301 -0.7535 -1.3518
 9672TIP3    H253212   1.396   1.908   9.604 -0.6449  0.5310  0.9212
 9673TIP3   OH253213   0.382   5.612  11.472 -0.0965 -0.0889  0.1922
 9673TIP3    H153214   0.323   5.688  11.471 -0.4457 -0.3177 -1.8329
 9673TIP3    H253215   0.329   5.541  11.507 -0.2236  0.2745  0.7457
 9674TIP3   OH253216   2.804   1.637  10.921  0.3053 -0.0876  0.1849
 9674TIP3    H153217   2.817   1.710  10.861  0.4978  0.0331  0.3692
 9674TIP3    H253218   2.893   1.607  10.941  0.2384 -0.1993  0.3192
 9675TIP3   OH253219   4.873   6.682  11.166  0.2643 -0.0681  0.3200
 9675TIP3    H153220   4.957   6.648  11.135  0.0076 -2.1162  1.6553
 9675TIP3    H253221   4.886   6.777  11.170  2.5132 -0.3140  0.4465
 9676TIP3   OH253222   0.670   2.309  10.736 -0.0871  0.0300 -0.1351
 9676TIP3    H153223   0.762   2.286  10.751 -0.4815 -0.9096  1.0851
 9676TIP3    H253224   0.671   2.403  10.718  1.1002  0.0723  0.0755
 9677TIP3   OH253225   4.545   4.800  10.006  0.7183  0.1449 -0.0345
 9677TIP3    H153226   4.564   4.780  10.097  0.9471  0.5130 -0.0008
 9677TIP3    H253227   4.498   4.883  10.008  1.3327  0.5077 -0.2981
 9678TIP3   OH253228   2.223   0.253  10.581  0.4098 -0.7805 -0.3435
 9678TIP3    H153229   2.302   0.250  10.527  0.5794 -1.2483 -0.0702
 9678TIP3    H253230   2.204   0.161  10.601 -1.1283 -0.8221 -1.7391
 9679TIP3   OH253231   0.589   0.504  10.628 -0.0338  0.1114 -0.4612
 9679TIP3    H153232   0.637   0.462  10.557 -0.5330 -0.4431 -0.4872
 9679TIP3    H253233   0.497   0.494  10.603 -0.2415 -0.5347  0.4933
 9680TIP3   OH253234   5.911   4.995   9.663 -0.1060  0.1287  0.3041
 9680TIP3    H153235   5.973   5.052   9.710 -0.3387  1.0558 -0.4960
 9680TIP3    H253236   5.842   4.977   9.727  0.3741  0.0686  0.8197
 9681TIP3   OH253237   4.644   0.824  10.386  0.4579  0.1508  0.8082
 9681TIP3    H153238   4.689   0.898  10.346 -1.2610  1.8369  1.8288
 9681TIP3    H253239   4.597   0.782  10.314 -2.0762  2.7616  0.7557
 9682TIP3   OH253240   1.735   4.200  12.155  1.0759 -0.3805  0.3188
 9682TIP3    H153241   1.770   4.267  12.214 -1.7995  0.7089  0.9511
 9682TIP3    H253242   1.737   4.241  12.069 -0.6037  0.6194  0.6922
 9683TIP3   OH253243   1.975   0.223   9.903  0.1574 -0.3138 -0.5092
 9683TIP3    H153244   1.941   0.134   9.912  0.2159 -0.0945  3.6700
 9683TIP3    H253245   2.061   0.220   9.946 -0.5101  2.0198  1.1432
 9684TIP3   OH253246   2.374   3.567  11.323  0.6695 -0.5596 -0.3041
 9684TIP3    H153247   2.398   3.619  11.400 -0.0789 -1.0366  0.2594
 9684TIP3    H253248   2.440   3.590  11.258  0.5639  0.8201  0.0505
 9685TIP3   OH253249   0.890   3.744   9.808 -0.6966 -0.4381  0.2603
 9685TIP3    H153250   0.923   3.811   9.869 -0.0464 -0.6586  0.1543
 9685TIP3    H253251   0.846   3.795   9.740 -0.3571 -0.1245  0.2709
 9686TIP3   OH253252   2.254   6.242  11.194 -0.5948 -0.2706 -0.2636
 9686TIP3    H153253   2.206   6.166  11.162  0.6850 -1.5642  0.7162
 9686TIP3    H253254   2.280   6.289  11.114 -0.8880 -1.2007 -0.9306
 9687TIP3   OH253255   2.629   2.022  10.242  0.2434 -0.6026  0.3379
 9687TIP3    H153256   2.638   2.109  10.203 -0.2315 -1.2017 -1.1390
 9687TIP3    H253257   2.719   1.992  10.256  0.4283 -0.5951 -0.8038
 9688TIP3   OH253258   4.088   3.253  11.689 -0.1891  0.1574 -0.0962
 9688TIP3    H153259   4.065   3.236  11.598 -0.8543  0.2496  0.0512
 9688TIP3    H253260   4.183   3.242  11.692 -0.1241  0.4731 -0.8679
 9689TIP3   OH253261   2.162   4.180  10.050 -0.0659  0.1935  0.4660
 9689TIP3    H153262   2.249   4.150  10.022 -0.0343 -1.2624  1.9746
 9689TIP3    H253263   2.122   4.103  10.090 -0.9301  1.5576  2.3981
 9690TIP3   OH253264   2.275   0.738  11.680  0.1884  0.4432  0.2890
 9690TIP3    H153265   2.249   0.830  11.683 -0.4728  0.2581  0.2798
 9690TIP3    H253266   2.368   0.740  11.657  0.8160  1.1827  2.6562
 9691TIP3   OH253267   3.681   3.018  10.519  0.1342  0.4918  0.2449
 9691TIP3    H153268   3.614   2.955  10.545 -0.5325  0.2353 -1.9240
 9691TIP3    H253269   3.635   3.102  10.520 -0.5872  0.2134 -2.1076
 9692TIP3   OH253270   5.264   5.597  10.276 -0.0798  0.1723 -0.0371
 9692TIP3    H153271   5.293   5.588  10.185 -0.6651  1.1724 -0.3374
 9692TIP3    H253272   5.261   5.691  10.291  0.0829  0.0106  1.0518
 9693TIP3   OH253273   3.041   3.996  10.652 -0.1427 -0.1117 -0.0331
 9693TIP3    H153274   2.965   3.955  10.694  0.7094 -1.0925  0.5672
 9693TIP3    H253275   3.023   3.988  10.558 -1.6518  1.3273  0.0741
 9694TIP3   OH253276   2.018   4.980   8.726 -0.0616 -0.2625 -0.1067
 9694TIP3    H153277   1.930   4.956   8.755 -0.1688 -0.5491 -0.6520
 9694TIP3    H253278   2.008   4.999   8.633  0.8136 -2.2796 -0.6748
 9695TIP3   OH253279   5.466   6.681  11.061  0.6746  0.3470 -0.0831
 9695TIP3    H153280   5.554   6.647  11.075  0.0920 -0.7265  1.2159
 9695TIP3    H253281   5.425   6.618  11.000  0.6774  0.6163 -0.3639
 9696TIP3   OH253282   6.234   0.529  10.328  0.3354 -0.4432 -0.3317
 9696TIP3    H153283   6.286   0.541  10.248 -0.3289 -0.3855 -0.7627
 9696TIP3    H253284   6.173   0.458  10.306 -0.5721  0.2916 -0.2564
 9697TIP3   OH253285   2.808   0.883  11.850  0.4300  0.2632 -0.6689
 9697TIP3    H153286   2.860   0.959  11.874 -0.2625  0.3177  0.7794
 9697TIP3    H253287   2.770   0.905  11.765  2.3328  0.4096 -1.5177
 9698TIP3   OH253288   5.176   2.211  10.625 -0.2178 -0.4910  0.0793
 9698TIP3    H153289   5.161   2.120  10.651 -1.4592 -0.0144  1.1359
 9698TIP3    H253290   5.258   2.208  10.576 -1.5696 -2.6174 -2.3520
 9699TIP3   OH253291   6.668   0.089  10.097 -0.1352 -0.0365 -0.0754
 9699TIP3    H153292   6.626   0.168  10.133 -0.4269  0.1254 -0.7621
 9699TIP3    H253293   6.641   0.087  10.005  4.0539  1.9509 -1.5879
 9700TIP3   OH253294   4.119   0.557  10.141  0.4306  0.1807  0.0320
 9700TIP3    H153295   4.137   0.636  10.191  2.1701 -0.7300  0.9624
 9700TIP3    H253296   4.142   0.579  10.051  0.0435  0.9783  0.1230
 9701TIP3   OH253297   2.596   0.562  10.192  0.3829  0.1867 -0.0857
 9701TIP3    H153298   2.659   0.576  10.121  0.2526  1.6222  0.0497
 9701TIP3    H253299   2.641   0.502  10.252  0.4737 -1.0959 -1.3804
 9702TIP3   OH253300   2.321   2.480   9.707  0.4919 -0.5118 -0.4308
 9702TIP3    H153301   2.262   2.487   9.782 -0.5585  0.5054 -1.3235
 9702TIP3    H253302   2.363   2.566   9.702  1.2648 -0.8875 -0.4413
 9703TIP3   OH253303   0.995   3.919  10.981  0.5189 -0.3405 -0.0287
 9703TIP3    H153304   0.970   3.969  11.058  0.4872 -1.0993  0.4695
 9703TIP3    H253305   1.071   3.867  11.010 -0.1844 -1.4808 -0.1502
 9704TIP3   OH253306   4.855   1.983   9.156 -0.5161 -0.0910  0.1725
 9704TIP3    H153307   4.815   1.953   9.075 -0.3249  1.2088 -0.4315
 9704TIP3    H253308   4.823   1.923   9.223 -1.4232 -0.6084 -0.7072
 9705TIP3   OH253309   0.592   5.577   9.981 -0.0784  0.0829 -0.5852
 9705TIP3    H153310   0.670   5.560  10.034 -0.1570  0.4212 -0.3597
 9705TIP3    H253311   0.571   5.492   9.942  0.1548 -0.1027 -0.3117
 9706TIP3   OH253312   2.477   5.060   9.054 -1.0965  0.2722 -0.2258
 9706TIP3    H153313   2.428   5.015   8.985  0.0457 -0.7004 -0.4348
 9706TIP3    H253314   2.547   4.999   9.078 -0.6730  1.1455  0.8707
 9707TIP3   OH253315   5.836   5.492   9.555 -0.0442  0.1688 -0.5289
 9707TIP3    H153316   5.902   5.536   9.609 -0.4572 -1.3051  1.3076
 9707TIP3    H253317   5.885   5.449   9.486  0.4211  2.9031 -2.0120
 9708TIP3   OH253318   5.826   6.624  11.700  0.0941  0.6879 -0.5807
 9708TIP3    H153319   5.732   6.628  11.680 -0.7629 -4.1796  1.0715
 9708TIP3    H253320   5.829   6.621  11.796  1.6385 -1.4951 -0.6335
 9709TIP3   OH253321   0.115   0.831  12.531  0.1242 -0.2774 -0.2082
 9709TIP3    H153322   0.186   0.825  12.595  0.4223 -0.6472 -0.5680
 9709TIP3    H253323   0.108   0.924  12.511 -1.5493  0.1877  2.1185
 9710TIP3   OH253324   2.380   1.263  11.353 -0.1727  0.1462 -0.0018
 9710TIP3    H153325   2.337   1.298  11.431 -0.0185  1.1661 -0.3557
 9710TIP3    H253326   2.357   1.326  11.283 -0.4128 -0.8116 -0.8054
 9711TIP3   OH253327   5.022   0.425  10.006 -0.0264 -0.6979  0.0088
 9711TIP3    H153328   4.931   0.396  10.009  0.2106 -1.4366  0.2176
 9711TIP3    H253329   5.072   0.344   9.996  0.6247 -0.3189  0.2055
 9712TIP3   OH253330   4.610   5.106  10.386 -0.3634  0.1917  0.2074
 9712TIP3    H153331   4.660   5.067  10.315 -0.6508 -0.8166  0.5442
 9712TIP3    H253332   4.530   5.139  10.344 -0.5926 -0.5178  0.0728
 9713TIP3   OH253333   5.416   3.064  11.204  0.1761  0.4697  0.0868
 9713TIP3    H153334   5.472   3.115  11.146  1.7509 -1.5789 -0.3508
 9713TIP3    H253335   5.346   3.123  11.229  1.8511  2.7862 -0.3796
 9714TIP3   OH253336   5.060   0.170  11.900 -0.0361 -0.0748  0.3464
 9714TIP3    H153337   5.129   0.112  11.867  0.2752 -1.8666  3.6995
 9714TIP3    H253338   4.978   0.127  11.874  0.0733  0.6531 -1.3442
 9715TIP3   OH253339   1.276   0.140  11.256 -0.3211  0.0985 -0.4171
 9715TIP3    H153340   1.310   0.129  11.168 -0.4640  0.8050 -0.5607
 9715TIP3    H253341   1.300   0.229  11.281 -1.4786  0.3930 -0.2758
 9716TIP3   OH253342   6.547   1.752  11.246  0.4764  0.1792 -0.0384
 9716TIP3    H153343   6.523   1.791  11.161 -2.4560 -1.7338 -0.2238
 9716TIP3    H253344   6.523   1.818  11.310 -1.4807 -0.0374 -0.5014
 9717TIP3   OH253345   5.760   0.242  12.420 -0.4454 -0.3057 -0.2685
 9717TIP3    H153346   5.678   0.275  12.383  0.4348  0.2575 -1.8344
 9717TIP3    H253347   5.811   0.321  12.440  0.2672 -0.6557 -0.6591
 9718TIP3   OH253348   4.119   0.184  10.303 -0.3915 -0.0713 -0.0177
 9718TIP3    H153349   4.142   0.204  10.212 -2.5141  1.1988 -0.3399
 9718TIP3    H253350   4.075   0.099  10.297 -0.2025 -0.1644 -0.1157
 9719TIP3   OH253351   0.915   3.279   9.156  0.1866 -0.0502 -0.2641
 9719TIP3    H153352   0.907   3.276   9.251 -0.4289  2.9600 -0.1079
 9719TIP3    H253353   0.989   3.223   9.136  0.3842 -0.6909  1.9955
 9720TIP3   OH253354   2.251   4.813  10.022  0.0068 -0.0629  0.5491
 9720TIP3    H153355   2.339   4.847  10.005  0.3930 -1.9746 -1.7977
 9720TIP3    H253356   2.198   4.847   9.950 -1.8337  2.8507  3.0729
 9721TIP3   OH253357   3.196   1.228  10.958 -0.1024 -0.1792  0.0911
 9721TIP3    H153358   3.162   1.231  10.868 -2.1614 -0.1115  0.8260
 9721TIP3    H253359   3.209   1.135  10.975  0.8958 -0.1567 -0.4639
 9722TIP3   OH253360   0.134   4.743  11.610 -0.5747 -0.3014 -0.1653
 9722TIP3    H153361   0.170   4.789  11.534  0.6209  0.8693  1.0514
 9722TIP3    H253362   0.093   4.811  11.663  0.2510 -0.7732  1.1391
 9723TIP3   OH253363   2.318   0.816  10.064  0.1196  0.3504  0.0961
 9723TIP3    H153364   2.251   0.817  10.132  0.2799 -1.1706  0.3188
 9723TIP3    H253365   2.345   0.907  10.054  0.3969  0.5659  2.3794
 9724TIP3   OH253366   6.427   1.530  12.251  0.1954 -0.0073 -0.4462
 9724TIP3    H153367   6.436   1.596  12.319  0.3978  0.3274 -0.7972
 9724TIP3    H253368   6.344   1.487  12.270 -0.1426  0.6296 -0.4636
 9725TIP3   OH253369   6.281   2.404  12.541 -0.0106 -0.2328 -0.0967
 9725TIP3    H153370   6.294   2.314  12.570 -3.3646 -0.3550  1.4911
 9725TIP3    H253371   6.327   2.457  12.606 -3.6368 -0.7006  3.1929
 9726TIP3   OH253372   2.707   5.857  10.863 -0.1452 -0.1297  0.3382
 9726TIP3    H153373   2.653   5.779  10.851  0.9292 -0.7420 -0.7274
 9726TIP3    H253374   2.644   5.928  10.876 -1.1699 -0.9914  0.1881
 9727TIP3   OH253375   0.990   6.196  10.378  0.4328 -0.7443  0.7101
 9727TIP3    H153376   0.909   6.145  10.367  0.8849 -1.3062 -0.1552
 9727TIP3    H253377   1.003   6.200  10.473 -1.8931  1.4505  1.0370
 9728TIP3   OH253378   5.573   4.550  10.764  0.4126 -0.0935  0.4173
 9728TIP3    H153379   5.661   4.537  10.728  0.2817 -0.5943  0.2598
 9728TIP3    H253380   5.587   4.587  10.851  0.7957 -0.4721  0.5184
 9729TIP3   OH253381   5.963   5.224  11.545  0.2236  0.2207  0.0543
 9729TIP3    H153382   6.016   5.302  11.559  0.0519  0.2788  0.4019
 9729TIP3    H253383   5.969   5.207  11.451  0.0243  0.8287 -0.0750
 9730TIP3   OH253384   0.899   0.252   9.679 -0.4765 -0.3450  0.0407
 9730TIP3    H153385   0.845   0.285   9.751  2.3289  0.0588  2.0854
 9730TIP3    H253386   0.937   0.331   9.639  1.2093 -0.7453  0.8070
 9731TIP3   OH253387   5.377   2.758  13.212  0.9478  0.6053 -0.1515
 9731TIP3    H153388   5.428   2.678  13.219  0.1010 -0.0255 -0.8987
 9731TIP3    H253389   5.420   2.808  13.143  1.7740  1.0427  0.6579
 9732TIP3   OH253390   5.291   0.580  10.637  0.2834 -0.0185 -0.2688
 9732TIP3    H153391   5.347   0.508  10.608 -0.2482  0.2877 -2.1501
 9732TIP3    H253392   5.211   0.571  10.586 -0.0624  1.5089 -0.0501
 9733TIP3   OH253393   6.399   2.074  10.780  0.1274 -0.1232 -0.2207
 9733TIP3    H153394   6.367   2.164  10.775 -2.0170 -0.7992  0.3619
 9733TIP3    H253395   6.334   2.023  10.732  1.1142 -1.4299 -0.2352
 9734TIP3   OH253396   5.793   3.313  11.455  0.1384 -0.2768 -0.3719
 9734TIP3    H153397   5.797   3.372  11.530  0.6189  0.0951 -0.6869
 9734TIP3    H253398   5.700   3.304  11.436  0.1021  1.5877 -1.2745
 9735TIP3   OH253399   5.723   4.932  11.905 -0.2868 -0.4522 -0.1401
 9735TIP3    H153400   5.684   4.889  11.829 -1.6119  1.1828 -0.4449
 9735TIP3    H253401   5.778   5.001  11.868  1.0846 -1.2347  0.3586
 9736TIP3   OH253402   1.487   5.870  10.726  0.1474 -0.2006  0.0918
 9736TIP3    H153403   1.434   5.818  10.666  2.0233 -1.8975 -0.1963
 9736TIP3    H253404   1.520   5.942  10.673 -0.0473 -0.4171 -0.3258
 9737TIP3   OH253405   1.079   0.439   9.361 -0.2441 -0.0162  0.0358
 9737TIP3    H153406   1.168   0.448   9.395 -0.0835 -0.0067 -0.3752
 9737TIP3    H253407   1.089   0.384   9.283 -0.7986 -1.2698  0.8140
 9738TIP3   OH253408   1.642   1.932  11.503  0.4868 -0.0318  0.3641
 9738TIP3    H153409   1.732   1.952  11.531  1.3942 -1.0983 -1.5625
 9738TIP3    H253410   1.601   2.017  11.493  0.6296  0.4494  3.0666
 9739TIP3   OH253411   5.452   5.249  10.097 -0.5284 -0.1723 -0.3278
 9739TIP3    H153412   5.516   5.293  10.153  0.8501  1.9658 -3.3241
 9739TIP3    H253413   5.376   5.308  10.096  0.1414  0.7220 -1.9776
 9740TIP3   OH253414   6.059   4.427  12.722 -0.0318  0.3243 -0.1204
 9740TIP3    H153415   6.000   4.396  12.652  0.8125  1.0783 -1.1960
 9740TIP3    H253416   6.072   4.350  12.778  0.4323 -0.7379 -1.6169
 9741TIP3   OH253417   2.903   4.387   9.206 -0.0105 -0.6594  0.5151
 9741TIP3    H153418   2.863   4.470   9.233  0.8923 -0.5985  1.7514
 9741TIP3    H253419   2.834   4.342   9.157 -0.9858  0.2027  1.0481
 9742TIP3   OH253420   0.008   4.139  10.181  0.0006  0.5592 -0.1266
 9742TIP3    H153421  -0.030   4.169  10.098  1.0367  0.0338 -0.8022
 9742TIP3    H253422   0.102   4.138  10.166  0.1135 -1.1906  0.4922
 9743TIP3   OH253423   2.636   0.810  10.560 -0.0531 -0.4307 -0.0819
 9743TIP3    H153424   2.670   0.864  10.489  1.1137 -1.5347 -0.3961
 9743TIP3    H253425   2.554   0.774  10.525  0.0184 -0.2025 -0.4954
 9744TIP3   OH253426   3.140   5.298  12.363  0.8786  0.1217  0.4258
 9744TIP3    H153427   3.096   5.214  12.380 -0.0090 -0.2834 -3.0552
 9744TIP3    H253428   3.228   5.286  12.396  0.6061 -2.0133  0.5227
 9745TIP3   OH253429   5.032   3.362   9.926  0.0660  0.0908 -0.7135
 9745TIP3    H153430   4.979   3.439   9.910  0.3362  0.4314 -0.0282
 9745TIP3    H253431   5.087   3.354   9.848 -0.8645 -0.1700 -1.3513
 9746TIP3   OH253432   1.741   2.905  10.308 -0.6612 -0.0184  0.6905
 9746TIP3    H153433   1.756   2.957  10.229  0.0130  0.8437  1.3522
 9746TIP3    H253434   1.820   2.851  10.317 -1.3832 -1.2309 -0.0230
 9747TIP3   OH253435   5.432   1.582   9.905  0.2922 -0.1040 -0.3381
 9747TIP3    H153436   5.511   1.635   9.909  0.3298 -0.1957  0.3473
 9747TIP3    H253437   5.446   1.514   9.971 -0.5899  0.2071  0.1892
 9748TIP3   OH253438   0.940   5.595  11.417  0.4923 -0.3318 -0.4024
 9748TIP3    H153439   0.852   5.601  11.453  0.5798  2.9034 -0.4502
 9748TIP3    H253440   0.997   5.589  11.494  0.2994 -1.6326 -0.3471
 9749TIP3   OH253441   3.715   2.361  11.601 -0.1639 -0.5725  0.0911
 9749TIP3    H153442   3.770   2.374  11.678 -1.1130  2.4685  0.4098
 9749TIP3    H253443   3.630   2.334  11.636 -0.7939  1.4485  0.2984
 9750TIP3   OH253444   5.490   1.507  12.329 -0.2653 -0.3881  0.1893
 9750TIP3    H153445   5.412   1.551  12.362 -0.6924 -1.1045  0.1645
 9750TIP3    H253446   5.543   1.491  12.407  0.7055  1.6828  0.0014
 9751TIP3   OH253447   0.302   6.498  11.138 -0.0472  0.3482 -0.0690
 9751TIP3    H153448   0.324   6.591  11.145  1.2669 -0.0041  0.9333
 9751TIP3    H253449   0.237   6.483  11.208 -0.4771  0.5689 -0.4207
 9752TIP3   OH253450   4.763   1.073  10.651 -0.5162 -0.2910 -0.2905
 9752TIP3    H153451   4.680   1.069  10.604 -2.8217  0.9033  3.2588
 9752TIP3    H253452   4.805   1.153  10.619 -2.1229  0.6300 -0.1998
 9753TIP3   OH253453   2.913   0.629  10.180 -0.4100 -0.3641  0.0627
 9753TIP3    H153454   2.922   0.554  10.120 -2.1239 -0.0006 -0.7329
 9753TIP3    H253455   2.836   0.676  10.146  0.1108  1.2646  1.0806
 9754TIP3   OH253456   0.870   3.606  12.319 -0.4826 -0.0387 -0.0113
 9754TIP3    H153457   0.774   3.604  12.317 -0.5128  0.9759 -0.1034
 9754TIP3    H253458   0.891   3.653  12.400 -0.1411  2.3554 -1.4101
 9755TIP3   OH253459   4.045   3.976   9.430 -0.1936  0.5398  0.1807
 9755TIP3    H153460   3.959   3.991   9.392 -0.1326 -0.7756 -0.5347
 9755TIP3    H253461   4.038   4.010   9.520 -0.8675  2.1024 -0.4411
 9756TIP3   OH253462   0.946   2.628   9.111 -0.4602 -0.0741 -0.4412
 9756TIP3    H153463   0.957   2.534   9.097 -0.2371 -0.0127 -0.7067
 9756TIP3    H253464   0.969   2.642   9.203 -1.4173 -0.4149 -0.1444
 9757TIP3   OH253465   4.433   5.247  10.793 -0.3748  0.2133 -0.3845
 9757TIP3    H153466   4.449   5.183  10.723  1.0369 -0.5960  0.6128
 9757TIP3    H253467   4.495   5.318  10.775  1.1304 -0.7097  0.8270
 9758TIP3   OH253468   5.453   5.349  10.598  0.7684 -0.0450  0.7441
 9758TIP3    H153469   5.422   5.433  10.564  0.7135 -0.4298 -0.1847
 9758TIP3    H253470   5.548   5.358  10.601  0.7828 -0.0523  0.3599
 9759TIP3   OH253471   5.300   0.935   9.844  0.2927 -0.1729  0.9458
 9759TIP3    H153472   5.353   0.861   9.877  1.3526  0.8847  1.7100
 9759TIP3    H253473   5.243   0.958   9.917 -1.8682 -1.7884 -0.1205
 9760TIP3   OH253474   6.194   5.267   9.748  0.0577  0.4399  0.1772
 9760TIP3    H153475   6.181   5.225   9.833  1.5037 -0.3182  0.0727
 9760TIP3    H253476   6.195   5.194   9.686 -0.8520  0.9766 -0.4852
 9761TIP3   OH253477   4.139   4.260  10.078  0.2752 -0.1874  0.1467
 9761TIP3    H153478   4.200   4.212  10.023  0.4360 -0.5718  0.6458
 9761TIP3    H253479   4.193   4.291  10.151  0.3249  1.3663 -0.5164
 9762TIP3   OH253480   1.728   0.503  11.847 -0.5597  0.0790 -0.3922
 9762TIP3    H153481   1.774   0.575  11.890 -0.2818  0.1400 -0.7928
 9762TIP3    H253482   1.796   0.438  11.829 -0.6694  0.0613 -0.7583
 9763TIP3   OH253483   3.345   0.956  10.776 -0.4293 -0.0698 -0.2151
 9763TIP3    H153484   3.269   0.898  10.784  0.0284 -0.6576 -0.1134
 9763TIP3    H253485   3.381   0.937  10.689 -2.2598  2.4985 -1.6807
 9764TIP3   OH253486   1.536   3.463  11.859 -0.7971  0.0614 -0.0501
 9764TIP3    H153487   1.464   3.424  11.810 -1.3304  0.2569  0.5655
 9764TIP3    H253488   1.602   3.484  11.793 -1.4570  0.2152 -0.6662
 9765TIP3   OH253489   2.959   0.809  12.149 -0.2974  1.1718  0.7022
 9765TIP3    H153490   2.962   0.895  12.191 -0.0646  1.0350  0.9724
 9765TIP3    H253491   2.875   0.772  12.175  0.1258  0.8100  1.6200
 9766TIP3   OH253492   5.967   2.735  10.787  0.2794  0.0952 -0.3169
 9766TIP3    H153493   6.050   2.757  10.828  1.4142 -1.5157 -1.5999
 9766TIP3    H253494   5.974   2.771  10.698 -0.3084 -0.1988 -0.4899
 9767TIP3   OH253495   4.141   3.490  10.637 -0.1487  0.4332  0.7862
 9767TIP3    H153496   4.226   3.446  10.642 -1.3803 -2.1671  0.5811
 9767TIP3    H253497   4.078   3.419  10.623 -2.2052  2.4063 -0.8350
 9768TIP3   OH253498   6.479   2.770  12.129 -0.3699 -0.3151 -0.5185
 9768TIP3    H153499   6.420   2.740  12.198  0.8796 -2.2600 -0.2120
 9768TIP3    H253500   6.446   2.727  12.050  0.9523 -1.9749 -0.2242
 9769TIP3   OH253501   6.079   2.716  13.114  0.0356  0.1758  0.4720
 9769TIP3    H153502   6.135   2.670  13.052  0.1482  0.0295  0.6806
 9769TIP3    H253503   6.052   2.795  13.068 -0.1503 -0.0943  0.1145
 9770TIP3   OH253504   4.157   0.191  10.771  0.0038 -0.3193  0.1278
 9770TIP3    H153505   4.240   0.154  10.802 -0.5270  0.7205  3.1836
 9770TIP3    H253506   4.092   0.124  10.792 -0.3092  0.2101  0.9090
 9771TIP3   OH253507   1.467   3.976  11.513 -0.0400  0.6510  0.1104
 9771TIP3    H153508   1.434   3.887  11.501 -0.1494  0.8766 -1.6550
 9771TIP3    H253509   1.479   3.986  11.607  0.2467 -1.3164  0.3077
 9772TIP3   OH253510   0.734   5.538  11.816  0.2127 -0.0732 -0.3090
 9772TIP3    H153511   0.691   5.548  11.731  0.3627  0.5827 -0.3201
 9772TIP3    H253512   0.704   5.614  11.866 -0.4471 -0.8390  0.4880
 9773TIP3   OH253513   0.197   1.074  10.507  0.0849  0.0925 -0.0230
 9773TIP3    H153514   0.292   1.064  10.500  0.4672  1.9119  1.7867
 9773TIP3    H253515   0.174   1.028  10.588 -0.4213  0.5153  0.0807
 9774TIP3   OH253516   5.035   4.951  10.451  0.4339  0.6043 -0.2526
 9774TIP3    H153517   4.955   4.999  10.474 -0.3257 -0.3282 -0.8244
 9774TIP3    H253518   5.047   4.888  10.523  0.5135  0.5786 -0.2880
 9775TIP3   OH253519   1.968   6.435  12.936  0.2461  0.2254 -0.0024
 9775TIP3    H153520   1.936   6.371  12.873  1.7002 -0.2772 -0.2698
 9775TIP3    H253521   2.063   6.420  12.940  0.3770  1.1870  1.2499
 9776TIP3   OH253522   6.107   4.785  10.776 -0.0553  0.4278 -0.2917
 9776TIP3    H153523   6.122   4.870  10.816  2.1358 -0.0338 -0.0133
 9776TIP3    H253524   6.168   4.781  10.702  0.7758 -1.3109  0.4088
 9777TIP3   OH253525   5.490   2.687  12.226 -0.0058  0.1264 -0.0680
 9777TIP3    H153526   5.571   2.737  12.237  0.5753 -0.7314 -0.3512
 9777TIP3    H253527   5.485   2.669  12.132 -0.1192 -0.4736  0.0469
 9778TIP3   OH253528   6.237   1.936  10.592 -0.1217  0.1348  0.0373
 9778TIP3    H153529   6.215   1.849  10.627  0.3506  0.0183  0.0530
 9778TIP3    H253530   6.154   1.971  10.561 -0.4544  0.0162  0.7785
 9779TIP3   OH253531   1.193   4.106  11.676 -0.2072 -0.0620  0.3845
 9779TIP3    H153532   1.115   4.158  11.696 -0.6628 -0.9359  0.9314
 9779TIP3    H253533   1.256   4.170  11.643 -1.6536  0.4585 -1.5965
 9780TIP3   OH253534   4.910   0.560  11.271  0.2901  0.5373 -0.1716
 9780TIP3    H153535   4.980   0.527  11.214  0.5935 -0.8450  0.9469
 9780TIP3    H253536   4.885   0.643  11.231  0.6720 -0.2337 -2.1647
 9781TIP3   OH253537   4.129   1.816  12.804 -0.4045 -0.0915  0.2907
 9781TIP3    H153538   4.050   1.806  12.752 -0.2791  0.4401 -0.0125
 9781TIP3    H253539   4.128   1.908  12.832 -1.1686 -0.6651  2.3765
 9782TIP3   OH253540   1.227   5.760  10.937 -0.2872  0.0978  0.3039
 9782TIP3    H153541   1.208   5.667  10.923 -0.8154  0.1706  0.5496
 9782TIP3    H253542   1.320   5.769  10.913 -0.8170 -0.0335 -1.9654
 9783TIP3   OH253543   2.116   4.514  11.152  1.2670 -0.0979 -1.1340
 9783TIP3    H153544   2.032   4.560  11.162  1.3819  0.1137 -1.1426
 9783TIP3    H253545   2.180   4.583  11.138  0.9819 -0.3516 -4.4223
 9784TIP3   OH253546   0.115   0.446  12.256  0.3327  0.6560 -0.3216
 9784TIP3    H153547   0.095   0.372  12.314  2.0960 -0.6401 -1.2607
 9784TIP3    H253548   0.113   0.523  12.313 -0.8915 -0.1798  0.8282
 9785TIP3   OH253549   0.311   3.205  11.067 -0.2190  0.3371 -0.2095
 9785TIP3    H153550   0.297   3.167  10.980 -0.7747 -0.4201  0.2061
 9785TIP3    H253551   0.223   3.220  11.101 -0.0137  1.9959 -0.3481
 9786TIP3   OH253552   0.373   6.702  10.684  0.2234  0.4050  0.1161
 9786TIP3    H153553   0.373   6.620  10.635  0.8682 -0.1313  0.9781
 9786TIP3    H253554   0.286   6.739  10.671 -0.9813 -1.6458  1.6923
 9787TIP3   OH253555   1.331   4.219  11.164  0.3292 -0.0124 -0.5800
 9787TIP3    H153556   1.419   4.246  11.137 -0.4030  0.9684 -2.1259
 9787TIP3    H253557   1.285   4.301  11.181 -0.5393 -0.4759 -0.6264
 9788TIP3   OH253558   4.869   3.247  10.120 -0.1954  0.3125 -0.6056
 9788TIP3    H153559   4.918   3.173  10.156 -0.8084 -0.0733 -0.5307
 9788TIP3    H253560   4.928   3.288  10.058  0.1712 -0.2179 -0.6129
 9789TIP3   OH253561   3.330   4.309  11.907 -0.2356 -0.3241  0.5937
 9789TIP3    H153562   3.265   4.373  11.934 -0.1049 -0.3342  0.9439
 9789TIP3    H253563   3.280   4.236  11.872 -0.4005 -0.1992  0.5713
 9790TIP3   OH253564   1.871   2.193  12.446 -0.2392  0.1502  0.6034
 9790TIP3    H153565   1.884   2.199  12.541  0.2618 -0.6082  0.5918
 9790TIP3    H253566   1.923   2.118  12.419 -0.2366  0.4621 -0.3079
 9791TIP3   OH253567   4.368   0.339   9.344  0.1434 -0.5736  0.0332
 9791TIP3    H153568   4.275   0.354   9.324  0.4924 -0.3550 -1.6159
 9791TIP3    H253569   4.393   0.414   9.397 -0.2008  0.3424 -1.0541
 9792TIP3   OH253570   1.770   4.300  11.221  0.5834  0.1192  0.2924
 9792TIP3    H153571   1.767   4.222  11.276  0.6514  0.5195  0.8706
 9792TIP3    H253572   1.838   4.282  11.157  0.7900 -0.1841  0.5956
 9793TIP3   OH253573   6.381   2.716  11.870  0.0631  0.7536 -0.2858
 9793TIP3    H153574   6.347   2.631  11.897 -0.8819  0.5033 -2.1103
 9793TIP3    H253575   6.475   2.700  11.856 -0.3257 -0.4372 -2.0020
 9794TIP3   OH253576   6.654   4.625   9.615  0.0524  0.2106 -0.0341
 9794TIP3    H153577   6.687   4.704   9.657 -0.3003  0.1290  0.4022
 9794TIP3    H253578   6.709   4.555   9.649  0.4527  0.2812 -0.5246
 9795TIP3   OH253579   0.789   0.859  11.714 -0.2415  0.1489 -0.5499
 9795TIP3    H153580   0.722   0.835  11.651  0.1610  1.2984 -1.4447
 9795TIP3    H253581   0.869   0.870  11.662  0.2077  0.6587  0.2158
 9796TIP3   OH253582   1.714   2.301  10.986 -0.1787  0.0169  0.4361
 9796TIP3    H153583   1.797   2.297  10.940  0.7304  0.3845  1.9505
 9796TIP3    H253584   1.717   2.227  11.047 -0.1001  1.1113  1.8113
 9797TIP3   OH253585   0.379   6.232   9.820  0.0999 -0.4437 -0.5817
 9797TIP3    H153586   0.414   6.162   9.874 -0.4363  0.7339  1.3991
 9797TIP3    H253587   0.456   6.277   9.785  0.4848 -0.4733  0.2214
 9798TIP3   OH253588   3.687   6.066   9.396  0.1179  0.0606 -0.2902
 9798TIP3    H153589   3.766   6.103   9.357  0.7871 -1.2082 -0.2062
 9798TIP3    H253590   3.622   6.136   9.391  1.7369  1.7930  1.2814
 9799TIP3   OH253591   5.464   6.458  11.391 -0.0977  0.0302  0.1993
 9799TIP3    H153592   5.394   6.407  11.352 -1.6461  2.5217 -0.5116
 9799TIP3    H253593   5.425   6.499  11.468  0.3756  1.7692 -0.4199
 9800TIP3   OH253594   5.550   5.981   9.963  0.0853 -0.0592 -0.5664
 9800TIP3    H153595   5.632   6.022   9.990 -0.7639  2.4415 -1.4660
 9800TIP3    H253596   5.537   6.012   9.873 -0.5657 -2.5683 -1.4299
 9801TIP3   OH253597   5.102   4.590   9.674 -0.2160  0.1019 -0.0345
 9801TIP3    H153598   5.082   4.680   9.648  1.0691  0.1567 -0.9213
 9801TIP3    H253599   5.084   4.538   9.596  1.3475 -0.0698 -0.2972
 9802TIP3   OH253600   6.429   4.062  10.722  0.5237 -0.9902  0.1062
 9802TIP3    H153601   6.444   3.977  10.681 -0.7439 -0.9191 -0.5678
 9802TIP3    H253602   6.340   4.055  10.758  1.3354 -0.7999  2.2556
 9803TIP3   OH253603   0.600   3.579  12.304 -0.4802 -0.0889  0.3928
 9803TIP3    H153604   0.549   3.518  12.251 -0.9810  1.4304 -0.9423
 9803TIP3    H253605   0.583   3.552  12.394 -0.3113 -2.1781 -0.1463
 9804TIP3   OH253606   2.554   6.573   9.423  0.1493 -0.3147  0.4318
 9804TIP3    H153607   2.630   6.622   9.455 -0.0535 -0.1456  0.6564
 9804TIP3    H253608   2.501   6.638   9.378  2.2421 -1.1465 -3.7167
 9805TIP3   OH253609   1.356   1.062   9.521 -0.1165  0.3644 -0.2519
 9805TIP3    H153610   1.428   1.095   9.467 -1.0544  1.7528 -0.7146
 9805TIP3    H253611   1.397   1.043   9.606  0.8679  0.7732 -0.6112
 9806TIP3   OH253612   5.180   5.236  10.529  0.4846  0.1692 -0.2202
 9806TIP3    H153613   5.163   5.146  10.500 -1.8857  0.1450  0.9228
 9806TIP3    H253614   5.267   5.233  10.567  0.5497 -1.6141 -0.4099
 9807TIP3   OH253615   1.600   4.219   9.647 -0.3839 -0.0625 -0.3986
 9807TIP3    H153616   1.671   4.191   9.589  2.1773  1.1195  1.9341
 9807TIP3    H253617   1.598   4.153   9.717 -3.1698 -1.2679 -1.4511
 9808TIP3   OH253618   0.475   4.280  12.751 -0.1539  0.0179  0.0931
 9808TIP3    H153619   0.393   4.277  12.800  0.1666 -0.6809  0.6036
 9808TIP3    H253620   0.520   4.358  12.784 -0.1529 -0.1802  0.5613
 9809TIP3   OH253621   6.067   2.110   9.360  0.2600 -0.5986 -0.5303
 9809TIP3    H153622   5.978   2.141   9.380  0.5274  1.2685 -1.9615
 9809TIP3    H253623   6.088   2.052   9.433 -0.9348  1.3944  1.5564
 9810TIP3   OH253624   1.210   3.454  10.783  0.4943 -0.7723  0.1856
 9810TIP3    H153625   1.274   3.440  10.714  0.7973 -1.6525  0.6318
 9810TIP3    H253626   1.150   3.380  10.776 -0.2640 -0.1503  0.0081
 9811TIP3   OH253627   3.083   4.636  10.668  0.0427  0.3699 -0.3294
 9811TIP3    H153628   3.066   4.705  10.732 -2.8326 -2.0523  1.7914
 9811TIP3    H253629   3.171   4.605  10.689  0.5248  1.9208  0.0775
 9812TIP3   OH253630   4.662   5.960  11.333 -0.2317 -0.7659 -0.1531
 9812TIP3    H153631   4.580   5.948  11.381  0.6821  0.4454  1.8327
 9812TIP3    H253632   4.660   6.052  11.306 -0.2823 -1.1830 -1.6536
 9813TIP3   OH253633   0.795   2.013   9.474 -0.4424 -0.0164  0.1561
 9813TIP3    H153634   0.879   2.011   9.521  0.5823 -0.4331 -1.6215
 9813TIP3    H253635   0.762   2.102   9.488 -0.2567 -0.1544  1.7352
 9814TIP3   OH253636   0.912   4.716   9.772 -0.1300  0.4254  0.3400
 9814TIP3    H153637   0.891   4.810   9.772  2.3301  1.0546  1.1759
 9814TIP3    H253638   0.980   4.707   9.705 -2.3621 -1.3855 -1.8687
 9815TIP3   OH253639   1.801   1.743  12.792 -0.4938  0.2991  0.5036
 9815TIP3    H153640   1.778   1.650  12.796 -2.0681  0.5858 -0.6334
 9815TIP3    H253641   1.891   1.743  12.759 -0.8936 -0.8220 -0.7021
 9816TIP3   OH253642   3.806   3.185   9.653  0.5497  0.1046  0.2382
 9816TIP3    H153643   3.871   3.219   9.714 -0.0388 -1.0542  1.5757
 9816TIP3    H253644   3.723   3.192   9.700  0.0117 -0.4024 -0.6068
 9817TIP3   OH253645   4.362   0.929  10.306 -0.0223  0.3666  0.4922
 9817TIP3    H153646   4.354   0.994  10.237 -2.8669  0.2320  0.5832
 9817TIP3    H253647   4.407   0.855  10.265 -1.4245  0.3907 -1.1983
 9818TIP3   OH253648   0.329   4.007  11.242  0.2421  0.4264 -0.1289
 9818TIP3    H153649   0.324   4.094  11.203 -0.5212  1.1649  1.5043
 9818TIP3    H253650   0.285   4.016  11.327 -1.1622 -1.8896 -0.5065
 9819TIP3   OH253651   4.707   2.102   9.434  0.4412 -0.2889  0.2203
 9819TIP3    H153652   4.753   2.178   9.469  2.2058 -0.1084 -2.1952
 9819TIP3    H253653   4.776   2.051   9.390 -1.4900 -0.3283 -3.0984
 9820TIP3   OH253654   5.956   3.196  11.226  0.3429  0.0921 -0.1399
 9820TIP3    H153655   5.952   3.272  11.167  0.4688  0.1629 -0.0588
 9820TIP3    H253656   5.927   3.230  11.311 -2.8196 -0.6953 -0.7998
 9821TIP3   OH253657   4.035   2.265   9.463  0.0516 -0.6532 -0.3603
 9821TIP3    H153658   3.945   2.239   9.442  0.4367 -0.5059 -2.4245
 9821TIP3    H253659   4.054   2.337   9.402  0.9523  0.6406  1.3456
 9822TIP3   OH253660   0.392   0.385  10.920  0.2900 -0.1131 -0.4318
 9822TIP3    H153661   0.401   0.397  10.825  1.5252  1.0534 -0.1964
 9822TIP3    H253662   0.302   0.354  10.931  0.7019 -2.2454 -2.1356
 9823TIP3   OH253663   4.005   0.782  10.757  0.4604  0.4249  0.4634
 9823TIP3    H153664   3.991   0.877  10.749  0.1574  0.3281 -0.1853
 9823TIP3    H253665   3.962   0.759  10.840  1.1848  0.9699  1.0054
 9824TIP3   OH253666   0.741   3.046  11.083 -0.6430 -0.1163  0.2603
 9824TIP3    H153667   0.783   2.962  11.063  3.1391  1.3006  1.3644
 9824TIP3    H253668   0.730   3.089  10.998  2.4596  0.3233 -0.0311
 9825TIP3   OH253669   6.222   1.144  12.342  0.3169  0.4063  0.1167
 9825TIP3    H153670   6.151   1.089  12.376  0.0281  0.5867 -0.1831
 9825TIP3    H253671   6.298   1.087  12.340 -0.1164 -0.1658 -0.7492
 9826TIP3   OH253672   3.952   5.922  11.784  0.0044  0.2393  0.5982
 9826TIP3    H153673   3.878   5.976  11.809  0.3607  0.9999  0.0558
 9826TIP3    H253674   3.914   5.852  11.731 -0.6810 -1.0903  2.7630
 9827TIP3   OH253675   1.058   3.381  10.159 -0.1100 -0.2111 -0.0069
 9827TIP3    H153676   1.139   3.368  10.208  0.3646  2.9469  0.2416
 9827TIP3    H253677   1.086   3.390  10.068 -0.2267  0.4174  0.0178
 9828TIP3   OH253678   5.816   4.593  10.078  0.2999  0.2605  0.0281
 9828TIP3    H153679   5.815   4.688  10.082 -0.6888  0.2237  1.2619
 9828TIP3    H253680   5.762   4.565  10.153  2.6554 -1.3098  1.2620
 9829TIP3   OH253681   2.948   3.201  12.378  0.2422 -0.5269 -0.1942
 9829TIP3    H153682   2.929   3.276  12.321 -0.3570  0.0015  0.6817
 9829TIP3    H253683   2.865   3.184  12.423  0.3828 -1.7009 -0.3581
 9830TIP3   OH253684   6.307   5.391  10.428 -0.2614  0.0916  0.1720
 9830TIP3    H153685   6.225   5.426  10.464 -1.1713 -2.5422  0.8663
 9830TIP3    H253686   6.374   5.419  10.490 -1.1718 -0.6259  1.5279
 9831TIP3   OH253687   3.186   5.760  10.559  0.5774  0.1168 -0.4404
 9831TIP3    H153688   3.267   5.719  10.532 -0.2038 -0.7056 -1.6191
 9831TIP3    H253689   3.118   5.714  10.510 -0.8771 -1.0272  2.4072
 9832TIP3   OH253690   1.786   5.531  10.385 -0.0738  0.0606 -0.7431
 9832TIP3    H153691   1.825   5.444  10.379  1.3767  0.3483  2.4643
 9832TIP3    H253692   1.860   5.591  10.387 -0.8356  1.0100  1.1091
 9833TIP3   OH253693   4.990   3.557  11.079 -0.2015  0.5902  0.3773
 9833TIP3    H153694   4.945   3.617  11.020  0.0624 -0.1973 -0.6483
 9833TIP3    H253695   5.030   3.614  11.145 -0.5963  1.4735 -0.1326
 9834TIP3   OH253696   1.854   1.853   9.935  0.0115 -0.2048 -0.0575
 9834TIP3    H153697   1.890   1.855  10.024  0.3888  0.8201 -0.2174
 9834TIP3    H253698   1.919   1.805   9.884  0.2064 -0.0459  0.0424
 9835TIP3   OH253699   5.895   1.719   9.532 -0.0137  0.2506  0.1014
 9835TIP3    H153700   5.812   1.765   9.520  1.3247  2.7602 -0.2277
 9835TIP3    H253701   5.885   1.671   9.613 -1.1178  2.2037  1.1983
 9836TIP3   OH253702   0.128   4.621  10.706 -0.3880  0.3862  0.4410
 9836TIP3    H153703   0.129   4.543  10.761 -0.0234  0.4644  0.5540
 9836TIP3    H253704   0.051   4.611  10.650  0.8489 -1.1439 -1.0925
 9837TIP3   OH253705   6.711   4.075  10.891  0.0248  0.2103  0.5688
 9837TIP3    H153706   6.795   4.106  10.924 -0.1834  1.1613  0.2294
 9837TIP3    H253707   6.650   4.146  10.910 -0.2893  0.3826 -0.9698
 9838TIP3   OH253708   5.891   2.100  12.254  0.0741  0.2207 -0.5573
 9838TIP3    H153709   5.799   2.090  12.276  0.0286 -0.8938 -1.1608
 9838TIP3    H253710   5.903   2.194  12.239 -0.7429  0.4931  0.4347
 9839TIP3   OH253711   1.395   4.939  10.982 -0.1027  0.4092  0.0471
 9839TIP3    H153712   1.420   4.955  11.073 -1.6717  0.9136  0.4088
 9839TIP3    H253713   1.445   5.004  10.932  0.3329  0.5012  0.5876
 9840TIP3   OH253714   1.015   0.613  11.848 -0.6410  0.2938  0.3673
 9840TIP3    H153715   1.079   0.665  11.799 -0.8080 -0.3603 -0.5795
 9840TIP3    H253716   0.956   0.678  11.886 -1.5344  0.8397 -1.7538
 9841TIP3   OH253717   0.273   5.942  12.055 -0.1496 -0.0990 -0.4582
 9841TIP3    H153718   0.241   5.931  11.965  0.7341  1.0932 -0.9401
 9841TIP3    H253719   0.219   6.012  12.091  0.3171  0.2844 -0.4909
 9842TIP3   OH253720   0.079   4.128   9.917  0.4981  0.0049 -0.0749
 9842TIP3    H153721   0.149   4.064   9.905 -0.2503 -0.3795 -3.3504
 9842TIP3    H253722   0.124   4.213   9.919  1.2099 -0.3763  0.5853
 9843TIP3   OH253723   1.526   3.812  10.573 -0.1444  0.4651 -0.0223
 9843TIP3    H153724   1.567   3.896  10.553 -0.1872 -0.0143 -2.4539
 9843TIP3    H253725   1.596   3.759  10.610  0.4633  0.8644 -0.5813
 9844TIP3   OH253726   1.351   3.446  12.215  0.4634  0.6872 -0.3071
 9844TIP3    H153727   1.313   3.360  12.235 -0.7197  0.5907 -2.5445
 9844TIP3    H253728   1.384   3.478  12.299 -0.3438 -1.3277  0.8668
 9845TIP3   OH253729   6.174   1.486  12.596 -0.3012  0.0837  0.1836
 9845TIP3    H153730   6.239   1.438  12.647  0.8484 -0.4011 -1.6472
 9845TIP3    H253731   6.150   1.561  12.651 -0.9229 -1.6390  2.4225
 9846TIP3   OH253732   5.045   5.985  10.826 -0.3983 -0.1662  0.1951
 9846TIP3    H153733   5.012   5.905  10.868 -1.3693 -0.0379 -0.2951
 9846TIP3    H253734   5.073   6.040  10.899 -0.6971 -0.5352  0.5958
 9847TIP3   OH253735   2.439   1.496   9.959 -0.2128 -0.1616 -0.6297
 9847TIP3    H153736   2.499   1.565   9.989  1.0719 -0.8286 -1.5749
 9847TIP3    H253737   2.396   1.466  10.039 -0.9356  1.8216 -0.2134
 9848TIP3   OH253738   1.688   2.563  11.382  0.0952  0.4998  0.8418
 9848TIP3    H153739   1.725   2.646  11.410  1.0241 -0.1298  1.5429
 9848TIP3    H253740   1.757   2.499  11.399  0.6609 -0.0164 -2.5890
 9849TIP3   OH253741   6.140   4.804   9.845  0.1256  0.0635 -0.1808
 9849TIP3    H153742   6.127   4.782   9.937  0.1212  0.4396 -0.0912
 9849TIP3    H253743   6.055   4.786   9.804  0.2366 -0.4643 -0.1869
 9850TIP3   OH253744   6.547   3.382  11.460  0.3435 -0.5625 -0.4803
 9850TIP3    H153745   6.539   3.442  11.387  0.0649  2.4842  1.8565
 9850TIP3    H253746   6.633   3.399  11.497  0.7445 -2.5059 -0.3807
 9851TIP3   OH253747   6.038   5.307  10.684  0.6121 -0.0075 -0.3245
 9851TIP3    H153748   5.954   5.345  10.658  0.1893  0.3401  1.4741
 9851TIP3    H253749   6.014   5.233  10.739  1.4193  1.9117  2.8168
 9852TIP3   OH253750   2.465   5.723  11.618 -0.7728  1.0307 -0.2334
 9852TIP3    H153751   2.497   5.694  11.533 -0.0692  0.8251  0.0905
 9852TIP3    H253752   2.392   5.781  11.598 -0.3689  1.2899 -0.9886
 9853TIP3   OH253753   6.243   2.146   9.157  0.0415 -0.2751  0.5019
 9853TIP3    H153754   6.314   2.089   9.188  1.1611  1.7454  1.8997
 9853TIP3    H253755   6.165   2.113   9.202  0.5227 -1.0705  0.7859
 9854TIP3   OH253756   4.535   4.857  12.450 -0.0837  0.4861  0.7916
 9854TIP3    H153757   4.564   4.810  12.528  0.0741  3.2376  2.5569
 9854TIP3    H253758   4.440   4.852  12.453 -0.0511 -1.0209  0.0370
 9855TIP3   OH253759   1.028   1.866  13.204 -0.1229 -0.4946  0.0027
 9855TIP3    H153760   0.979   1.936  13.161 -1.4289 -0.4597  1.4782
 9855TIP3    H253761   1.107   1.909  13.236  0.0691 -0.1622 -0.8779
 9856TIP3   OH253762   0.677   2.376  11.148  0.2563  0.4337 -0.0100
 9856TIP3    H153763   0.758   2.380  11.097  0.5134 -0.4272  0.3212
 9856TIP3    H253764   0.619   2.320  11.097 -0.1891  1.1383 -0.3046
 9857TIP3   OH253765   3.531   3.770  10.934  0.3178  0.2021  0.2157
 9857TIP3    H153766   3.521   3.859  10.901 -3.0871 -0.4034 -0.7347
 9857TIP3    H253767   3.535   3.779  11.029  0.7849  1.3870  0.0953
 9858TIP3   OH253768   4.399   2.069  12.257 -0.2179 -0.4846  0.2600
 9858TIP3    H153769   4.443   1.993  12.219 -0.8663  0.3026 -2.2481
 9858TIP3    H253770   4.307   2.044  12.263 -0.3784 -0.0175 -0.2419
 9859TIP3   OH253771   5.627   5.875  11.105 -0.3876 -0.4836  0.2691
 9859TIP3    H153772   5.635   5.804  11.041 -1.2616  1.3992 -2.1063
 9859TIP3    H253773   5.532   5.889  11.112 -0.2723 -0.2764  1.6002
 9860TIP3   OH253774   5.944   4.336  10.730  0.0701  0.0961 -0.6466
 9860TIP3    H153775   5.939   4.265  10.667  1.1070  0.1405 -0.7951
 9860TIP3    H253776   6.038   4.346  10.748  0.0199  1.8286 -1.1058
 9861TIP3   OH253777   6.144   4.818  11.801  0.3718  0.3639  0.9687
 9861TIP3    H153778   6.106   4.862  11.725  1.5077  0.3492  0.3716
 9861TIP3    H253779   6.238   4.819  11.785  0.5918 -0.1640  2.1024
 9862TIP3   OH253780   4.504   2.921  10.828 -0.2039 -0.5482 -0.3030
 9862TIP3    H153781   4.573   2.987  10.822  0.3457 -1.1480 -0.7006
 9862TIP3    H253782   4.538   2.846  10.780 -0.5346 -1.3630  0.7007
 9863TIP3   OH253783   6.032   0.276  11.835  0.0128  0.1103 -0.2420
 9863TIP3    H153784   6.034   0.181  11.846 -0.7830  0.2173  1.0173
 9863TIP3    H253785   6.096   0.293  11.766  0.0434 -1.3503 -0.6152
 9864TIP3   OH253786   0.005   3.110  10.209 -0.2286 -0.1437  0.7907
 9864TIP3    H153787   0.039   3.157  10.284 -0.0013 -0.0240  0.6123
 9864TIP3    H253788   0.080   3.098  10.151 -0.3665 -0.3784  0.6563
 9865TIP3   OH253789   3.575   4.747  11.205 -0.1643  1.0877 -0.4677
 9865TIP3    H153790   3.632   4.751  11.282 -1.0045  2.7582  0.1193
 9865TIP3    H253791   3.610   4.675  11.153  1.8185  1.3631  0.3872
 9866TIP3   OH253792   0.730   1.364  11.011 -0.3701  0.0893  0.0744
 9866TIP3    H153793   0.671   1.298  11.047 -1.4215  0.6866 -0.5217
 9866TIP3    H253794   0.775   1.320  10.939  0.0118 -0.4019  0.6022
 9867TIP3   OH253795   2.278   6.169  10.694  0.0767 -0.3370 -0.3156
 9867TIP3    H153796   2.292   6.189  10.602 -1.0640 -0.7142 -0.5896
 9867TIP3    H253797   2.201   6.112  10.695  1.9305 -3.0861  0.5638
 9868TIP3   OH253798   3.696   5.793  10.260  0.0658  0.2849  0.4153
 9868TIP3    H153799   3.781   5.821  10.225  0.6624 -0.7688  0.9614
 9868TIP3    H253800   3.683   5.845  10.338 -0.1042  0.9125 -0.0282
 9869TIP3   OH253801   2.528   3.239   9.706  0.5253 -0.4153 -0.1974
 9869TIP3    H153802   2.569   3.154   9.687  0.7423 -0.1101 -1.1178
 9869TIP3    H253803   2.601   3.294   9.734  0.3429 -0.5939  0.6884
 9870TIP3   OH253804   0.540   6.733  12.114  0.2813  0.2065 -0.1024
 9870TIP3    H153805   0.616   6.765  12.162  0.7461  0.8276 -1.2136
 9870TIP3    H253806   0.465   6.777  12.154  0.3761 -0.9819  1.5015
 9871TIP3   OH253807   6.311   6.457   9.912 -0.4657  0.0774 -0.4704
 9871TIP3    H153808   6.242   6.523   9.918  0.7493  1.3884 -0.1960
 9871TIP3    H253809   6.265   6.374   9.902 -2.0667  0.8892 -0.1317
 9872TIP3   OH253810   2.714   3.272  11.783  0.5691  0.1845 -0.3424
 9872TIP3    H153811   2.797   3.272  11.735  0.2049  1.3283 -1.0121
 9872TIP3    H253812   2.656   3.326  11.730 -0.7915 -1.0517 -0.1672
 9873TIP3   OH253813   0.243   5.253  10.733 -0.5903  0.4557  0.1529
 9873TIP3    H153814   0.338   5.242  10.726 -0.7968 -0.1606 -2.3249
 9873TIP3    H253815   0.210   5.242  10.644 -2.9081  1.6592  0.7756
 9874TIP3   OH253816   2.498   1.126  11.736  0.4023 -0.3002 -0.6106
 9874TIP3    H153817   2.503   1.203  11.791  1.7556 -0.6497 -0.2118
 9874TIP3    H253818   2.547   1.149  11.657 -0.9807 -0.0285 -1.4280
 9875TIP3   OH253819   0.309   3.561  10.338  0.5364  0.2017 -0.1206
 9875TIP3    H153820   0.224   3.590  10.371  0.1969 -1.1244  0.2401
 9875TIP3    H253821   0.353   3.641  10.310  0.0304  1.1502  1.6723
 9876TIP3   OH253822   3.616   2.278  12.045 -0.0674  0.3815 -0.3421
 9876TIP3    H153823   3.538   2.228  12.069 -1.2573  1.8230 -1.0095
 9876TIP3    H253824   3.636   2.330  12.122 -1.6838  2.2795 -1.0869
 9877TIP3   OH253825   1.731   2.435   9.940  0.3474  0.0910 -0.4604
 9877TIP3    H153826   1.691   2.388   9.867 -1.4027  0.0507  0.4655
 9877TIP3    H253827   1.793   2.372   9.978 -0.1076 -0.5639 -0.7782
 9878TIP3   OH253828   2.438   1.562   9.695  0.5208 -0.4458  0.0597
 9878TIP3    H153829   2.488   1.642   9.678  0.7043 -0.5262  0.2216
 9878TIP3    H253830   2.420   1.565   9.789 -2.7109  1.3202 -0.4485
 9879TIP3   OH253831   4.026   5.196  10.237 -0.5884 -0.0126 -0.1817
 9879TIP3    H153832   3.971   5.247  10.296  0.8861  0.0402  1.2153
 9879TIP3    H253833   4.026   5.108  10.275  2.0550  0.4945  1.2132
 9880TIP3   OH253834   4.700   3.709  12.452  0.1881  0.2681  0.2999
 9880TIP3    H153835   4.723   3.617  12.468 -1.3976 -0.4319 -1.0822
 9880TIP3    H253836   4.701   3.749  12.538  1.4599 -0.8923  0.8810
 9881TIP3   OH253837   3.448   5.832  10.762  0.0989 -0.1090  0.1856
 9881TIP3    H153838   3.528   5.801  10.721  1.4968  1.4328  1.6410
 9881TIP3    H253839   3.438   5.777  10.841 -0.7342 -0.8038 -0.3768
 9882TIP3   OH253840   1.894   2.293   9.462 -0.6018 -0.4353 -0.0133
 9882TIP3    H153841   1.824   2.310   9.526 -0.8528 -0.8566 -0.1717
 9882TIP3    H253842   1.969   2.343   9.495 -1.1355  0.4689 -0.1333
 9883TIP3   OH253843   4.228   2.880   9.702 -0.2690  0.1797 -0.1858
 9883TIP3    H153844   4.217   2.956   9.759 -0.3981 -0.9449  1.3534
 9883TIP3    H253845   4.140   2.841   9.697  0.2367 -1.2682  1.1589
 9884TIP3   OH253846   0.342   1.351  11.103 -0.7590 -0.1598  0.1731
 9884TIP3    H153847   0.420   1.311  11.065 -0.4956  0.1780  0.3521
 9884TIP3    H253848   0.270   1.321  11.047 -0.0929  2.7629 -2.5627
 9885TIP3   OH253849   6.059   0.854  12.191 -0.1273  0.3031 -0.2610
 9885TIP3    H153850   6.053   0.895  12.277  0.2940  1.6876 -0.8688
 9885TIP3    H253851   6.054   0.760  12.209 -0.8593  0.5944  1.1937
 9886TIP3   OH253852   2.001   5.892  12.369  0.4093  0.0048 -0.3835
 9886TIP3    H153853   2.095   5.901  12.384  0.0644  1.8705  1.1142
 9886TIP3    H253854   1.970   5.839  12.442  0.1433  0.4341 -0.1786
 9887TIP3   OH253855   5.542   5.651  10.336  0.1197 -0.7348  0.2208
 9887TIP3    H153856   5.627   5.693  10.326  0.3369 -1.5306 -1.7863
 9887TIP3    H253857   5.480   5.724  10.339  0.7927 -0.1732  0.8329
 9888TIP3   OH253858   2.398   1.682  10.798  0.3933 -0.0483 -0.1054
 9888TIP3    H153859   2.305   1.695  10.816 -0.6167 -3.6598 -1.6527
 9888TIP3    H253860   2.402   1.672  10.703  2.3360 -0.2718 -0.0388
 9889TIP3   OH253861   2.044   5.580  11.980  0.3540  0.0955  0.3666
 9889TIP3    H153862   1.990   5.512  11.940  0.0794 -0.2746  1.3235
 9889TIP3    H253863   2.043   5.652  11.918 -1.9551  0.4322  0.7147
 9890TIP3   OH253864   0.433   5.462  11.865  0.4566  0.2807 -0.5577
 9890TIP3    H153865   0.500   5.531  11.871 -0.2217  0.8453  2.0262
 9890TIP3    H253866   0.477   5.384  11.897 -0.0371  0.6599  1.1774
 9891TIP3   OH253867   0.071   3.704   9.563  0.5400  0.1618 -0.1693
 9891TIP3    H153868   0.030   3.784   9.532  0.9836  0.9995  1.2924
 9891TIP3    H253869   0.010   3.634   9.540 -0.8431  1.1658  0.3508
 9892TIP3   OH253870   2.362   3.799   9.112 -0.0630 -0.2600  0.2588
 9892TIP3    H153871   2.319   3.809   9.026 -0.1740 -0.7757  0.2535
 9892TIP3    H253872   2.294   3.760   9.168 -0.8910  2.4153  1.3137
 9893TIP3   OH253873   1.183   0.287  10.252 -0.3388 -0.5400  0.4731
 9893TIP3    H153874   1.092   0.312  10.235 -0.8602 -2.6445 -0.1072
 9893TIP3    H253875   1.180   0.242  10.336 -0.2540 -2.3455 -0.4233
 9894TIP3   OH253876   4.232   4.418  11.266  0.6446 -0.3394 -0.8696
 9894TIP3    H153877   4.300   4.360  11.300  1.2418 -0.4226 -2.1424
 9894TIP3    H253878   4.220   4.484  11.334  0.4057 -1.5830  0.3261
 9895TIP3   OH253879   6.377   3.336  12.459  0.4772 -0.2542  0.1063
 9895TIP3    H153880   6.358   3.244  12.480 -0.4584 -0.0787  0.0694
 9895TIP3    H253881   6.461   3.333  12.414 -1.0313 -1.4986 -2.8839
 9896TIP3   OH253882   3.346   5.939  11.936 -0.5845 -0.3267 -0.4340
 9896TIP3    H153883   3.357   5.991  12.016  1.5851  0.4802 -1.1680
 9896TIP3    H253884   3.264   5.970  11.898 -0.5514  0.8557  0.3815
 9897TIP3   OH253885   2.903   0.178  10.826 -0.1413 -0.0458 -0.0176
 9897TIP3    H153886   2.969   0.150  10.762  0.0773  1.9457 -0.7089
 9897TIP3    H253887   2.819   0.161  10.783  0.0081  1.7030 -1.0623
 9898TIP3   OH253888   5.275   0.028  11.409 -0.2141  0.4728 -0.0327
 9898TIP3    H153889   5.360   0.045  11.450 -0.3606  0.7027  0.1780
 9898TIP3    H253890   5.295  -0.033  11.338  0.5597  2.6066 -1.7489
 9899TIP3   OH253891   6.048   6.396  10.823  0.5538 -0.3653  0.1693
 9899TIP3    H153892   6.064   6.375  10.915 -0.4631 -2.2260 -0.0370
 9899TIP3    H253893   6.068   6.314  10.777 -0.0525  0.2122 -1.1417
 9900TIP3   OH253894   1.384   6.586  12.389  0.6239 -0.3801  0.7933
 9900TIP3    H153895   1.355   6.669  12.350  1.3140 -0.8870 -0.9022
 9900TIP3    H253896   1.479   6.592  12.388  0.6874 -1.3185  0.3378
 9901TIP3   OH253897   0.459   4.097  11.532 -0.7105 -0.1759  0.2386
 9901TIP3    H153898   0.551   4.071  11.523 -1.1529 -2.0863  0.7269
 9901TIP3    H253899   0.445   4.161  11.463  1.3940  1.3991  1.1588
 9902TIP3   OH253900   0.149   0.779  11.037  0.3525  0.1843 -0.2887
 9902TIP3    H153901   0.102   0.790  11.119  1.1046 -1.0606  0.3354
 9902TIP3    H253902   0.092   0.722  10.985  1.0103 -1.0968  0.3603
 9903TIP3   OH253903   4.546   2.913   9.431 -0.4302 -0.5969  0.0563
 9903TIP3    H153904   4.538   3.004   9.457  0.8569 -0.5695  0.4435
 9903TIP3    H253905   4.621   2.912   9.370 -1.1211 -1.2274 -0.8116
 9904TIP3   OH253906   3.847   1.327   9.569 -0.0269 -0.5257  0.0245
 9904TIP3    H153907   3.911   1.262   9.598 -1.2322 -2.3985 -1.2739
 9904TIP3    H253908   3.884   1.411   9.597  2.2033 -1.6457  0.7071
 9905TIP3   OH253909   2.160   3.162  12.225 -0.5286 -0.1557  0.2484
 9905TIP3    H153910   2.080   3.145  12.273  0.2357  0.3350  1.7468
 9905TIP3    H253911   2.158   3.256  12.206 -0.1811 -0.0872  0.5378
 9906TIP3   OH253912   6.556   2.461  10.929 -0.5482 -0.0155  0.2023
 9906TIP3    H153913   6.521   2.524  10.992  0.1346 -0.7205  1.3074
 9906TIP3    H253914   6.495   2.387  10.933 -0.6251  0.0289 -0.1313
 9907TIP3   OH253915   6.433   0.516   9.523  0.3456 -0.2577 -0.1253
 9907TIP3    H153916   6.495   0.460   9.478 -0.3073 -1.6767  0.6794
 9907TIP3    H253917   6.468   0.605   9.512  1.0936 -0.7364 -1.9013
 9908TIP3   OH253918   0.256   4.482   9.230  0.3276 -0.1990  0.6205
 9908TIP3    H153919   0.332   4.500   9.286  1.2941  1.2042 -1.0530
 9908TIP3    H253920   0.194   4.552   9.250  0.1579 -0.3892  0.7756
 9909TIP3   OH253921   4.785   6.626  11.638  0.0373 -0.0800  0.1004
 9909TIP3    H153922   4.822   6.672  11.714 -0.3705  2.8684 -1.3583
 9909TIP3    H253923   4.741   6.550  11.676 -0.0960  1.2227  2.8185
 9910TIP3   OH253924   4.177   1.281   9.375  0.7522  0.4891 -0.3133
 9910TIP3    H153925   4.118   1.297   9.449  1.5113  0.2731  0.3590
 9910TIP3    H253926   4.142   1.335   9.304  0.5047  1.3844  0.4638
 9911TIP3   OH253927   3.546   4.453  11.160 -0.6135 -0.5034 -0.8271
 9911TIP3    H153928   3.478   4.490  11.215  0.9491  1.6542 -0.2132
 9911TIP3    H253929   3.518   4.363  11.144 -3.6370  0.3165 -0.7436
 9912TIP3   OH253930   4.798   6.548  10.196 -0.0627  0.3659 -0.1861
 9912TIP3    H153931   4.743   6.587  10.127  0.6101  0.8538 -0.4523
 9912TIP3    H253932   4.878   6.521  10.151  0.5106  0.9644  0.4485
 9913TIP3   OH253933   6.276   0.473  10.753 -0.5405 -0.3770 -0.0703
 9913TIP3    H153934   6.329   0.446  10.828  0.9284  0.6274 -0.7170
 9913TIP3    H253935   6.231   0.393  10.726  1.3957 -1.5188 -0.0869
 9914TIP3   OH253936   6.265   2.327  12.233  0.2189 -0.0284 -0.1085
 9914TIP3    H153937   6.253   2.282  12.317  0.7626 -1.3179 -0.7078
 9914TIP3    H253938   6.323   2.270  12.183  0.0397  0.8141 -1.3079
 9915TIP3   OH253939   0.397   6.032   9.276  0.2706  0.4698 -0.2957
 9915TIP3    H153940   0.387   5.939   9.297 -0.0674  0.8301  1.2720
 9915TIP3    H253941   0.491   6.043   9.259  0.0979 -0.4354 -2.1525
 9916TIP3   OH253942   4.863   3.804  11.414  0.3194 -0.1990 -0.2260
 9916TIP3    H153943   4.859   3.753  11.495 -1.3207  0.7586  0.3259
 9916TIP3    H253944   4.797   3.765  11.357  1.4289 -0.8359 -1.1330
 9917TIP3   OH253945   1.092   5.328  10.755 -0.0488 -0.0122 -0.2947
 9917TIP3    H153946   1.064   5.244  10.791 -1.4009  0.7459  0.5164
 9917TIP3    H253947   1.172   5.308  10.706  0.3692 -1.5494  0.9263
 9918TIP3   OH253948   0.694   2.677  10.124 -0.2207 -0.1323 -0.5097
 9918TIP3    H153949   0.652   2.724  10.196  1.0025 -2.2290  1.6953
 9918TIP3    H253950   0.640   2.599  10.112 -0.5429  0.2965 -2.1043
 9919TIP3   OH253951   3.507   0.420   9.510 -0.2071 -0.8356 -0.4418
 9919TIP3    H153952   3.557   0.501   9.509 -1.4917 -0.0045 -1.3652
 9919TIP3    H253953   3.438   0.435   9.575 -1.2079 -0.6573 -1.5003
 9920TIP3   OH253954   4.347   0.646  12.041 -0.0411 -0.1631 -0.2567
 9920TIP3    H153955   4.310   0.626  12.127  1.1731 -0.3117  0.2446
 9920TIP3    H253956   4.417   0.708  12.059 -0.9671  1.2684 -1.3471
 9921TIP3   OH253957   4.948   3.694   9.630  0.1724 -0.5187  0.2718
 9921TIP3    H153958   5.032   3.739   9.624 -0.8551  1.4090 -0.2889
 9921TIP3    H253959   4.949   3.631   9.558  0.6725  0.3137 -0.4673
 9922TIP3   OH253960   0.009   3.392  12.092 -0.0135 -0.4386 -0.0695
 9922TIP3    H153961   0.034   3.365  12.003  3.1069  0.8708  0.2803
 9922TIP3    H253962   0.036   3.320  12.148  1.2802  0.1635  0.1149
 9923TIP3   OH253963   0.785   4.050  11.602  0.4885 -0.0575  0.1222
 9923TIP3    H153964   0.871   4.009  11.609  0.6245  0.4236  1.7109
 9923TIP3    H253965   0.732   4.006  11.669 -0.3227  0.1143 -0.3864
 9924TIP3   OH253966   5.363   5.378   9.822  0.5901  0.7991 -0.2204
 9924TIP3    H153967   5.361   5.287   9.790  2.2004 -0.3455  2.5174
 9924TIP3    H253968   5.281   5.416   9.793  0.2715 -1.2359 -2.2621
 9925TIP3   OH253969   3.130   6.376   9.775  0.4102 -0.1591  0.1049
 9925TIP3    H153970   3.157   6.395   9.865  2.7021  0.2035 -0.5721
 9925TIP3    H253971   3.199   6.416   9.721 -2.0405  1.6448 -1.9486
 9926TIP3   OH253972   0.125   2.513  11.385 -0.0547 -0.0877 -0.2672
 9926TIP3    H153973   0.163   2.479  11.304  0.5239  1.3393 -0.6147
 9926TIP3    H253974   0.086   2.597  11.361  1.8460  1.3401  1.2887
 9927TIP3   OH253975   2.756   3.385   9.773 -0.2935  0.2204 -0.4918
 9927TIP3    H153976   2.748   3.373   9.868 -0.1300 -1.4106 -0.6555
 9927TIP3    H253977   2.831   3.444   9.763 -0.1865  0.2531  0.3946
 9928TIP3   OH253978   4.347   4.776  11.465 -0.1667  0.3626 -0.2328
 9928TIP3    H153979   4.407   4.737  11.402 -0.3118  0.0420 -0.1771
 9928TIP3    H253980   4.360   4.870  11.456  0.1579  0.3025 -0.4010
 9929TIP3   OH253981   1.407   1.541   9.210  0.1272  0.4241  0.1753
 9929TIP3    H153982   1.456   1.567   9.132 -0.9286  0.7929 -0.3816
 9929TIP3    H253983   1.453   1.583   9.282  0.8062  0.5086 -0.2965
 9930TIP3   OH253984   0.500   2.130  13.134  0.2128 -0.3086 -0.8815
 9930TIP3    H153985   0.521   2.211  13.087  1.2932 -1.0152 -1.6821
 9930TIP3    H253986   0.579   2.111  13.185 -0.6515  0.0090  0.6089
 9931TIP3   OH253987   3.621   1.698  10.818  0.2468 -0.2136  0.0025
 9931TIP3    H153988   3.540   1.743  10.840 -0.9807 -2.1805 -0.3128
 9931TIP3    H253989   3.644   1.732  10.731  0.4233  1.1858  0.5675
 9932TIP3   OH253990   3.502   3.087   9.890 -0.2630 -0.5280 -0.4575
 9932TIP3    H153991   3.594   3.076   9.913 -0.8272 -0.5198  2.0702
 9932TIP3    H253992   3.467   2.998   9.885  0.2178 -0.6636 -3.4005
 9933TIP3   OH253993   2.358   0.991  12.178 -0.2877 -0.1107 -0.3087
 9933TIP3    H153994   2.422   1.045  12.133 -1.5324  2.1671  0.4596
 9933TIP3    H253995   2.404   0.909  12.196  1.2560  0.1137 -2.7500
 9934TIP3   OH253996   0.315   1.545  10.369 -0.5006 -0.3747  0.6498
 9934TIP3    H153997   0.247   1.612  10.356  0.1451  0.4142  1.2046
 9934TIP3    H253998   0.337   1.551  10.462  2.6944  1.8200 -0.0341
 9935TIP3   OH253999   5.681   4.730  10.417 -0.7834  0.4110  0.0347
 9935TIP3    H154000   5.720   4.642  10.416  0.4289  0.9309 -0.0201
 9935TIP3    H254001   5.649   4.741  10.506 -1.9552 -0.4945 -0.2387
 9936TIP3   OH254002   4.379   4.017  10.974  0.3484 -0.3269 -0.1175
 9936TIP3    H154003   4.462   3.971  10.980  0.8451  0.4274 -0.9556
 9936TIP3    H254004   4.329   3.968  10.908 -0.5728 -1.7839  1.5796
 9937TIP3   OH254005   4.580   3.725   9.862 -0.3847  0.4700  0.3660
 9937TIP3    H154006   4.582   3.753   9.954 -0.9677  1.0426  0.2135
 9937TIP3    H254007   4.627   3.794   9.815  0.9940 -0.4218  0.3614
 9938TIP3   OH254008   3.572   1.086  11.109 -0.2587  0.7584 -0.2552
 9938TIP3    H154009   3.583   1.104  11.016  0.8646  2.7432  0.2137
 9938TIP3    H254010   3.575   1.172  11.151 -0.0781 -0.1430  1.6772
 9939TIP3   OH254011   1.193   1.663   9.341  0.1001 -0.4470  0.4649
 9939TIP3    H154012   1.270   1.632   9.293  1.8303  0.9172  2.1673
 9939TIP3    H254013   1.196   1.758   9.330 -0.6507 -0.2885  1.5394
 9940TIP3   OH254014   3.390   2.878  10.409 -0.5933 -0.2703  0.1638
 9940TIP3    H154015   3.438   2.871  10.327  0.6669 -0.3399  0.8742
 9940TIP3    H254016   3.355   2.967  10.410  1.4022  0.5681  0.5821
 9941TIP3   OH254017   2.253   1.537  11.393  0.6289  0.0157  0.1453
 9941TIP3    H154018   2.193   1.567  11.461  0.5690 -0.2180  0.1957
 9941TIP3    H254019   2.340   1.557  11.427  0.5471  1.6107 -0.5160
 9942TIP3   OH254020   5.557   6.605  11.730  0.1236  0.0423  0.2796
 9942TIP3    H154021   5.470   6.594  11.693 -0.2135 -1.6625  1.4137
 9942TIP3    H254022   5.542   6.653  11.812  0.1881 -0.5530  0.6460
 9943TIP3   OH254023   0.491   0.245   9.999 -0.0966 -0.3014  0.5639
 9943TIP3    H154024   0.528   0.321   9.955 -0.1194 -0.4788  0.2355
 9943TIP3    H254025   0.540   0.171   9.964 -2.6874 -0.9118 -2.1814
 9944TIP3   OH254026   5.574   4.624   9.756  0.4261  0.1065 -0.6054
 9944TIP3    H154027   5.524   4.641   9.836  0.5623  0.5551 -0.6146
 9944TIP3    H254028   5.570   4.529   9.746 -0.4598  0.1328 -0.6246
 9945TIP3   OH254029   4.261   4.987  11.141 -0.1550  0.2826 -0.1767
 9945TIP3    H154030   4.339   5.001  11.194  0.5400  0.5646 -1.2314
 9945TIP3    H254031   4.263   4.893  11.119  0.0919  0.3565 -0.4879
 9946TIP3   OH254032   5.775   2.680  10.122 -0.1298 -0.0490 -0.0710
 9946TIP3    H154033   5.747   2.733  10.196  0.3048  0.6330 -0.3891
 9946TIP3    H254034   5.694   2.664  10.072 -0.1900  0.7716 -0.2586
 9947TIP3   OH254035   4.255   3.243  10.755  0.2779 -0.5205 -0.1153
 9947TIP3    H154036   4.197   3.268  10.826  2.0318 -0.9817  1.5634
 9947TIP3    H254037   4.213   3.167  10.715 -1.0406  0.1191 -0.0067
 9948TIP3   OH254038   2.290   6.321  10.927 -0.6086  0.2607 -0.2919
 9948TIP3    H154039   2.284   6.261  10.853 -1.7287  1.2846 -1.0723
 9948TIP3    H254040   2.207   6.369  10.926 -0.1141  1.1924  0.8391
 9949TIP3   OH254041   2.136   3.463  12.233 -0.3539  0.0532 -0.3151
 9949TIP3    H154042   2.044   3.488  12.225 -0.2867  1.2619  1.9607
 9949TIP3    H254043   2.168   3.511  12.310  1.0531 -3.4943  1.5575
 9950TIP3   OH254044   0.701   5.609  12.230  0.2694 -0.7380  0.3717
 9950TIP3    H154045   0.750   5.639  12.154  0.4254  0.5332  0.9434
 9950TIP3    H254046   0.675   5.690  12.275 -0.5283 -1.4457  1.2114
 9951TIP3   OH254047   0.792   0.891   9.688  0.1358 -0.4524 -0.3444
 9951TIP3    H154048   0.731   0.965   9.683 -1.2254 -1.4530  0.7723
 9951TIP3    H254049   0.810   0.868   9.597  0.3955  1.0705 -0.7105
 9952TIP3   OH254050   2.957   4.259   9.816  0.2186 -0.0344  0.3050
 9952TIP3    H154051   2.947   4.321   9.888  0.1476  0.1872  0.1051
 9952TIP3    H254052   3.051   4.262   9.795  0.3037 -0.3630  0.6198
 9953TIP3   OH254053   5.158   5.551  11.432 -0.1414  0.5294 -0.0112
 9953TIP3    H154054   5.153   5.468  11.384 -0.1480  1.5201 -1.8077
 9953TIP3    H254055   5.073   5.558  11.477 -0.9542  0.5050 -1.5004
 9954TIP3   OH254056   3.070   0.324  10.471  0.2726 -0.1910 -0.2666
 9954TIP3    H154057   3.041   0.252  10.526  0.5128 -1.1893 -1.4101
 9954TIP3    H254058   3.152   0.353  10.511  0.0887 -0.4449  0.2984
 9955TIP3   OH254059   1.091   3.378   9.568 -0.1468  0.0211 -0.0808
 9955TIP3    H154060   1.039   3.418   9.499 -0.3358 -0.2752 -0.1121
 9955TIP3    H254061   1.082   3.284   9.554 -0.8831 -0.0658  0.8625
 9956TIP3   OH254062   4.191   1.972   9.447  0.4028 -0.0243  0.1097
 9956TIP3    H154063   4.281   1.969   9.415  0.7899  1.6203  0.9412
 9956TIP3    H254064   4.159   2.058   9.420 -1.3476 -1.0218 -1.1808
 9957TIP3   OH254065   0.137   2.221   9.497  0.3011 -0.2132  0.4562
 9957TIP3    H154066   0.200   2.285   9.530  1.2933 -0.3478 -1.0585
 9957TIP3    H254067   0.146   2.226   9.401 -0.3106 -1.9069  0.2781
 9958TIP3   OH254068   4.354   4.948  10.331 -1.1358 -0.5244 -0.1549
 9958TIP3    H154069   4.291   4.879  10.348 -0.3696 -0.5763  3.0353
 9958TIP3    H254070   4.328   5.020  10.389  1.5185 -0.4628  1.0997
 9959TIP3   OH254071   2.181   2.382   9.508  0.3621 -0.8277 -0.4168
 9959TIP3    H154072   2.244   2.382   9.436  1.0707 -0.4358  0.1907
 9959TIP3    H254073   2.215   2.447   9.569 -2.2795  1.7558 -1.4603
 9960TIP3   OH254074   1.995   5.756   9.491  0.2039  0.1965  0.1709
 9960TIP3    H154075   2.037   5.809   9.424 -1.1774  2.4862  0.9866
 9960TIP3    H254076   2.067   5.711   9.535  1.4517  1.3161 -0.6424
 9961TIP3   OH254077   4.369   2.276  10.551  0.4334  0.0645 -0.0340
 9961TIP3    H154078   4.336   2.272  10.462  2.8537 -0.5223 -0.9980
 9961TIP3    H254079   4.412   2.362  10.557 -0.9508  0.7111  1.0841
 9962TIP3   OH254080   1.062   4.683  13.008  0.0373 -0.4547 -0.6778
 9962TIP3    H154081   1.139   4.628  12.999 -0.5520 -1.2503 -0.9716
 9962TIP3    H254082   0.993   4.636  12.962 -0.4099  0.6910 -1.2205
 9963TIP3   OH254083   2.304   2.714  10.507  0.9472 -0.5365  0.3469
 9963TIP3    H154084   2.306   2.634  10.558 -0.4817  0.2894  1.7968
 9963TIP3    H254085   2.323   2.783  10.570 -0.0506  0.4525 -0.3977
 9964TIP3   OH254086   3.098   1.856   9.959  0.2669  0.2207 -0.2519
 9964TIP3    H154087   3.062   1.944   9.948 -2.4073 -0.6494  0.7477
 9964TIP3    H254088   3.140   1.858  10.045  1.0224  0.7333 -0.6195
 9965TIP3   OH254089   2.067   1.494  12.474 -0.1044 -0.6610  0.4566
 9965TIP3    H154090   2.014   1.493  12.554 -2.1073  2.5421 -0.6563
 9965TIP3    H254091   2.104   1.582  12.471  0.4765 -0.9285 -1.7691
 9966TIP3   OH254092   0.808   5.347  10.702  0.1834  0.0503  0.1646
 9966TIP3    H154093   0.891   5.303  10.682 -0.9927 -1.7307 -1.0894
 9966TIP3    H254094   0.829   5.406  10.774  2.7220  0.2966 -0.6900
 9967TIP3   OH254095   1.564   3.142  10.149 -0.0460 -0.2120  0.3078
 9967TIP3    H154096   1.654   3.118  10.126 -0.5399 -1.2747 -0.6561
 9967TIP3    H254097   1.521   3.157  10.065 -0.4394  1.6715  0.7971
 9968TIP3   OH254098   3.269   0.357  11.153 -0.3662  0.3835 -0.1385
 9968TIP3    H154099   3.294   0.450  11.161 -0.2754  0.3774 -0.3244
 9968TIP3    H254100   3.284   0.321  11.240 -1.2588  0.7433  0.1798
 9969TIP3   OH254101   4.874   2.271  11.410  0.6854  0.2753 -0.0206
 9969TIP3    H154102   4.833   2.347  11.370  0.6666 -0.2197 -0.9664
 9969TIP3    H254103   4.920   2.228  11.338  2.4755  0.5509  0.9144
 9970TIP3   OH254104   6.093   3.657   9.273 -0.5193 -0.4635  0.1939
 9970TIP3    H154105   6.046   3.614   9.201 -0.1331 -0.3113 -0.1554
 9970TIP3    H254106   6.134   3.734   9.231  0.8985 -1.1517  0.2699
 9971TIP3   OH254107   0.627   1.889   9.085 -0.9487  0.1079 -0.5044
 9971TIP3    H154108   0.567   1.962   9.103  0.8385  1.7047 -0.6563
 9971TIP3    H254109   0.701   1.904   9.144  0.2570 -0.5697 -1.7865
 9972TIP3   OH254110   6.057   5.484   9.720  0.3402 -0.0152  1.3411
 9972TIP3    H154111   6.107   5.403   9.728  0.8703  0.0349 -1.0116
 9972TIP3    H254112   6.121   5.553   9.732 -0.0032  0.1024  2.7099
 9973TIP3   OH254113   3.087   2.423  11.421  0.1756 -0.1902 -0.2848
 9973TIP3    H154114   3.002   2.383  11.404  0.2952 -0.9323  0.7985
 9973TIP3    H254115   3.100   2.483  11.347 -0.2817 -1.6961 -1.6498
 9974TIP3   OH254116   3.229   3.210  11.450  0.0863  0.1625 -0.5394
 9974TIP3    H154117   3.300   3.271  11.470  0.3367 -0.3290  0.1075
 9974TIP3    H254118   3.194   3.186  11.536 -0.0202 -0.5952 -0.7933
 9975TIP3   OH254119   0.421   3.362   9.010  0.3317  0.1878  0.4287
 9975TIP3    H154120   0.423   3.321   9.097 -0.6525  0.1324  0.4346
 9975TIP3    H254121   0.486   3.313   8.960 -0.3973 -1.0161  0.6143
 9976TIP3   OH254122   3.367   0.222  12.363 -0.0807 -0.2076  0.0915
 9976TIP3    H154123   3.326   0.293  12.313 -1.1856 -1.5280 -0.9781
 9976TIP3    H254124   3.317   0.144  12.338  0.5284 -1.2240  1.9067
 9977TIP3   OH254125   6.687   3.880   9.961  0.0018  0.0240  0.5329
 9977TIP3    H154126   6.623   3.939  10.001  0.3806  1.2126 -0.5740
 9977TIP3    H254127   6.702   3.915   9.873  1.9133 -0.4166  0.6262
 9978TIP3   OH254128   2.217   5.746  12.420  0.0255 -0.1851 -0.0924
 9978TIP3    H154129   2.144   5.695  12.455 -0.4746 -0.1836 -1.1130
 9978TIP3    H254130   2.228   5.818  12.482 -0.8347 -0.1890  0.0666
 9979TIP3   OH254131   2.312   3.963  10.448  0.2199  0.5331 -0.2761
 9979TIP3    H154132   2.302   3.962  10.353  0.3474 -0.2822 -0.2838
 9979TIP3    H254133   2.268   3.883  10.478  1.7186 -0.1492  0.1875
 9980TIP3   OH254134   4.768   1.757  10.051  0.3339 -0.4467  0.6558
 9980TIP3    H154135   4.732   1.827  10.105 -1.7486 -0.0404 -1.1032
 9980TIP3    H254136   4.798   1.691  10.114 -0.2455  0.7882  2.3064
 9981TIP3   OH254137   6.320   5.664  10.727  0.3850  0.0646  0.1308
 9981TIP3    H154138   6.283   5.602  10.790  0.8502  2.0952  2.5914
 9981TIP3    H254139   6.393   5.618  10.687 -0.5482 -1.6509  0.3317
 9982TIP3   OH254140   5.866   3.201   9.262  0.0009 -0.0434  0.2299
 9982TIP3    H154141   5.943   3.209   9.319  0.7419  0.1764 -0.7753
 9982TIP3    H254142   5.864   3.108   9.238 -0.1189 -0.0729  0.3549
 9983TIP3   OH254143   4.742   2.486  11.280 -0.2780 -0.3124 -0.3939
 9983TIP3    H154144   4.693   2.550  11.332 -0.7708 -0.8376 -0.1981
 9983TIP3    H254145   4.754   2.527  11.195 -0.2485  0.1940 -0.1469
 9984TIP3   OH254146   0.281   5.049  11.793  0.1210 -0.3896 -0.0171
 9984TIP3    H154147   0.259   5.078  11.881 -0.6636  0.2483 -0.4117
 9984TIP3    H254148   0.209   4.992  11.767  0.4550 -0.7480 -0.1700
 9985TIP3   OH254149   2.815   3.872  10.364 -0.5829  0.1463  0.3950
 9985TIP3    H154150   2.816   3.875  10.268 -0.2715  0.3302  0.4024
 9985TIP3    H254151   2.856   3.789  10.386  1.3222  1.0262  0.4010
 9986TIP3   OH254152   3.973   4.483   9.110  0.3636 -0.1602 -0.1582
 9986TIP3    H154153   3.897   4.427   9.098  1.1980 -1.6296  1.0936
 9986TIP3    H254154   4.043   4.423   9.135  1.6428  1.2942 -0.1052
 9987TIP3   OH254155   0.033   4.626  10.306 -0.2063  0.1323 -0.3170
 9987TIP3    H154156  -0.062   4.621  10.298 -0.4824  1.2915  1.6294
 9987TIP3    H254157   0.066   4.576  10.231 -2.3434 -1.9987  0.0358
 9988TIP3   OH254158   0.938   6.088   9.246 -0.3611  0.4355  0.1054
 9988TIP3    H154159   1.004   6.019   9.250 -1.3633 -0.7374 -2.0633
 9988TIP3    H254160   0.983   6.162   9.205  0.1177  0.3390  0.4478
 9989TIP3   OH254161   1.176   0.944  10.040 -0.6732  0.0801 -0.0485
 9989TIP3    H154162   1.213   0.893   9.968 -0.4881  1.0143 -0.6267
 9989TIP3    H254163   1.095   0.980  10.004  0.0023  1.5132 -0.1955
 9990TIP3   OH254164   0.511   5.179  10.635 -0.5232 -0.1153 -0.4248
 9990TIP3    H154165   0.475   5.125  10.565 -0.9514 -0.5287  0.1023
 9990TIP3    H254166   0.587   5.131  10.667 -0.4497 -0.0278 -0.4678
 9991TIP3   OH254167   3.586   0.740   9.779 -0.7991  0.9619  0.6129
 9991TIP3    H154168   3.538   0.659   9.797 -3.4651  2.1703 -0.4403
 9991TIP3    H254169   3.654   0.742   9.846 -1.1828 -1.6911  1.2288
 9992TIP3   OH254170   1.485   1.238  12.076 -0.0827  0.1549 -0.2206
 9992TIP3    H154171   1.559   1.206  12.128  1.0523  1.2389 -1.1111
 9992TIP3    H254172   1.409   1.224  12.132  0.9636  0.3428  1.3113
 9993TIP3   OH254173   1.359   4.241  11.471 -0.2992  0.5177 -0.1225
 9993TIP3    H154174   1.339   4.226  11.378  1.1473 -0.4391 -0.3096
 9993TIP3    H254175   1.394   4.158  11.501 -0.3819  0.9464  1.2002
 9994TIP3   OH254176   0.005   5.232  11.844  0.6030 -0.5388 -0.5037
 9994TIP3    H154177   0.052   5.203  11.922 -0.4868 -2.2905 -0.4493
 9994TIP3    H254178  -0.068   5.284  11.878  0.6271 -0.5729 -0.3995
 9995TIP3   OH254179   0.030   4.929  11.792 -0.3004 -0.3866  0.3515
 9995TIP3    H154180  -0.014   4.919  11.876 -1.0309 -1.0800 -0.1047
 9995TIP3    H254181   0.005   5.016  11.762  0.3456  0.0576  1.0527
 9996TIP3   OH254182   5.914   3.389  11.019  0.3490 -0.1051 -0.8752
 9996TIP3    H154183   5.885   3.345  10.939 -0.8560 -0.7706 -0.1086
 9996TIP3    H254184   5.875   3.477  11.013  3.3075  1.2325 -2.7269
 9997TIP3   OH254185   6.514   4.571  10.246  0.2769 -0.0815 -0.3014
 9997TIP3    H154186   6.510   4.515  10.168  0.6457  0.9802 -1.1116
 9997TIP3    H254187   6.423   4.580  10.274  0.0999 -0.1662 -0.8400
 9998TIP3   OH254188   0.174   3.252   9.220  0.1971 -0.0331  0.4189
 9998TIP3    H154189   0.248   3.211   9.175 -1.0558 -1.1718 -0.6998
 9998TIP3    H254190   0.211   3.332   9.258  1.9760 -0.5267 -0.1440
 9999TIP3   OH254191   3.519   4.357   9.608 -0.1539  0.0966  0.0845
 9999TIP3    H154192   3.550   4.411   9.536 -0.3075 -1.3797 -1.1281
 9999TIP3    H254193   3.506   4.419   9.680 -0.4105  1.6894 -1.2639
10000TIP3   OH254194   6.429   3.678  11.778  0.8963  0.1009  0.6052
10000TIP3    H154195   6.390   3.631  11.704  0.2422  1.7537 -0.1404
10000TIP3    H254196   6.436   3.612  11.847  0.9795 -1.3388 -0.7319
10001TIP3   OH254197   1.480   1.401   9.746 -0.0778  0.0355 -0.5649
10001TIP3    H154198   1.559   1.376   9.700  0.3312  1.4947 -0.7011
10001TIP3    H254199   1.462   1.328   9.806  0.4091 -1.0504 -1.7138
10002TIP3   OH254200   4.022   2.936  10.817  0.3731 -0.0467  0.3352
10002TIP3    H154201   4.041   2.872  10.886  0.6009 -0.7540 -0.3621
10002TIP3    H254202   4.108   2.954  10.777  0.3546  0.9141  0.6906
10003TIP3   OH254203   4.775   2.853  10.286  0.1512 -0.8551 -0.1390
10003TIP3    H154204   4.836   2.880  10.355  0.7710 -0.6738 -0.7559
10003TIP3    H254205   4.813   2.772  10.251 -0.1904 -0.9737 -0.2362
10004TIP3   OH254206   0.344   1.944  12.090 -0.6299  0.4633  0.7984
10004TIP3    H154207   0.350   2.036  12.116  2.1482  0.2518  1.2315
10004TIP3    H254208   0.349   1.896  12.173 -0.8003 -0.1034  0.4826
10005TIP3   OH254209   1.438   2.029  10.376  0.1163 -0.6374  0.3557
10005TIP3    H154210   1.382   1.952  10.371 -0.4120 -0.2462  0.0093
10005TIP3    H254211   1.376   2.103  10.374  0.6258 -0.2044  0.4036
10006TIP3   OH254212   4.173   2.584  11.260 -0.3852 -0.4006  0.2209
10006TIP3    H154213   4.130   2.532  11.328  0.2058 -1.7768 -0.4169
10006TIP3    H254214   4.266   2.576  11.278 -0.2445  3.7584  2.4728
10007TIP3   OH254215   0.007   5.265  12.536 -0.1896  0.1279 -0.3342
10007TIP3    H154216  -0.065   5.232  12.482 -2.0089  0.6016  1.6646
10007TIP3    H254217  -0.036   5.296  12.616  2.5263 -2.6219  2.4488
10008TIP3   OH254218   3.038   3.487  12.039 -0.6633 -0.2303 -0.2576
10008TIP3    H154219   2.992   3.555  11.989 -1.4533 -1.0190 -0.6227
10008TIP3    H254220   2.979   3.466  12.111  0.2578  0.5438  0.7550
10009TIP3   OH254221   3.856   6.007  11.389  0.1616 -0.1037 -0.5775
10009TIP3    H154222   3.816   5.985  11.305 -1.9276 -0.3500  0.4178
10009TIP3    H254223   3.785   6.044  11.441  1.4031  0.1004  1.0793
10010TIP3   OH254224   6.658   1.541  11.553  0.4978  0.6130  0.1739
10010TIP3    H154225   6.701   1.536  11.468 -0.1997  2.5433 -0.3396
10010TIP3    H254226   6.571   1.502  11.538  0.9358 -0.5251  0.4520
10011TIP3   OH254227   3.932   2.940  11.239  0.1330  0.1153 -0.5021
10011TIP3    H154228   3.847   2.905  11.215 -1.5432  3.4317  0.0484
10011TIP3    H254229   3.994   2.891  11.185 -2.3830 -0.4425 -3.1422
10012TIP3   OH254230   0.901   4.752  11.941  0.2321  0.0929  0.2079
10012TIP3    H154231   0.996   4.762  11.941  0.1999  0.4388  0.3924
10012TIP3    H254232   0.873   4.789  12.025 -0.1548  0.9360 -0.2771
10013TIP3   OH254233   1.649   5.562  10.971 -0.3660  0.3078  0.0246
10013TIP3    H154234   1.612   5.528  10.889 -0.1721  2.1207 -0.8629
10013TIP3    H254235   1.739   5.530  10.973 -0.9095 -1.3002  0.5065
10014TIP3   OH254236   4.544   1.738  11.278  0.2689 -0.6191 -0.1686
10014TIP3    H154237   4.588   1.819  11.305  0.7557 -0.7408 -0.5834
10014TIP3    H254238   4.499   1.760  11.197 -1.6993 -0.0909  1.0056
10015TIP3   OH254239   2.637   5.651  10.249  0.9579  0.8442  1.0095
10015TIP3    H154240   2.713   5.690  10.206  0.3001  1.6834  0.5687
10015TIP3    H254241   2.618   5.710  10.322  0.5978  0.7642  0.9841
10016TIP3   OH254242   2.670   6.475   9.836  0.8340  0.2902  0.0492
10016TIP3    H154243   2.647   6.453   9.926  0.0123 -1.3883 -0.5219
10016TIP3    H254244   2.585   6.485   9.791  1.2043 -0.4884 -0.8671
10017TIP3   OH254245   2.572   4.672  12.312 -0.9995  0.6414  0.1127
10017TIP3    H154246   2.611   4.728  12.379 -0.5199  0.4272  0.0181
10017TIP3    H254247   2.615   4.698  12.231 -0.2958 -0.3026  0.1679
10018TIP3   OH254248   6.332   0.153  11.395  0.4690 -0.4272 -0.0932
10018TIP3    H154249   6.357   0.183  11.308 -2.3391  1.5470 -0.3587
10018TIP3    H254250   6.267   0.084  11.378  1.1994 -1.2916  0.5084
10019TIP3   OH254251   6.328   0.700  10.962  0.1109  0.0978  0.9715
10019TIP3    H154252   6.394   0.742  11.017 -0.1837  0.3366  1.1441
10019TIP3    H254253   6.251   0.757  10.968 -0.4677 -0.7225  1.6285
10020TIP3   OH254254   5.482   0.317  10.671 -1.0634  0.2880 -0.5933
10020TIP3    H154255   5.494   0.348  10.761  0.2137 -0.5032 -0.4698
10020TIP3    H254256   5.568   0.326  10.630 -1.3941 -0.2713 -1.4438
10021TIP3   OH254257   6.404   3.702   9.950 -0.3664 -0.4713 -0.0088
10021TIP3    H154258   6.463   3.773   9.976  0.6946 -1.7004  1.0608
10021TIP3    H254259   6.413   3.699   9.855 -2.1647  2.2565 -0.3815
10022TIP3   OH254260   1.881   1.368  10.503 -0.1628 -0.4496 -0.6489
10022TIP3    H154261   1.917   1.328  10.583  2.0548 -1.6679 -2.1460
10022TIP3    H254262   1.918   1.456  10.502 -2.6919  0.7459  1.1517
10023TIP3   OH254263   5.792   4.729   9.231  0.7007  0.0048 -0.2000
10023TIP3    H154264   5.859   4.665   9.253 -2.4068 -2.9845  1.3611
10023TIP3    H254265   5.787   4.787   9.307 -0.7309 -1.9276  1.2686
10024TIP3   OH254266   6.241   4.225  10.296  0.2792 -0.3633  0.3511
10024TIP3    H154267   6.310   4.177  10.250 -1.0628  0.5042 -2.9017
10024TIP3    H254268   6.167   4.165  10.297 -0.0978  0.0979  0.2272
10025TIP3   OH254269   4.270   6.400  11.840  0.8304 -0.7959 -0.5773
10025TIP3    H154270   4.206   6.350  11.892 -0.5856  0.0891 -1.4144
10025TIP3    H254271   4.350   6.397  11.893 -0.3972 -0.3448  1.4327
10026TIP3   OH254272   4.198   0.130  11.784  0.5141 -0.5002  0.3558
10026TIP3    H154273   4.216   0.060  11.847 -0.8878 -1.0185  0.2092
10026TIP3    H254274   4.105   0.123  11.766  0.5537  0.7591 -0.4635
10027TIP3   OH254275   1.299   2.461   9.376 -0.2471 -0.5373  0.0034
10027TIP3    H154276   1.328   2.415   9.297 -1.0636 -1.7777  0.3921
10027TIP3    H254277   1.379   2.469   9.429  0.0255 -1.0363 -0.3166
10028TIP3   OH254278   0.422   6.705  12.479  0.2712  0.0175  0.3837
10028TIP3    H154279   0.411   6.696  12.573 -0.2617  0.8603  0.4123
10028TIP3    H254280   0.507   6.748  12.468  0.0498  0.4935  0.5131
10029TIP3   OH254281   4.526   0.751   9.917 -0.3305 -0.0451  0.2487
10029TIP3    H154282   4.567   0.666   9.927  0.2070  0.3237  1.3950
10029TIP3    H254283   4.433   0.732   9.907 -0.4005 -0.7455  1.8614
10030TIP3   OH254284   3.682   5.227  10.976 -0.2749 -0.6468 -0.3224
10030TIP3    H154285   3.650   5.314  11.000 -0.5716 -0.8636  0.0691
10030TIP3    H254286   3.660   5.172  11.051 -0.4927 -1.1577 -0.7617
10031TIP3   OH254287   6.125   3.872  12.124 -0.2176  0.3979  0.0501
10031TIP3    H154288   6.089   3.952  12.086  1.6284  1.4061  0.2751
10031TIP3    H254289   6.159   3.899  12.210 -0.1627 -0.7849  0.4205
10032TIP3   OH254290   2.137   6.318  11.947 -0.7038  0.4687  0.8828
10032TIP3    H154291   2.190   6.377  12.001  0.0479  0.6805 -0.0627
10032TIP3    H254292   2.054   6.364  11.936 -0.1732  1.3037  0.2725
10033TIP3   OH254293   4.791   0.689  10.119  0.0774 -1.1871 -0.0208
10033TIP3    H154294   4.824   0.683  10.208  0.0732 -2.8580 -0.1140
10033TIP3    H254295   4.803   0.781  10.095  1.9428 -1.1432  0.9739
10034TIP3   OH254296   0.674   0.196  11.879 -0.6319  0.7414  0.9043
10034TIP3    H154297   0.634   0.256  11.816 -2.9114 -0.6926  0.9015
10034TIP3    H254298   0.610   0.187  11.949 -0.2087 -1.3888  1.0872
10035TIP3   OH254299   4.571   6.721  11.848  0.4680 -0.1346 -0.4071
10035TIP3    H154300   4.517   6.756  11.778  2.5960  0.5195 -1.8221
10035TIP3    H254301   4.527   6.748  11.928 -1.1014  0.6150 -1.4800
10036TIP3   OH254302   4.977   2.211  11.185  0.2099 -0.2625  0.6237
10036TIP3    H154303   4.928   2.130  11.172 -0.6800  0.4133 -0.5193
10036TIP3    H254304   5.049   2.206  11.123  0.3802 -0.3484  0.8282
10037TIP3   OH254305   3.233   0.666  11.744 -0.2350 -0.5332  0.0414
10037TIP3    H154306   3.299   0.645  11.809  1.6203 -0.3157 -1.6858
10037TIP3    H254307   3.256   0.613  11.668 -2.2514 -0.6805 -0.5173
10038TIP3   OH254308   4.702   4.414   9.150  0.2167 -0.3373 -0.5005
10038TIP3    H154309   4.691   4.509   9.159  0.1394 -0.4739  1.1242
10038TIP3    H254310   4.712   4.400   9.056 -2.0815  1.0225 -1.0207
10039TIP3   OH254311   5.951   0.170  11.216 -0.0747  0.7313 -0.6810
10039TIP3    H154312   5.940   0.238  11.149 -2.7442  0.1000 -0.9814
10039TIP3    H254313   5.934   0.215  11.298  1.9790  1.2188 -0.4551
10040TIP3   OH254314   0.498   3.452  10.602  0.4504 -0.8732  0.5413
10040TIP3    H154315   0.450   3.369  10.601 -0.0737 -0.5727  0.5061
10040TIP3    H254316   0.561   3.445  10.530  0.9059 -1.5278  0.9946
10041TIP3   OH254317   4.319   1.183  11.078  0.3440 -0.1456 -0.2359
10041TIP3    H154318   4.350   1.101  11.038 -0.5133 -0.5150 -0.1766
10041TIP3    H254319   4.248   1.212  11.020  0.3229  0.3012  0.0102
10042TIP3   OH254320   6.200   1.198   9.326 -0.7825  0.2537  0.2993
10042TIP3    H154321   6.147   1.234   9.255 -1.4891 -1.3797 -0.0313
10042TIP3    H254322   6.137   1.158   9.386  0.0225 -1.3747  0.1004
10043TIP3   OH254323   4.811   5.323   9.580 -0.1291  0.2982 -0.3227
10043TIP3    H154324   4.796   5.284   9.666 -0.4401  0.6130 -0.2355
10043TIP3    H254325   4.835   5.414   9.597  1.3671 -0.0283 -0.4851
10044TIP3   OH254326   1.386   3.609  12.004  0.2221 -0.6433  0.9898
10044TIP3    H154327   1.369   3.557  12.083  0.9647  0.1755  1.7127
10044TIP3    H254328   1.442   3.553  11.950 -1.3342 -1.7278  0.4249
10045TIP3   OH254329   3.075   3.431  11.628  0.4784 -0.2454 -0.2586
10045TIP3    H154330   3.128   3.487  11.573 -0.1901  1.3417  0.6530
10045TIP3    H254331   2.996   3.413  11.576  1.6982 -2.3822 -1.4999
10046TIP3   OH254332   2.328   5.095  10.872 -0.4064 -0.7038  0.1789
10046TIP3    H154333   2.372   5.029  10.926  1.7198  0.8707  0.4671
10046TIP3    H254334   2.339   5.177  10.920  0.0785  0.4525 -1.8274
10047TIP3   OH254335   0.506   3.800  12.449  0.0718 -0.7560 -0.0500
10047TIP3    H154336   0.531   3.880  12.495  2.2034 -1.0902 -0.4884
10047TIP3    H254337   0.546   3.810  12.362 -0.9618 -1.6258 -0.6427
10048TIP3   OH254338   4.094   1.636   9.831 -0.5589 -0.3339 -0.2196
10048TIP3    H154339   4.119   1.714   9.782  1.9531 -1.4402 -0.8484
10048TIP3    H254340   4.061   1.576   9.765 -0.4313 -0.5844 -0.0575
10049TIP3   OH254341   5.229   4.962  11.862  0.2034 -0.4989 -0.3696
10049TIP3    H154342   5.184   4.878  11.870  0.2285 -0.3912  1.4287
10049TIP3    H254343   5.309   4.942  11.813 -1.1125 -0.9401 -2.4386
10050TIP3   OH254344   4.554   4.190  10.270  0.2166  0.4975 -0.4267
10050TIP3    H154345   4.646   4.199  10.246  0.6649 -1.1411  0.5365
10050TIP3    H254346   4.554   4.181  10.365 -0.7328 -1.2647 -0.5431
10051TIP3   OH254347   2.141   0.521   9.346 -0.0112  0.2743 -0.1420
10051TIP3    H154348   2.204   0.457   9.379  0.1145  0.2753 -0.3802
10051TIP3    H254349   2.194   0.595   9.318 -0.1512  0.4614  0.0731
10052TIP3   OH254350   5.886   5.458  10.282  0.1423 -0.1444 -0.0656
10052TIP3    H154351   5.883   5.457  10.186  0.8716 -1.7470 -0.0976
10052TIP3    H254352   5.860   5.547  10.305 -1.6381 -0.1798 -1.6731
10053TIP3   OH254353   0.195   2.177  11.659 -0.3771 -0.4072 -0.3644
10053TIP3    H154354   0.204   2.155  11.567 -0.6978 -0.0830 -0.4775
10053TIP3    H254355   0.155   2.100  11.699 -2.7512  0.4052 -1.0034
10054TIP3   OH254356   2.524   0.239  10.827  0.5700  0.0046 -0.4664
10054TIP3    H154357   2.564   0.289  10.898  0.4124 -0.8645  0.2574
10054TIP3    H254358   2.440   0.282  10.811  0.3096 -0.1856  0.3441
10055TIP3   OH254359   5.621   2.725   9.879 -0.0743 -0.4893  0.1079
10055TIP3    H154360   5.708   2.733   9.841  0.6437 -0.3170  1.7170
10055TIP3    H254361   5.561   2.739   9.806  1.2270  2.2931 -0.5486
10056TIP3   OH254362   6.330   6.305  10.599  0.3425  0.6584  0.2115
10056TIP3    H154363   6.275   6.306  10.521  0.4374 -2.9010 -0.0311
10056TIP3    H254364   6.277   6.261  10.666  1.2699  1.1878  1.3315
10057TIP3   OH254365   5.972   1.266  11.438  0.5253 -0.2518 -0.4266
10057TIP3    H154366   5.978   1.253  11.533  1.2337  1.2863 -0.2173
10057TIP3    H254367   6.062   1.284  11.411 -0.0399  2.3610 -0.8453
10058TIP3   OH254368   0.124   0.757  10.063 -0.5722  0.0528 -0.1384
10058TIP3    H154369   0.204   0.707  10.046 -0.3971  0.4275 -0.4246
10058TIP3    H254370   0.143   0.844  10.030  0.0398  1.0176  2.4791
10059TIP3   OH254371   0.810   5.005  12.602  0.0105 -0.3813 -0.1691
10059TIP3    H154372   0.749   5.030  12.672  0.5634 -1.4444  0.7261
10059TIP3    H254373   0.895   4.998  12.645  0.3298 -1.2448 -0.9061
10060TIP3   OH254374   6.503   0.317  10.495  0.1995 -0.6040 -0.0314
10060TIP3    H154375   6.417   0.356  10.479  0.2384 -0.1606  0.7770
10060TIP3    H254376   6.552   0.386  10.538  0.4181 -1.4000  1.0300
10061TIP3   OH254377   1.757   1.439  11.171  0.0955  0.0885  0.1653
10061TIP3    H154378   1.795   1.456  11.085 -2.6313  0.1134 -1.1331
10061TIP3    H254379   1.704   1.360  11.159  1.1218 -1.0180  2.3490
10062TIP3   OH254380   2.393   2.295  11.955  0.2069  0.6307 -0.2190
10062TIP3    H154381   2.327   2.237  11.916  1.4428 -1.5531  0.7557
10062TIP3    H254382   2.348   2.379  11.964 -2.8220 -0.9532  1.2422
10063TIP3   OH254383   4.909   5.546  11.549 -0.0218  0.2533  0.4024
10063TIP3    H154384   4.891   5.573  11.639 -0.5348 -1.2979  0.7864
10063TIP3    H254385   4.836   5.583  11.499 -0.6005 -0.2146  0.8811
10064TIP3   OH254386   5.142   5.295  11.327 -0.5729  0.4007 -0.6173
10064TIP3    H154387   5.063   5.284  11.275  0.2394 -0.4947 -1.7223
10064TIP3    H254388   5.212   5.257  11.273  0.2288 -1.1932  1.3979
10065TIP3   OH254389   0.488   2.017  11.145 -0.5366  0.2617 -0.5250
10065TIP3    H154390   0.467   2.087  11.083  0.8909  0.7223 -0.5387
10065TIP3    H254391   0.546   1.958  11.096 -0.3458 -0.0084  0.0094
10066TIP3   OH254392   4.805   2.299  10.053 -0.4142 -0.4526 -0.1854
10066TIP3    H154393   4.786   2.222  10.000  0.6389 -0.6236 -0.3359
10066TIP3    H254394   4.797   2.269  10.144 -1.4216 -0.3626 -0.2323
10067TIP3   OH254395   3.111   5.053  12.096 -0.2484 -0.4898  0.5070
10067TIP3    H154396   3.062   5.134  12.085 -0.5304 -0.7132  0.0998
10067TIP3    H254397   3.049   4.993  12.139 -0.3625 -0.8019 -0.0907
10068TIP3   OH254398   3.792   1.381  10.063 -0.2944  0.2157  0.4581
10068TIP3    H154399   3.846   1.309  10.031 -0.2966  0.7503 -0.8243
10068TIP3    H254400   3.840   1.416  10.138  1.3356  0.8628 -0.8166
10069TIP3   OH254401   3.758   3.259  10.204  0.5452 -0.2400  0.0423
10069TIP3    H154402   3.825   3.212  10.253  1.6294  2.1855  1.0264
10069TIP3    H254403   3.797   3.277  10.118 -0.5302 -2.5423 -1.0156
10070TIP3   OH254404   1.222   3.298  11.669 -0.0595 -0.2148  0.0263
10070TIP3    H154405   1.205   3.348  11.749 -0.7968  0.9157 -0.7998
10070TIP3    H254406   1.219   3.206  11.697 -1.7247  0.0946  1.0609
10071TIP3   OH254407   0.904   5.988   9.522  0.6073  0.1923  0.1995
10071TIP3    H154408   0.963   6.017   9.453  1.0488 -0.6221  0.2302
10071TIP3    H254409   0.923   6.047   9.595  0.5974  0.6364 -0.1496
10072TIP3   OH254410   2.221   3.163   9.507 -0.1882  0.9115 -0.9709
10072TIP3    H154411   2.223   3.233   9.571 -0.2116 -0.0060  0.0559
10072TIP3    H254412   2.310   3.156   9.474 -0.3434  1.9178 -1.6576
10073TIP3   OH254413   2.730   4.830  12.476  0.4340 -0.2766  0.1863
10073TIP3    H154414   2.733   4.746  12.522 -0.2390 -0.3360  0.1290
10073TIP3    H254415   2.690   4.890  12.539 -0.7518 -0.4215 -0.4008
10074TIP3   OH254416   3.254   1.240  10.028  0.0023 -0.4023 -0.1192
10074TIP3    H154417   3.321   1.172  10.021  0.4910  0.1620 -1.1488
10074TIP3    H254418   3.287   1.311   9.974 -0.1626  0.9455  1.4683
10075TIP3   OH254419   6.660   5.578  11.501  0.5397 -0.2080  0.2378
10075TIP3    H154420   6.661   5.505  11.562 -0.8037 -1.8309 -1.5509
10075TIP3    H254421   6.693   5.542  11.419 -1.7051  0.6556 -1.1506
10076TIP3   OH254422   5.333   5.384  12.524  0.2717 -0.8379 -0.0188
10076TIP3    H154423   5.363   5.336  12.601 -0.3349 -0.5194  0.4242
10076TIP3    H254424   5.244   5.351  12.509  1.3008 -2.9270 -2.2397
10077TIP3   OH254425   1.381   5.621  11.880  0.2403 -0.6295  0.5085
10077TIP3    H154426   1.315   5.660  11.938  0.1998 -1.0420  0.7409
10077TIP3    H254427   1.343   5.629  11.792  0.7059  0.8486  0.4129
10078TIP3   OH254428   0.707   4.907  11.169  0.2322  0.0199  0.5080
10078TIP3    H154429   0.722   4.843  11.239  1.0255  1.3021  1.5410
10078TIP3    H254430   0.626   4.951  11.194 -0.4744 -0.7435 -0.3578
10079TIP3   OH254431   4.620   0.686  11.684  0.2189  0.5333  0.3923
10079TIP3    H154432   4.592   0.770  11.721 -2.0534  0.2949 -0.6247
10079TIP3    H254433   4.563   0.622  11.725  1.1254 -0.3832  0.2524
10080TIP3   OH254434   0.617   1.121   9.613  0.1516  0.3478  0.2766
10080TIP3    H154435   0.567   1.200   9.591 -1.7064 -0.1740  2.2105
10080TIP3    H254436   0.651   1.090   9.529 -0.5391  2.2268 -0.7753
10081TIP3   OH254437   6.182   5.876  10.745 -0.6893  0.3636 -0.0318
10081TIP3    H154438   6.228   5.797  10.719 -0.3923 -0.5763  3.0013
10081TIP3    H254439   6.089   5.853  10.742 -0.7545  0.7241 -1.4794
10082TIP3   OH254440   6.076   2.897   9.800 -0.5844 -0.3889  0.0262
10082TIP3    H154441   6.111   2.828   9.743  0.7237  1.8986 -2.1700
10082TIP3    H254442   6.060   2.853   9.884  1.6234 -2.9962 -0.7561
10083TIP3   OH254443   4.501   5.488  11.160  0.2086  0.4737  0.6901
10083TIP3    H154444   4.555   5.438  11.221  0.6528  0.1276  0.0283
10083TIP3    H254445   4.466   5.422  11.100  1.4316  1.0047 -0.6687
10084TIP3   OH254446   4.417   4.398  10.120  0.0291  0.2513 -0.1104
10084TIP3    H154447   4.471   4.347  10.179  2.4856  3.3832  0.5894
10084TIP3    H254448   4.422   4.351  10.036  0.2233 -1.7927  0.9803
10085TIP3   OH254449   0.238   3.533  10.713 -0.2145 -0.0895 -0.1586
10085TIP3    H154450   0.213   3.442  10.698 -0.8860  0.1406 -0.4755
10085TIP3    H254451   0.164   3.570  10.762  0.2426  0.1736  0.3429
10086TIP3   OH254452   0.557   0.267   9.567  0.1829 -0.6206  0.4446
10086TIP3    H154453   0.646   0.234   9.555  0.0571 -0.9278  0.3463
10086TIP3    H254454   0.503   0.188   9.576 -0.4857 -0.5660 -2.2458
10087TIP3   OH254455   5.931   5.800  10.844 -0.2239 -0.0123 -0.1182
10087TIP3    H154456   5.847   5.759  10.863 -0.1772  0.3642  0.9708
10087TIP3    H254457   5.988   5.773  10.916  0.8376 -0.9232 -1.2621
10088TIP3   OH254458   0.909   4.124  12.286  0.6617  0.2308  0.2119
10088TIP3    H154459   0.883   4.122  12.379 -0.9507 -1.9844 -0.1959
10088TIP3    H254460   0.993   4.168  12.286  1.1657 -0.5243  2.8771
10089TIP3   OH254461   2.282   1.840  11.743 -0.6894  0.1889  0.1441
10089TIP3    H154462   2.366   1.796  11.730  0.1108  1.8878 -0.8409
10089TIP3    H254463   2.274   1.851  11.838 -0.9274 -2.0048  0.4172
10090TIP3   OH254464   0.562   1.150   9.884 -0.2923 -0.2783 -0.0552
10090TIP3    H154465   0.620   1.186   9.951 -0.0905 -1.4135  0.4018
10090TIP3    H254466   0.612   1.158   9.803 -0.5630  1.1627 -0.1040
10091TIP3   OH254467   3.118   3.380   9.385 -0.2497 -0.8724  0.1390
10091TIP3    H154468   3.166   3.344   9.461  0.9004 -0.1599 -0.2191
10091TIP3    H254469   3.105   3.305   9.328 -0.3845 -1.2598  0.6672
10092TIP3   OH254470   5.864   0.469  10.338 -0.3854 -0.4322  0.2194
10092TIP3    H154471   5.949   0.510  10.350 -0.3034 -0.8079  0.9980
10092TIP3    H254472   5.816   0.529  10.282  0.1784  0.0897  0.2869
10093TIP3   OH254473   3.763   5.456  11.407 -0.3127  0.3541  0.1536
10093TIP3    H154474   3.720   5.370  11.402  0.4301 -0.0250  0.2719
10093TIP3    H254475   3.773   5.473  11.501 -1.3871  1.0485  0.1652
10094TIP3   OH254476   0.240   1.953   9.628 -0.0155 -0.0889  0.3839
10094TIP3    H154477   0.245   1.928   9.720  0.2732  0.2419  0.4578
10094TIP3    H254478   0.301   2.025   9.619  1.4724 -1.3938 -0.4970
10095TIP3   OH254479   6.705   4.840  10.949 -0.3154 -0.7011 -0.2979
10095TIP3    H154480   6.753   4.840  10.866 -0.5737  1.0278 -0.4883
10095TIP3    H254481   6.615   4.818  10.925 -0.2110 -1.0894 -0.3417
10096TIP3   OH254482   4.416   5.018  10.090 -0.2857  0.7460  0.6647
10096TIP3    H154483   4.344   5.075  10.063 -0.7633 -0.3664 -0.5115
10096TIP3    H254484   4.391   4.989  10.178 -2.1189 -0.8365 -0.2848
10097TIP3   OH254485   6.434   4.835  11.741 -0.3760 -0.1004 -0.1055
10097TIP3    H154486   6.456   4.919  11.701 -1.9384  0.5042  0.2555
10097TIP3    H254487   6.477   4.838  11.827  1.4888 -0.6619 -0.9723
10098TIP3   OH254488   3.890   4.462  11.442 -0.1891  0.2284  0.4381
10098TIP3    H154489   3.983   4.446  11.455 -0.4682 -2.4810 -0.2778
10098TIP3    H254490   3.849   4.438  11.525 -0.5389 -2.2303 -0.3822
10099TIP3   OH254491   0.047   1.649  11.340 -0.5696 -0.5180 -0.2682
10099TIP3    H154492  -0.042   1.683  11.330 -0.6537 -0.7796 -0.3910
10099TIP3    H254493   0.070   1.614  11.254 -0.3536 -0.4674 -0.2317
10100TIP3   OH254494   1.758   5.757  10.052 -0.1973  0.2241  0.3327
10100TIP3    H154495   1.702   5.680  10.062  0.5528 -0.7029 -1.9082
10100TIP3    H254496   1.740   5.787   9.963  0.4745  1.8878  0.7378
10101TIP3   OH254497   4.187   5.077  10.522 -0.2815 -0.0265 -0.0182
10101TIP3    H154498   4.096   5.104  10.533  0.0868  0.6159  1.7030
10101TIP3    H254499   4.207   5.024  10.599  1.0063  0.4352 -0.0005
10102TIP3   OH254500   6.144   5.171  10.020  0.2260  0.0274 -0.1619
10102TIP3    H154501   6.175   5.226  10.093  0.6511  0.1879 -0.4626
10102TIP3    H254502   6.223   5.126   9.989 -0.1965 -1.1137  0.3781
10103TIP3   OH254503   1.331   3.782  10.214 -0.1770 -0.1077  0.3980
10103TIP3    H154504   1.284   3.780  10.130 -0.0145 -0.6145  0.3159
10103TIP3    H254505   1.310   3.868  10.251 -2.3608 -0.8656  1.0414
10104TIP3   OH254506   2.982   0.182   9.725  0.1923 -0.2263  0.2647
10104TIP3    H154507   2.906   0.125   9.739  0.2909 -0.6422 -0.8170
10104TIP3    H254508   2.947   0.258   9.679  0.2708  0.0219  0.6151
10105TIP3   OH254509   6.454   4.030   9.993  0.0854 -0.0666  0.5996
10105TIP3    H154510   6.459   4.087  10.070 -1.1137 -0.1551  0.7665
10105TIP3    H254511   6.384   4.069   9.940  1.2577  0.3160 -0.7336
10106TIP3   OH254512   6.516   3.218  10.016  0.3632  0.4584 -0.1753
10106TIP3    H154513   6.585   3.243  10.077 -0.9710  1.7183  0.8698
10106TIP3    H254514   6.562   3.169   9.947  2.1437  0.4552  0.9499
10107TIP3   OH254515   3.299   3.502   9.765 -0.1095 -0.5678  0.4722
10107TIP3    H154516   3.306   3.531   9.856  0.1367 -1.9381  0.9124
10107TIP3    H254517   3.285   3.407   9.771  1.6199 -0.9585 -0.9491
10108TIP3   OH254518   1.989   3.238  10.296 -0.4287  0.6332 -0.1823
10108TIP3    H154519   1.936   3.273  10.224  0.7905  0.3992 -1.2234
10108TIP3    H254520   1.926   3.198  10.355 -1.5489  1.6874 -0.6239
10109TIP3   OH254521   6.034   3.745  11.604 -0.3010  0.4661  0.5428
10109TIP3    H154522   5.992   3.740  11.689  1.2301 -0.3332  1.3054
10109TIP3    H254523   6.058   3.654  11.584 -0.3699  0.6860 -0.5911
10110TIP3   OH254524   2.511   4.900  10.264  0.3159 -0.1004  0.1326
10110TIP3    H154525   2.541   4.821  10.309  0.2116  0.2458  0.8137
10110TIP3    H254526   2.586   4.959  10.267 -0.2556  0.5913  1.4234
10111TIP3   OH254527   1.337   6.308  12.295 -0.2345 -0.2389  0.1751
10111TIP3    H154528   1.346   6.403  12.288  3.0547 -0.4514  0.1380
10111TIP3    H254529   1.244   6.295  12.316 -1.5344  2.7529 -2.7731
10112TIP3   OH254530   0.614   2.384  13.061  0.2601 -0.0580 -0.3310
10112TIP3    H154531   0.529   2.429  13.064 -0.0138 -0.5788  1.9680
10112TIP3    H254532   0.669   2.440  13.007 -0.9598  1.3827 -0.1484
10113TIP3   OH254533   3.285   2.313  12.190 -0.3972  0.2993  0.8200
10113TIP3    H154534   3.215   2.370  12.220 -2.6747 -1.8029 -0.1811
10113TIP3    H254535   3.285   2.323  12.095  0.3766 -0.0720  0.7735
10114TIP3   OH254536   2.911   2.182  12.552  0.5601 -0.4219  0.4564
10114TIP3    H154537   2.940   2.186  12.461 -0.2910  2.0922  0.2275
10114TIP3    H254538   2.956   2.255  12.595  0.5863 -1.2800  1.9843
10115TIP3   OH254539   2.781   2.084  10.611  0.2028 -0.7243 -0.0320
10115TIP3    H154540   2.760   2.141  10.684  2.1671  0.8078 -0.5920
10115TIP3    H254541   2.710   2.099  10.548 -1.2965 -1.7800  1.3241
10116TIP3   OH254542   2.365   4.811  12.134  0.3114 -0.2267  0.2733
10116TIP3    H154543   2.273   4.833  12.128  0.3697 -0.0581 -0.0259
10116TIP3    H254544   2.371   4.753  12.210  0.3391  1.7767  1.8989
10117TIP3   OH254545   5.849   6.650  10.246 -0.4283 -0.3933  0.1089
10117TIP3    H154546   5.806   6.718  10.297 -0.4272  0.2992 -0.7819
10117TIP3    H254547   5.907   6.698  10.186 -1.1229 -1.1075 -1.1881
10118TIP3   OH254548   6.313   1.250  10.022 -0.8847  0.1168 -0.3169
10118TIP3    H154549   6.226   1.245  10.062  0.0095 -0.4150  1.6908
10118TIP3    H254550   6.366   1.296  10.086  0.0252  1.7377 -2.1345
10119TIP3   OH254551   5.132   1.283   9.660  0.0130 -0.2214 -0.1029
10119TIP3    H154552   5.103   1.212   9.719  0.1956  0.0303  0.2935
10119TIP3    H254553   5.058   1.296   9.601 -0.0974 -0.6135 -0.0571
10120TIP3   OH254554   0.263   4.178  11.715  0.0956  0.3561 -0.3488
10120TIP3    H154555   0.330   4.174  11.647  0.0923  1.2345 -0.4099
10120TIP3    H254556   0.227   4.089  11.718 -0.6105  0.5186 -2.2319
10121TIP3   OH254557   4.391   0.126   9.795  0.3513 -0.1151 -0.0432
10121TIP3    H154558   4.334   0.052   9.816  1.2568 -0.3506  1.8008
10121TIP3    H254559   4.333   0.191   9.756 -1.0438 -0.6279  1.0925
10122TIP3   OH254560   2.475   2.358  11.584 -0.1784  0.4216 -0.5968
10122TIP3    H154561   2.532   2.427  11.618 -0.3387  0.7251 -0.9257
10122TIP3    H254562   2.535   2.296  11.542  0.0523 -0.1448  0.5324
10123TIP3   OH254563   6.269   0.185  10.858 -0.4324 -0.5387  0.4986
10123TIP3    H154564   6.277   0.131  10.779  0.0719 -2.0984  1.5697
10123TIP3    H254565   6.347   0.241  10.857 -0.4460 -0.5275 -0.1221
10124TIP3   OH254566   2.968   5.762  12.436  0.1754 -0.0235  0.0628
10124TIP3    H154567   2.982   5.680  12.484 -2.2295  0.4285  1.6807
10124TIP3    H254568   2.889   5.747  12.384  0.5381  0.8270 -0.7712
10125TIP3   OH254569   5.928   0.402  11.379  0.0846  0.4844  0.1031
10125TIP3    H154570   5.886   0.397  11.465 -0.5194  1.1341 -0.1440
10125TIP3    H254571   5.994   0.471  11.388  1.0675 -0.4776  0.4666
10126TIP3   OH254572   0.308   0.499   9.452  1.0186  0.0162  0.2885
10126TIP3    H154573   0.273   0.528   9.536  1.8409  0.4553  0.4808
10126TIP3    H254574   0.401   0.519   9.455  1.3220 -1.2430 -0.1884
10127TIP3   OH254575   6.082   2.279  11.457 -0.4718  0.1516 -0.4082
10127TIP3    H154576   6.037   2.294  11.539 -0.9031  1.2500 -0.8304
10127TIP3    H254577   6.013   2.255  11.395 -0.5535  2.0339 -1.1067
10128TIP3   OH254578   0.239   2.872  11.873  0.0936 -0.0753 -1.0028
10128TIP3    H154579   0.327   2.908  11.882 -0.1128  0.4282 -0.9858
10128TIP3    H254580   0.252   2.777  11.875  0.2667 -0.1118  2.8565
10129TIP3   OH254581   1.765   2.990  11.776 -0.3776  0.9806 -0.1451
10129TIP3    H154582   1.821   3.061  11.743 -0.8353  0.2668 -2.6742
10129TIP3    H254583   1.679   3.009  11.738 -0.1603 -1.6986 -2.2518
10130TIP3   OH254584   2.804   6.202  10.504  0.6351  0.4020 -0.3711
10130TIP3    H154585   2.824   6.151  10.583 -1.7678 -0.3470 -0.1730
10130TIP3    H254586   2.726   6.252  10.526  0.8439  1.4070 -1.7687
10131TIP3   OH254587   3.525   3.260  10.519 -0.1700 -0.1320  0.1251
10131TIP3    H154588   3.521   3.259  10.615 -0.3177 -0.1591  0.1195
10131TIP3    H254589   3.578   3.337  10.499 -0.0168 -0.2079  0.2315
10132TIP3   OH254590   1.169   6.437  10.710  0.1946  0.1989 -0.5709
10132TIP3    H154591   1.226   6.493  10.762  0.4119 -1.6826  1.3700
10132TIP3    H254592   1.081   6.452  10.746 -0.0949  0.8380 -1.5020
10133TIP3   OH254593   4.345   5.264  12.776  0.0718 -0.8344  0.1765
10133TIP3    H154594   4.408   5.195  12.798  0.2980 -1.0688 -1.1274
10133TIP3    H254595   4.275   5.253  12.840  0.9277 -1.1356  1.0998
10134TIP3   OH254596   4.526   5.692  10.568 -0.0096  0.1433  0.0313
10134TIP3    H154597   4.598   5.723  10.622  0.2534 -0.0555 -0.2016
10134TIP3    H254598   4.454   5.752  10.586  0.6694  1.2584 -0.8825
10135TIP3   OH254599   2.872   3.897   8.972  0.4359  0.2250  0.1431
10135TIP3    H154600   2.901   3.806   8.962  0.5933  0.1822  0.9676
10135TIP3    H254601   2.778   3.894   8.950  0.8208  0.2099 -1.6533
10136TIP3   OH254602   1.006   1.934  10.424  0.0272  0.0837  0.0710
10136TIP3    H154603   0.951   1.917  10.501  0.6884 -1.1597  0.2944
10136TIP3    H254604   0.944   1.957  10.355 -1.0515 -3.2441 -0.2472
10137TIP3   OH254605   4.577   6.631   9.719 -0.1167 -0.2697 -0.1791
10137TIP3    H154606   4.497   6.585   9.693 -0.6136 -0.5085  1.6420
10137TIP3    H254607   4.571   6.715   9.674 -1.6223 -0.1127  0.2411
10138TIP3   OH254608   3.709   4.255   9.820 -0.3664 -0.2689  0.2049
10138TIP3    H154609   3.710   4.167   9.782 -1.0537 -0.1965  0.0164
10138TIP3    H254610   3.636   4.299   9.777  1.1531  1.0472 -1.1452
10139TIP3   OH254611   1.490   4.031  11.794 -0.2355  0.1451  0.0284
10139TIP3    H154612   1.583   4.022  11.813  0.0681 -0.2208 -1.4502
10139TIP3    H254613   1.469   4.122  11.815  0.5398  0.3259  0.0242
10140TIP3   OH254614   0.687   1.366  10.068  0.1699 -0.0042  0.2530
10140TIP3    H154615   0.674   1.430   9.998  0.3515  0.3772  0.5671
10140TIP3    H254616   0.633   1.397  10.140  0.3339 -0.1486  0.4416
10141TIP3   OH254617   5.558   1.290  10.327 -0.6449  0.1286 -0.4464
10141TIP3    H154618   5.621   1.357  10.352  1.8579 -2.0954 -0.3272
10141TIP3    H254619   5.540   1.242  10.407  1.8949 -2.5902 -1.2893
10142TIP3   OH254620   0.727   3.743  10.610 -1.0165 -0.5887  0.6020
10142TIP3    H154621   0.662   3.790  10.557 -0.3776  0.6930  0.9130
10142TIP3    H254622   0.735   3.795  10.690  0.8691 -0.3239  0.2942
10143TIP3   OH254623   4.987   3.963   9.411 -0.2446 -0.7245  0.1609
10143TIP3    H154624   4.908   3.949   9.359  0.6084 -1.3298 -1.0201
10143TIP3    H254625   4.955   3.981   9.500 -1.8322  1.7977 -0.7951
10144TIP3   OH254626   1.283   2.487  10.727 -0.1772  0.1332  0.0374
10144TIP3    H154627   1.350   2.527  10.782  2.6177 -0.5927 -2.5856
10144TIP3    H254628   1.285   2.395  10.751 -1.5331  0.3546  1.1221
10145TIP3   OH254629   0.756   1.074  10.392  0.0423  0.4943  0.3896
10145TIP3    H154630   0.671   1.066  10.349 -0.5040 -0.7325  1.6429
10145TIP3    H254631   0.819   1.073  10.319 -0.8442 -1.6123 -0.4177
10146TIP3   OH254632   1.271   1.827  11.382 -0.1561 -0.2504  0.1590
10146TIP3    H154633   1.196   1.868  11.339 -0.2657 -0.4041  0.2039
10146TIP3    H254634   1.344   1.887  11.366 -0.3015 -0.0745  0.1639
10147TIP3   OH254635   1.198   1.028  11.084  0.7858 -0.5295  0.5973
10147TIP3    H154636   1.129   1.032  11.018  0.7742  2.3725  0.6891
10147TIP3    H254637   1.273   0.989  11.038  1.0446  2.1743 -1.4748
10148TIP3   OH254638   3.582   6.717  11.635  0.2286  0.6558 -0.4343
10148TIP3    H154639   3.674   6.694  11.650 -0.2219 -0.2241  1.2139
10148TIP3    H254640   3.536   6.633  11.638 -0.7484  1.1806 -0.2927
10149TIP3   OH254641   5.391   4.462   9.500 -0.5515  0.0476 -0.3329
10149TIP3    H154642   5.420   4.402   9.568 -0.3631 -0.4966 -0.8813
10149TIP3    H254643   5.346   4.406   9.436  0.7850  0.2569 -1.5119
10150TIP3   OH254644   5.354   4.491  11.342  0.1656 -0.1825 -0.8706
10150TIP3    H154645   5.383   4.578  11.316  0.8957 -0.0502  0.3259
10150TIP3    H254646   5.279   4.507  11.400  1.0937 -0.2695  0.3837
10151TIP3   OH254647   3.156   2.633   9.524  0.0039  0.3259 -0.2174
10151TIP3    H154648   3.174   2.539   9.535  0.4594  0.6664  2.6210
10151TIP3    H254649   3.061   2.640   9.530 -0.1330 -0.0314 -1.5964
10152TIP3   OH254650   5.932   2.906  10.572 -0.5566  0.7188 -0.3292
10152TIP3    H154651   6.006   2.873  10.521 -1.5659 -1.3431 -0.6045
10152TIP3    H254652   5.881   2.957  10.509  0.4280  1.8783 -0.2160
10153TIP3   OH254653   4.610   2.967  11.258 -0.3366  0.1679  0.0118
10153TIP3    H154654   4.531   3.007  11.221  0.2349  2.4274  1.0373
10153TIP3    H254655   4.670   2.959  11.183 -0.3095  1.7523 -0.1687
10154TIP3   OH254656   4.802   5.670  11.769 -0.1881  0.4515  0.3264
10154TIP3    H154657   4.726   5.728  11.760  1.0256  2.0043 -0.3486
10154TIP3    H254658   4.828   5.678  11.860 -0.7163  0.0505  0.5165
10155TIP3   OH254659   5.249   1.381  10.279  0.1238 -0.2487 -0.0360
10155TIP3    H154660   5.315   1.423  10.224 -2.8091  1.7292 -2.3712
10155TIP3    H254661   5.219   1.450  10.339  1.2579 -1.5997  2.2414
10156TIP3   OH254662   6.424   0.534   9.808  0.6006  0.3194 -0.3357
10156TIP3    H154663   6.502   0.589   9.807  0.8102  0.0510 -2.0414
10156TIP3    H254664   6.421   0.494   9.721 -0.7668 -0.6402  0.1026
10157TIP3   OH254665   3.814   4.909  10.017  0.5054 -0.0663 -0.1438
10157TIP3    H154666   3.904   4.879  10.006  0.3640 -0.4889 -0.1444
10157TIP3    H254667   3.775   4.900   9.930 -0.2896 -2.3519  0.3840
10158TIP3   OH254668   3.867   4.778  10.538 -0.2663 -0.5057 -0.5670
10158TIP3    H154669   3.842   4.868  10.561  0.2305 -0.3317 -0.7079
10158TIP3    H254670   3.901   4.741  10.619 -1.1965 -0.8291 -0.3058
10159TIP3   OH254671   4.915   6.478  11.949  0.4064 -0.0974  0.3812
10159TIP3    H154672   4.850   6.465  12.019 -1.4997  0.9137 -1.1062
10159TIP3    H254673   4.926   6.573  11.945 -0.2088 -0.0725 -1.2615
10160TIP3   OH254674   0.756   3.144  10.548 -0.3537 -0.4384 -0.2979
10160TIP3    H154675   0.836   3.195  10.556 -1.1165  1.5418 -3.5435
10160TIP3    H254676   0.741   3.137  10.453 -2.7108 -2.8923  0.1301
10161TIP3   OH254677   3.992   0.603  12.104 -0.0749  0.9101  0.1095
10161TIP3    H154678   3.926   0.604  12.174  0.4970  1.7700  0.6531
10161TIP3    H254679   4.068   0.561  12.143 -0.5914 -1.0090 -0.8331
10162TIP3   OH254680   0.784   2.416  11.959  0.0253  0.1853  0.0173
10162TIP3    H154681   0.878   2.431  11.972 -0.1194  2.1015 -0.7507
10162TIP3    H254682   0.780   2.346  11.894  0.8873 -0.6200  0.7995
10163TIP3   OH254683   4.520   1.583   9.998  0.6240 -0.0818  0.3855
10163TIP3    H154684   4.429   1.614  10.000  1.3433  2.2267 -0.0570
10163TIP3    H254685   4.533   1.545  10.085 -0.6787 -0.2130  0.5494
10164TIP3   OH254686   6.179   0.839  10.010  0.0043 -0.0936 -0.6716
10164TIP3    H154687   6.189   0.755  10.054 -1.2297  0.9982  1.9320
10164TIP3    H254688   6.211   0.824   9.921 -0.9721 -3.5106 -0.5733
10165TIP3   OH254689   2.065   3.322  11.456  0.0474 -0.8088  0.3785
10165TIP3    H154690   2.080   3.390  11.522 -1.3575  0.3350 -0.4064
10165TIP3    H254691   2.152   3.298  11.425  0.5813  0.7610  0.5705
10166TIP3   OH254692   0.245   3.994   9.473 -0.5288  0.1365  0.7559
10166TIP3    H154693   0.258   4.082   9.507  1.0999 -0.1835  1.0464
10166TIP3    H254694   0.272   3.936   9.545 -0.1047 -0.5867  0.0306
10167TIP3   OH254695   5.202   2.451  10.039 -0.5086  0.0321  0.7693
10167TIP3    H154696   5.263   2.444   9.965 -2.4163 -0.7821 -0.8479
10167TIP3    H254697   5.122   2.486   9.999 -1.3546  0.3418  2.6594
10168TIP3   OH254698   5.451   4.692   9.273 -0.0187 -0.1018 -0.5375
10168TIP3    H154699   5.424   4.603   9.249 -1.7631  0.9810 -2.8289
10168TIP3    H254700   5.536   4.703   9.230 -0.3643 -0.2494 -1.2686
10169TIP3   OH254701   2.960   2.814  10.070  0.0967  0.4433 -0.2844
10169TIP3    H154702   3.047   2.825  10.108  0.3668 -3.6483  0.7392
10169TIP3    H254703   2.967   2.734  10.017 -3.2456 -0.6398  0.6572
10170TIP3   OH254704   1.079   4.084  10.543 -0.0650  0.0984  0.2716
10170TIP3    H154705   1.045   4.041  10.621 -1.0764 -0.5744 -0.5162
10170TIP3    H254706   1.004   4.130  10.506  0.1344 -0.4499 -0.8611
10171TIP3   OH254707   4.940   0.282  12.415  0.1870  0.2974  0.1964
10171TIP3    H154708   4.972   0.195  12.390 -0.6193  0.2985 -0.9184
10171TIP3    H254709   5.006   0.316  12.475  2.4593  0.4495 -2.2461
10172TIP3   OH254710   3.231   1.484   9.553 -0.1206 -0.6745 -0.2626
10172TIP3    H154711   3.209   1.576   9.535  1.3102  0.2727  2.2347
10172TIP3    H254712   3.285   1.457   9.479  1.4578  1.3452  0.0549
10173TIP3   OH254713   0.237   5.923  10.809  0.4392 -0.9032 -0.1872
10173TIP3    H154714   0.144   5.910  10.792 -0.7241  1.0571  3.6132
10173TIP3    H254715   0.271   5.835  10.824 -1.0442 -1.5756 -0.5731
10174TIP3   OH254716   6.627   0.113  11.190  0.8363 -0.1781  0.0370
10174TIP3    H154717   6.602   0.079  11.276  0.5991 -0.7474 -0.2523
10174TIP3    H254718   6.550   0.161  11.160  1.9158  2.6961  1.4399
10175TIP3   OH254719   3.122   5.085   9.241 -0.5264  0.0585 -0.5869
10175TIP3    H154720   3.188   5.108   9.307 -0.5066 -0.7043 -0.3292
10175TIP3    H254721   3.173   5.059   9.165 -0.5354 -0.0631 -0.5514
10176TIP3   OH254722   4.410   1.866  12.076 -0.0945 -0.3347 -0.3220
10176TIP3    H154723   4.320   1.899  12.070 -0.4887 -1.3561 -0.2734
10176TIP3    H254724   4.445   1.876  11.987  0.0697  0.9200 -0.1314
10177TIP3   OH254725   2.911   3.144   9.566 -0.1059 -0.0491  0.8424
10177TIP3    H154726   2.908   3.162   9.660 -2.1159  0.5189  0.7114
10177TIP3    H254727   2.915   3.049   9.560 -0.4950 -0.1131  1.5086
10178TIP3   OH254728   0.497   3.878   9.893  0.1521  0.2735  0.1838
10178TIP3    H154729   0.529   3.829   9.816 -0.9772 -0.3804  0.1072
10178TIP3    H254730   0.570   3.934   9.917  0.0234  1.6786 -2.3482
10179TIP3   OH254731   4.363   1.911  10.546  0.5276  0.3263 -0.0951
10179TIP3    H154732   4.295   1.898  10.479  1.5496 -0.7069 -0.9755
10179TIP3    H254733   4.326   1.978  10.604 -0.6971  0.7412 -1.2779
10180TIP3   OH254734   2.136   3.509   9.850  0.2348  0.3759 -0.0748
10180TIP3    H154735   2.139   3.420   9.885  0.8985  0.4952  0.1861
10180TIP3    H254736   2.052   3.544   9.879  0.8366  0.5299  1.5556
10181TIP3   OH254737   2.780   4.963  11.991 -0.5819 -0.0306 -0.4603
10181TIP3    H154738   2.849   4.934  11.931 -0.0433  0.2175  0.0203
10181TIP3    H254739   2.742   4.882  12.025 -0.3356 -0.1734 -0.5199
10182TIP3   OH254740   0.911   4.580  11.243  0.3680 -0.2337 -0.8519
10182TIP3    H154741   0.893   4.509  11.305 -0.5140  0.4588 -0.2924
10182TIP3    H254742   0.975   4.636  11.288 -0.8045  0.6537 -0.2388
10183TIP3   OH254743   3.164   1.940  11.557 -0.2858  0.6490  0.7080
10183TIP3    H154744   3.192   1.998  11.487  0.2871  0.3769  0.7056
10183TIP3    H254745   3.121   1.997  11.620  1.8248  1.3981  1.5639
10184TIP3   OH254746   3.259   3.696  10.336 -0.1208 -0.2363 -0.1650
10184TIP3    H154747   3.352   3.683  10.317 -1.0650 -2.4214 -4.5331
10184TIP3    H254748   3.238   3.781  10.296  0.1650  1.0918  2.2871
10185TIP3   OH254749   6.503   1.410  10.156 -0.2009  0.3118 -0.7833
10185TIP3    H154750   6.508   1.483  10.218 -0.8777 -0.4303  0.1847
10185TIP3    H254751   6.581   1.358  10.175 -0.2051  0.2876 -0.8343
10186TIP3   OH254752   5.768   4.475  10.442 -0.0542 -0.0747  0.2673
10186TIP3    H154753   5.696   4.442  10.497 -1.7602  2.5848 -0.1518
10186TIP3    H254754   5.799   4.399  10.394 -2.6270 -1.3564  0.4723
10187TIP3   OH254755   2.897   6.520  10.584  0.4049  0.3627 -0.7703
10187TIP3    H154756   2.865   6.510  10.673 -0.1361 -1.8210 -1.1743
10187TIP3    H254757   2.818   6.533  10.531  0.3343 -2.1823 -1.3901
10188TIP3   OH254758   6.712   1.222  10.226 -0.4174  0.3475  0.1356
10188TIP3    H154759   6.684   1.143  10.179 -0.7621 -0.3087  1.4011
10188TIP3    H254760   6.807   1.213  10.232 -0.2442  0.9345 -1.2661
10189TIP3   OH254761   4.526   1.025  10.544  0.0933 -0.1282  0.2073
10189TIP3    H154762   4.435   1.036  10.572  0.4213 -1.7203  2.0991
10189TIP3    H254763   4.522   0.959  10.474 -0.0688 -2.0174  1.8946
10190TIP3   OH254764   6.537   3.477  10.180  0.3528 -0.0166 -0.6820
10190TIP3    H154765   6.558   3.450  10.269 -3.2095  0.7644  0.5352
10190TIP3    H254766   6.612   3.530  10.153  1.7970 -0.7706  1.5722
10191TIP3   OH254767   4.500   3.509  12.280 -0.4204  0.0754  0.0763
10191TIP3    H154768   4.489   3.449  12.354 -0.8982  0.5919  0.4296
10191TIP3    H254769   4.426   3.490  12.223  0.1319 -0.5622 -0.4556
10192TIP3   OH254770   5.928   1.582  10.308  0.0097  0.3184  0.2503
10192TIP3    H154771   6.012   1.545  10.335 -0.7259 -0.3052  1.7901
10192TIP3    H254772   5.894   1.624  10.387 -0.8545  1.1128 -0.5214
10193TIP3   OH254773   6.597   5.354  12.224  0.2934 -0.1620  0.3725
10193TIP3    H154774   6.551   5.415  12.281 -0.0398 -1.1587  1.1994
10193TIP3    H254775   6.617   5.404  12.145 -0.8691  0.7095  0.6239
10194TIP3   OH254776   5.045   2.571  11.632  0.1243 -0.0382  0.1976
10194TIP3    H154777   5.048   2.510  11.706 -0.3689 -3.3521 -2.3027
10194TIP3    H254778   5.107   2.536  11.569  1.3301  3.2832 -0.6949
10195TIP3   OH254779   0.546   4.039  12.615  0.1057 -0.9505  0.2602
10195TIP3    H154780   0.620   4.080  12.659  0.4502 -3.3837  2.1676
10195TIP3    H254781   0.469   4.080  12.655  0.4101 -0.1325  0.0187
10196TIP3   OH254782   4.040   3.103   9.973 -0.0139  0.1362 -0.0998
10196TIP3    H154783   4.123   3.115   9.926 -0.4024  0.2460 -0.7802
10196TIP3    H254784   4.061   3.044  10.045  0.3656 -0.9537 -1.0748
10197TIP3   OH254785   6.383   3.822  10.268 -0.5716 -0.1090 -0.6007
10197TIP3    H154786   6.391   3.911  10.236 -0.4604 -0.6043 -1.9934
10197TIP3    H254787   6.309   3.825  10.329 -0.1085  1.0706 -0.0736
10198TIP3   OH254788   5.028   6.571  11.420  0.1282  0.3381 -0.0569
10198TIP3    H154789   5.051   6.633  11.490 -0.5838  2.5141 -1.6373
10198TIP3    H254790   5.103   6.572  11.361  0.2512 -0.6124  0.0634
10199TIP3   OH254791   4.050   1.004  11.561  0.2065  0.1978 -0.5044
10199TIP3    H154792   3.993   0.964  11.495 -0.6436 -0.0822  0.3818
10199TIP3    H254793   4.106   0.933  11.590  0.3078  0.2249 -0.6314
10200TIP3   OH254794   3.126   4.448  11.710 -0.1962 -0.8369 -0.1394
10200TIP3    H154795   3.097   4.528  11.666 -2.2831 -1.7815 -0.5892
10200TIP3    H254796   3.135   4.474  11.802 -0.1438  0.0732 -0.3899
10201TIP3   OH254797   5.887   4.051   9.869 -0.2068  0.4149  0.0475
10201TIP3    H154798   5.929   4.060   9.783  0.1124  1.6793  0.3305
10201TIP3    H254799   5.941   3.986   9.915  2.5069  3.1229  0.9988
10202TIP3   OH254800   3.958   3.283  10.645  0.4617 -0.1375 -0.0134
10202TIP3    H154801   3.896   3.242  10.705  1.0662  0.0824  0.7770
10202TIP3    H254802   3.928   3.374  10.637  0.2265 -0.2374 -0.2528
10203TIP3   OH254803   3.770   1.156  11.738  0.1490  0.6207  0.1853
10203TIP3    H154804   3.763   1.065  11.707 -1.8666  0.8864 -0.3410
10203TIP3    H254805   3.786   1.206  11.658 -0.2774  0.8511  0.2390
10204TIP3   OH254806   1.194   4.453  11.219  0.0798 -0.4130 -1.3954
10204TIP3    H154807   1.160   4.507  11.148 -1.6969  0.5501  0.1005
10204TIP3    H254808   1.271   4.501  11.251 -0.2283  0.1349 -1.4633
10205TIP3   OH254809   2.229   0.790   9.653  0.3485  0.5649  0.1467
10205TIP3    H154810   2.169   0.720   9.679  0.3292  1.6259  3.2761
10205TIP3    H254811   2.176   0.870   9.659  0.7867  1.0711 -1.9051
10206TIP3   OH254812   3.740   4.968  10.714 -0.0171  0.1907 -1.1874
10206TIP3    H154813   3.753   5.062  10.711 -1.1267  0.5028  1.4688
10206TIP3    H254814   3.663   4.952  10.658 -0.8453  1.1082 -0.3360
10207TIP3   OH254815   1.134   3.444  10.514  0.3889 -0.5937  0.8220
10207TIP3    H154816   1.165   3.389  10.442 -1.4615 -0.1234 -0.4042
10207TIP3    H254817   1.196   3.517  10.517  0.3023 -0.4285 -0.5833
10208TIP3   OH254818   1.656   4.671   9.366 -0.2013 -0.0223  0.2313
10208TIP3    H154819   1.690   4.596   9.317 -2.2592 -0.6368 -0.3683
10208TIP3    H254820   1.611   4.724   9.300 -1.5910 -0.0022  1.1442
10209TIP3   OH254821   2.339   6.629  11.200  0.1475  0.1928 -0.0047
10209TIP3    H154822   2.332   6.570  11.275 -1.0361 -0.6332 -0.7153
10209TIP3    H254823   2.259   6.681  11.203  0.6204  0.9222 -0.0623
10210TIP3   OH254824   5.030   6.669   9.579 -0.3095  0.4382 -0.1055
10210TIP3    H154825   4.958   6.703   9.526 -0.5228 -0.2542 -0.2741
10210TIP3    H254826   5.047   6.737   9.643 -0.5223  0.9875 -0.6215
10211TIP3   OH254827   2.334   6.638   9.922 -0.4105  0.1379  0.0929
10211TIP3    H154828   2.341   6.668  10.013  1.7033 -0.0480  0.0582
10211TIP3    H254829   2.336   6.542   9.929 -1.6818  0.0872 -0.0891
10212TIP3   OH254830   0.689   3.878  11.333 -0.0668 -0.0457  0.4529
10212TIP3    H154831   0.772   3.885  11.285 -1.6771  0.5823 -2.5404
10212TIP3    H254832   0.653   3.966  11.332 -1.1272 -0.4528  0.9881
10213TIP3   OH254833   4.587   3.269  11.089  0.0354 -0.0997  0.2168
10213TIP3    H154834   4.673   3.305  11.065 -0.0698  1.0170  1.4091
10213TIP3    H254835   4.570   3.305  11.176  0.0980 -3.3633  1.7380
10214TIP3   OH254836   1.622   0.907  10.631  0.4434 -0.6408 -0.3694
10214TIP3    H154837   1.536   0.934  10.660  0.4175 -0.9840 -0.1187
10214TIP3    H254838   1.636   0.822  10.672  1.7750  0.3288  1.3255
10215TIP3   OH254839   4.901   3.810  12.948  0.1666  0.3818  0.2264
10215TIP3    H154840   4.961   3.796  12.875 -1.5103  2.1846 -1.5862
10215TIP3    H254841   4.920   3.899  12.977 -0.6976  0.4661  0.5442
10216TIP3   OH254842   2.638   4.115  11.558 -0.3082  0.0996 -0.2540
10216TIP3    H154843   2.561   4.155  11.518 -0.7439 -1.3991 -1.0172
10216TIP3    H254844   2.711   4.140  11.502 -0.7440 -1.0352 -1.3784
10217TIP3   OH254845   6.284   3.212  11.901 -0.3900  0.0662 -0.1919
10217TIP3    H154846   6.309   3.227  11.810 -0.0456  0.1025 -0.0946
10217TIP3    H254847   6.362   3.173  11.940  0.4289  2.4787  0.7555
10218TIP3   OH254848   5.540   0.730  11.311  0.0905 -0.1628  0.0672
10218TIP3    H154849   5.626   0.722  11.270 -1.0800  0.4431 -2.7144
10218TIP3    H254850   5.543   0.812  11.359  1.0765 -0.1801  0.0514
10219TIP3   OH254851   2.274   2.021  11.513 -0.1127  0.3623 -0.2584
10219TIP3    H154852   2.283   1.948  11.574  0.7182  0.2842 -0.4600
10219TIP3    H254853   2.257   2.097  11.569  0.2706  0.2296  0.0417
10220TIP3   OH254854   3.270   5.180  10.588 -0.0055  0.6095 -0.3577
10220TIP3    H154855   3.287   5.252  10.648  0.6924 -0.6679  1.0636
10220TIP3    H254856   3.175   5.174  10.584 -0.0684  0.6407  0.7440
10221TIP3   OH254857   3.179   1.299  12.503  0.1182  0.6650 -0.4584
10221TIP3    H154858   3.087   1.287  12.527 -0.0597  2.4732 -0.0742
10221TIP3    H254859   3.192   1.394  12.508  1.8722  0.4784 -1.0243
10222TIP3   OH254860   0.385   5.198  12.452 -0.0816  0.5788 -0.3322
10222TIP3    H154861   0.401   5.285  12.487  3.1794  0.4760 -1.2040
10222TIP3    H254862   0.417   5.202  12.361  0.8238 -1.6394 -0.1903
10223TIP3   OH254863   4.718   5.056  10.820 -0.5002 -0.3494 -0.4589
10223TIP3    H154864   4.727   4.963  10.840  1.5159 -0.2258 -0.5119
10223TIP3    H254865   4.797   5.096  10.857 -1.7171  1.4821  0.2726
10224TIP3   OH254866   6.134   4.734  10.150 -0.0757  0.1839  0.3090
10224TIP3    H154867   6.059   4.749  10.207 -0.3187 -1.1259  0.3688
10224TIP3    H254868   6.168   4.648  10.177  2.2581  1.2817  1.1911
10225TIP3   OH254869   4.588   0.513  10.719  0.0623 -0.1061  0.0408
10225TIP3    H154870   4.602   0.608  10.715  0.1258  0.0149  1.9222
10225TIP3    H254871   4.544   0.499  10.803 -0.4713 -1.6989 -0.4669
10226TIP3   OH254872   4.801   2.291   9.612 -0.2100  0.1685 -0.0760
10226TIP3    H154873   4.726   2.315   9.666  0.1700  2.1592 -0.3362
10226TIP3    H254874   4.877   2.320   9.662  0.2344  0.4800 -0.9034
10227TIP3   OH254875   0.315   3.833  12.664  0.0043  0.2074  0.8078
10227TIP3    H154876   0.385   3.859  12.604  0.1331  2.3950  1.8041
10227TIP3    H254877   0.309   3.738  12.654  1.1548  0.2976 -1.3876
10228TIP3   OH254878   0.217   3.925  10.180  0.3026 -0.8368 -0.0461
10228TIP3    H154879   0.185   3.912  10.090 -0.0780 -2.9195  0.3448
10228TIP3    H254880   0.141   3.910  10.235  0.1146  2.0308  0.6614
10229TIP3   OH254881   5.385   4.457  12.033 -0.6293  0.3896  0.0054
10229TIP3    H154882   5.475   4.460  12.067 -0.2233 -0.8328 -0.9102
10229TIP3    H254883   5.330   4.459  12.112  0.2459 -0.5519  0.6696
10230TIP3   OH254884   2.533   4.453   8.932  0.3870 -0.0529 -0.0612
10230TIP3    H154885   2.464   4.518   8.921  0.6042  0.4428  1.4409
10230TIP3    H254886   2.598   4.475   8.864 -0.6276 -0.1746 -1.1075
10231TIP3   OH254887   6.669   1.722  12.208  0.2011  0.1321  0.2143
10231TIP3    H154888   6.674   1.817  12.223 -0.1694  0.0836  0.6702
10231TIP3    H254889   6.588   1.695  12.253 -0.1326 -0.2683 -0.6134
10232TIP3   OH254890   5.377   1.969  10.673 -0.0288 -0.2641  0.3324
10232TIP3    H154891   5.388   1.930  10.586  1.6827 -0.8058  0.7627
10232TIP3    H254892   5.324   1.905  10.721  0.6442 -0.8738  0.2717
10233TIP3   OH254893   5.876   6.057   9.925  0.2130  0.2983  0.1841
10233TIP3    H154894   5.885   6.130   9.863  3.4906  0.7345  0.9818
10233TIP3    H254895   5.946   5.997   9.901 -0.0583 -0.7609  1.8979
10234TIP3   OH254896   0.002   1.995  12.120 -0.7706 -0.4876  0.6502
10234TIP3    H154897   0.078   2.008  12.063 -0.3624 -1.2206  1.0030
10234TIP3    H254898  -0.073   1.997  12.061 -0.3134 -1.9114 -0.0441
10235TIP3   OH254899   0.686   1.633  10.676 -0.1781  0.5165 -0.0617
10235TIP3    H154900   0.778   1.635  10.703 -0.2488 -0.9443  0.4224
10235TIP3    H254901   0.637   1.634  10.758 -0.5320 -0.1103 -0.2547
10236TIP3   OH254902   3.816   5.839   9.523 -0.2164  0.3605 -0.0828
10236TIP3    H154903   3.871   5.892   9.582 -0.0637 -0.8084  0.8693
10236TIP3    H254904   3.746   5.898   9.497 -0.9589  0.6273  2.2419
10237TIP3   OH254905   0.929   2.986  12.197 -0.0887 -0.1393 -0.0372
10237TIP3    H154906   0.923   2.910  12.139  0.1124  0.6941 -1.1852
10237TIP3    H254907   0.838   3.010  12.213 -0.1554  0.4473 -1.1569
10238TIP3   OH254908   3.155   3.463  10.795  0.5280 -0.6851 -0.4182
10238TIP3    H154909   3.183   3.378  10.829  0.9645 -0.6821 -0.7756
10238TIP3    H254910   3.217   3.483  10.725  1.1120  0.4479  0.4003
10239TIP3   OH254911   6.656   3.041  12.917 -0.1768  0.3569  0.0199
10239TIP3    H154912   6.702   2.980  12.975 -0.7081  1.1182  1.2874
10239TIP3    H254913   6.693   3.127  12.937 -1.5004  0.8623  0.4474
10240TIP3   OH254914   5.385   6.469  10.885 -0.1981  0.2540  0.3451
10240TIP3    H154915   5.395   6.379  10.854  2.8127  0.0616  1.5292
10240TIP3    H254916   5.397   6.524  10.808  1.3969 -0.3332  0.1417
10241TIP3   OH254917   2.475   0.658  12.381  0.5957 -0.3145  0.3307
10241TIP3    H154918   2.389   0.631  12.414 -0.2337  2.3147  0.5322
10241TIP3    H254919   2.459   0.680  12.290  0.8584  0.9711  0.5869
10242TIP3   OH254920   3.491   4.738  10.383 -0.5166  0.2965  0.1150
10242TIP3    H154921   3.526   4.662  10.429 -0.7312 -0.1032 -0.3655
10242TIP3    H254922   3.560   4.763  10.322  0.7006  2.2091  2.1309
10243TIP3   OH254923   4.303   3.116  10.494  0.4255  0.0197 -0.3560
10243TIP3    H154924   4.344   3.049  10.439 -1.4938 -0.4840 -1.2654
10243TIP3    H254925   4.259   3.066  10.563  2.5701  0.6301  1.5750
10244TIP3   OH254926   1.152   2.114  11.939 -0.0859 -0.1659 -0.4093
10244TIP3    H154927   1.157   2.154  11.853 -1.4279  1.1262  0.0614
10244TIP3    H254928   1.059   2.095  11.952 -0.4389  2.3296  1.8199
10245TIP3   OH254929   6.558   0.652  11.184 -0.3486  0.2977 -0.1709
10245TIP3    H154930   6.623   0.702  11.233 -1.5564  1.8907 -0.1289
10245TIP3    H254931   6.496   0.623  11.250  1.7350 -3.8450  0.3076
10246TIP3   OH254932   1.086   1.257  10.331 -0.3536 -0.2606  0.9147
10246TIP3    H154933   1.066   1.250  10.425 -1.3561 -1.2020  0.6559
10246TIP3    H254934   1.007   1.224  10.288 -0.7368  2.1446 -0.3354
10247TIP3   OH254935   3.459   1.708  10.195 -0.4720  0.5120  0.3798
10247TIP3    H154936   3.457   1.625  10.147  0.3074  1.0726 -0.6592
10247TIP3    H254937   3.530   1.757  10.155 -1.1387  1.8238  0.7499
10248TIP3   OH254938   2.046   4.081  10.420 -0.2758  0.1430 -0.4966
10248TIP3    H154939   1.986   4.007  10.432  0.2189 -0.3565 -1.0427
10248TIP3    H254940   2.084   4.095  10.507  0.7530 -1.2439 -0.6734
10249TIP3   OH254941   3.070   2.806  13.088  0.2661  0.0975  0.4912
10249TIP3    H154942   2.976   2.807  13.072  0.4730  0.9869 -0.8675
10249TIP3    H254943   3.109   2.809  13.000  1.5745 -0.8890  1.0016
10250TIP3   OH254944   3.310   4.502  11.303  0.2142 -0.3507 -0.3948
10250TIP3    H154945   3.332   4.473  11.392  1.5003 -0.0977 -0.6192
10250TIP3    H254946   3.215   4.494  11.299  0.2350 -1.3855  0.6490
10251TIP3   OH254947   6.487   2.047  11.271 -0.2352  0.1751  0.0407
10251TIP3    H154948   6.395   2.053  11.297  0.2383 -0.0013  1.9293
10251TIP3    H254949   6.485   2.004  11.185 -2.0879  3.4804 -1.7829
10252TIP3   OH254950   2.504   4.412  12.223 -0.1489 -0.2428  0.0880
10252TIP3    H154951   2.531   4.489  12.272 -2.2203 -1.8114  4.1102
10252TIP3    H254952   2.437   4.444  12.163  1.9340  1.6246 -1.4295
10253TIP3   OH254953   1.273   1.168  12.565 -0.1284  0.1493 -0.2429
10253TIP3    H154954   1.294   1.197  12.654  1.8547 -4.6504  1.2004
10253TIP3    H254955   1.182   1.140  12.569 -0.3772  0.9443 -0.1103
10254TIP3   OH254956   2.375   1.669  10.512  0.6757  0.1382 -0.2808
10254TIP3    H154957   2.467   1.643  10.500  1.3863  2.6221 -0.9377
10254TIP3    H254958   2.342   1.681  10.423  0.1192  0.5192 -0.0290
10255TIP3   OH254959   3.480   4.300  12.436  0.4565 -0.6852  0.1931
10255TIP3    H154960   3.572   4.307  12.410  1.3123  0.1983  3.0302
10255TIP3    H254961   3.436   4.368  12.386  1.3980 -0.8692 -0.9366
10256TIP3   OH254962   3.366   5.319  11.202  0.5277 -0.7510 -0.0941
10256TIP3    H154963   3.391   5.362  11.284 -0.9453 -0.6864  0.3580
10256TIP3    H254964   3.326   5.237  11.229 -0.3123 -0.5631 -0.7153
10257TIP3   OH254965   2.074   2.352  10.480 -0.4735  0.0652  0.1600
10257TIP3    H154966   2.106   2.280  10.425 -0.4785  0.9321 -1.0261
10257TIP3    H254967   1.996   2.384  10.435  1.3814  2.9896 -1.3037
10258TIP3   OH254968   2.798   5.117  11.280  0.2515 -0.0176  0.3725
10258TIP3    H154969   2.848   5.133  11.360 -0.2613  0.4582  0.6037
10258TIP3    H254970   2.840   5.041  11.240  0.5829 -0.1840  1.0318
10259TIP3   OH254971   2.408   0.111   9.499  0.4489 -0.8589  0.0043
10259TIP3    H154972   2.363   0.041   9.452 -0.0801 -0.5306  0.0128
10259TIP3    H254973   2.395   0.090   9.591 -2.1281  0.6851  0.0987
10260TIP3   OH254974   6.077   0.310  10.264  0.4048  0.0501  0.0558
10260TIP3    H154975   6.099   0.319  10.171  1.0928 -0.9073  0.1065
10260TIP3    H254976   6.029   0.227  10.269  1.6717 -0.6729  0.7452
10261TIP3   OH254977   0.368   0.194  11.637  0.2136 -0.0526  0.3203
10261TIP3    H154978   0.347   0.205  11.544  0.6800  1.1681  0.3423
10261TIP3    H254979   0.309   0.254  11.683  0.5259 -0.0592  0.7400
10262TIP3   OH254980   3.675   2.843  11.228 -0.2481  0.5043 -0.3755
10262TIP3    H154981   3.607   2.907  11.246  0.8451  1.3687  0.8278
10262TIP3    H254982   3.659   2.772  11.290  0.2369  0.9388  0.2516
10263TIP3   OH254983   2.069   5.064   9.266  0.0519 -0.0237 -0.0418
10263TIP3    H154984   2.047   5.098   9.353  0.9679 -1.2668  0.7198
10263TIP3    H254985   2.158   5.029   9.276 -0.6473 -2.2180 -0.8547
10264TIP3   OH254986   1.928   1.120  11.194 -0.8173 -0.4887  0.0913
10264TIP3    H154987   2.020   1.141  11.205 -0.5175 -1.4661 -0.4587
10264TIP3    H254988   1.895   1.188  11.136 -0.0152 -1.0994 -1.1289
10265TIP3   OH254989   5.800   2.886  11.939  0.0503 -0.1679  0.5655
10265TIP3    H154990   5.754   2.968  11.922  0.9387  0.4260  1.0108
10265TIP3    H254991   5.801   2.842  11.854 -2.5095 -0.8458  0.7735
10266TIP3   OH254992   2.544   3.538  10.700  0.2855  0.1512  0.3165
10266TIP3    H154993   2.464   3.486  10.704  0.7472 -0.5278  4.0551
10266TIP3    H254994   2.516   3.627  10.724  0.6037 -0.0817  1.6008
10267TIP3   OH254995   0.936   2.879  10.347 -0.1332  0.3183  0.2689
10267TIP3    H154996   0.999   2.933  10.395  0.1588 -0.1775  0.4524
10267TIP3    H254997   0.863   2.938  10.328 -0.0124  0.6599  0.8530
10268TIP3   OH254998   3.948   3.630  11.618 -0.5170  0.5159  0.7174
10268TIP3    H154999   3.900   3.590  11.691 -0.3489  1.1314  1.1756
10268TIP3    H255000   3.951   3.724  11.639  0.0926  0.6151  0.2445
10269TIP3   OH255001   6.400   3.651   9.647 -0.7957 -0.1074  0.4872
10269TIP3    H155002   6.463   3.671   9.577 -0.2386  0.0779  1.0273
10269TIP3    H255003   6.401   3.555   9.653 -0.0706 -0.0835  0.9203
10270TIP3   OH255004   1.967   0.293   9.336 -0.1903  0.3797 -0.0847
10270TIP3    H155005   1.877   0.321   9.321 -0.7077 -0.4255  1.2573
10270TIP3    H255006   2.021   0.369   9.314 -1.3292  1.4606  0.7023
10271TIP3   OH255007   1.530   1.761  10.485 -0.4995  0.5197  0.9754
10271TIP3    H155008   1.585   1.773  10.407 -0.0945  0.2113  1.2068
10271TIP3    H255009   1.471   1.690  10.462 -1.2994  1.3367  0.4620
10272TIP3   OH255010   5.188   2.886  10.489 -0.6422 -0.3725 -0.1632
10272TIP3    H155011   5.205   2.792  10.492  0.7445 -0.1947 -1.2810
10272TIP3    H255012   5.166   2.910  10.579 -2.1932 -1.9401 -0.0728
10273TIP3   OH255013   3.415   2.279  12.425  0.0512 -0.2579  0.2134
10273TIP3    H155014   3.399   2.321  12.340 -0.2505 -1.0312 -0.1123
10273TIP3    H255015   3.347   2.213  12.432  0.9237 -1.1490  0.4317
10274TIP3   OH255016   2.990   1.251   9.974  0.0642 -0.2327 -0.4386
10274TIP3    H155017   3.084   1.247   9.994  0.0585  0.7815 -0.1756
10274TIP3    H255018   2.980   1.330   9.921 -0.5388 -0.7161 -1.0501
10275TIP3   OH255019   5.124   5.817  11.999 -0.4948 -0.5379  0.3515
10275TIP3    H155020   5.102   5.834  11.907  0.2478 -1.3647  0.0037
10275TIP3    H255021   5.039   5.809  12.043 -0.8919  1.8486  0.1492
10276TIP3   OH255022   1.210   2.662  11.097 -0.3158 -0.3978  0.2222
10276TIP3    H155023   1.204   2.735  11.158 -2.8328 -0.4639  0.1648
10276TIP3    H255024   1.211   2.703  11.011  0.8798 -0.3784  0.2336
10277TIP3   OH255025   4.444   2.565  11.363 -0.2953 -0.0906  0.1183
10277TIP3    H155026   4.449   2.528  11.451  0.6530  2.4260  1.2224
10277TIP3    H255027   4.442   2.660  11.377 -1.1012  0.3679 -2.5614
10278TIP3   OH255028   3.053   2.848  12.423 -0.0149 -0.2674  0.2509
10278TIP3    H155029   3.049   2.763  12.467  1.7530 -0.7973 -0.5312
10278TIP3    H255030   3.143   2.878  12.437  0.0697  0.3699 -1.4794
10279TIP3   OH255031   4.257   5.630  10.896  0.1522 -0.9296  0.4435
10279TIP3    H155032   4.352   5.618  10.889  0.4919 -0.4198  3.2592
10279TIP3    H255033   4.245   5.725  10.895 -0.5083 -0.9869 -1.0499
10280TIP3   OH255034   4.019   5.788  11.471  0.0953  0.7391 -0.4480
10280TIP3    H155035   4.020   5.750  11.383  1.1186  1.4646 -0.7745
10280TIP3    H255036   3.976   5.873  11.460  1.1196  1.2771 -0.4702
10281TIP3   OH255037   4.633   3.232  11.373 -0.6302  0.1526  0.7595
10281TIP3    H155038   4.646   3.140  11.350  0.6774 -0.0436  2.1320
10281TIP3    H255039   4.583   3.230  11.454 -2.0396  0.7331 -0.0543
10282TIP3   OH255040   2.001   0.391  10.412  0.0457 -0.2758 -0.6290
10282TIP3    H155041   2.065   0.344  10.464 -1.0122 -1.6907 -0.5503
10282TIP3    H255042   2.040   0.398  10.325  1.3028  1.0227 -0.0038
10283TIP3   OH255043   6.509   3.042   9.529 -0.1718  0.2413 -0.4283
10283TIP3    H155044   6.473   3.109   9.588  2.9536  1.9336 -0.2192
10283TIP3    H255045   6.532   3.090   9.449  0.9925 -0.8011 -0.7595
10284TIP3   OH255046   0.866   5.986  10.119 -0.1084  0.0650  0.4692
10284TIP3    H155047   0.885   5.903  10.076 -2.6102  0.0079 -0.6573
10284TIP3    H255048   0.814   5.961  10.196 -1.4176  0.5772 -0.2200
10285TIP3   OH255049   5.789   4.532  12.360 -0.2430  0.0126 -0.1173
10285TIP3    H155050   5.744   4.617  12.354 -2.2106 -0.9144  0.5420
10285TIP3    H255051   5.806   4.521  12.454 -0.2210 -0.4321 -0.1711
10286TIP3   OH255052   5.018   3.949  10.452  0.3020 -0.5016 -0.0463
10286TIP3    H155053   5.002   3.868  10.501  1.7712 -1.5160 -1.1307
10286TIP3    H255054   5.014   4.018  10.517 -1.1283 -1.4104  0.8920
10287TIP3   OH255055   0.325   6.652  10.024 -0.0134 -0.1574  0.8236
10287TIP3    H155056   0.415   6.620  10.029  0.0270 -0.8570 -2.3933
10287TIP3    H255057   0.281   6.590   9.967 -2.2583  0.8677  1.3416
10288TIP3   OH255058   5.675   1.605  11.390 -0.3293 -0.2595  0.2077
10288TIP3    H155059   5.683   1.521  11.344  2.2895 -0.2789  0.5552
10288TIP3    H255060   5.730   1.595  11.467 -0.0639  1.7421  0.3203
10289TIP3   OH255061   3.803   1.315  11.538  0.2426 -0.1531 -0.1778
10289TIP3    H155062   3.731   1.357  11.493 -1.0864 -0.3227  1.6503
10289TIP3    H255063   3.853   1.387  11.576  0.7861 -0.0575 -1.0468
10290TIP3   OH255064   1.004   6.534   9.736  0.2224  0.1055 -0.4638
10290TIP3    H155065   1.066   6.477   9.782  1.5664  0.7271 -1.4671
10290TIP3    H255066   0.966   6.588   9.806  0.9943 -0.1056  0.1380
10291TIP3   OH255067   0.063   6.499  12.518  0.3918  0.3674  0.4028
10291TIP3    H155068  -0.023   6.537  12.501  0.4348  0.1935 -0.2123
10291TIP3    H255069   0.095   6.547  12.595  0.7082  2.0374 -0.7114
10292TIP3   OH255070   2.798   6.665   9.498  0.2144 -0.2405  0.1475
10292TIP3    H155071   2.831   6.593   9.552 -0.3031  0.1494  1.0015
10292TIP3    H255072   2.858   6.669   9.424 -0.7165 -2.6810 -0.8609
10293TIP3   OH255073   5.638   1.004  11.674  0.3931  0.0872  0.3936
10293TIP3    H155074   5.585   1.024  11.751  0.1149 -1.8138  0.7303
10293TIP3    H255075   5.575   0.994  11.603  0.5191  0.3144  0.2477
10294TIP3   OH255076   1.990   6.624  10.510 -0.1105 -0.1716  0.6422
10294TIP3    H155077   2.057   6.645  10.575  1.3429  2.9316 -1.5854
10294TIP3    H255078   1.927   6.696  10.516  0.5645  0.7219 -1.8827
10295TIP3   OH255079   6.687   1.724  10.675 -0.3249  0.4610 -0.2838
10295TIP3    H155080   6.765   1.689  10.631 -0.7800 -2.3682  0.9702
10295TIP3    H255081   6.722   1.790  10.735  1.1259 -0.5795  0.0851
10296TIP3   OH255082   6.699   1.877  12.738  0.1032  0.2902 -0.1821
10296TIP3    H155083   6.781   1.853  12.781  0.8397  1.1791 -1.0691
10296TIP3    H255084   6.704   1.972  12.727 -0.9253  0.3171 -0.4870
10297TIP3   OH255085   2.583   6.294  10.595 -0.2343  0.8551 -0.7281
10297TIP3    H155086   2.521   6.365  10.577 -2.0001 -0.6266 -0.8028
10297TIP3    H255087   2.594   6.295  10.690 -1.4368  0.3347 -0.5635
10298TIP3   OH255088   4.457   4.579  10.588  0.5844 -0.0489  0.1750
10298TIP3    H155089   4.397   4.585  10.514  2.5195 -0.2903 -1.4747
10298TIP3    H255090   4.455   4.666  10.627  1.8514  1.0661 -2.0824
10299TIP3   OH255091   0.215   4.649  13.306  0.0565 -0.5022  0.6407
10299TIP3    H155092   0.299   4.665  13.349  0.3843  0.9612 -0.4592
10299TIP3    H255093   0.160   4.722  13.335 -0.4226 -0.7381  0.3252
10300TIP3   OH255094   5.820   3.826  10.569  0.1968  0.1214 -0.0056
10300TIP3    H155095   5.885   3.857  10.631  0.6237 -1.0466  0.1567
10300TIP3    H255096   5.864   3.756  10.521  0.0715  1.3672 -2.0431
10301TIP3   OH255097   1.259   6.396  11.598 -0.8579  0.0388 -0.4574
10301TIP3    H155098   1.216   6.367  11.678  1.1411  0.9325  1.0488
10301TIP3    H255099   1.300   6.479  11.622  1.0941 -0.4126 -1.9405
10302TIP3   OH255100   4.134   4.227   9.224  0.5361 -0.4247 -0.0728
10302TIP3    H155101   4.163   4.136   9.214  0.4774 -0.6307  1.3210
10302TIP3    H255102   4.170   4.254   9.309  1.8217  1.3732 -1.1262
10303TIP3   OH255103   6.357   2.967  10.068 -0.5470  0.9542  0.1914
10303TIP3    H155104   6.415   3.040  10.089 -0.9993  1.2772  0.3380
10303TIP3    H255105   6.389   2.895  10.123 -1.4828  1.6821  1.7700
10304TIP3   OH255106   1.928   6.639  10.045  0.4555 -0.3981  0.8242
10304TIP3    H155107   1.885   6.596  10.118  0.2493 -0.5281  0.6291
10304TIP3    H255108   1.988   6.702  10.085  1.6925 -1.7337  1.1588
10305TIP3   OH255109   2.548   3.703  12.018 -0.2162  0.0550  0.0688
10305TIP3    H155110   2.602   3.634  12.058 -0.2623  0.4385  0.7995
10305TIP3    H255111   2.508   3.748  12.091 -2.9333 -1.2762 -0.4704
10306TIP3   OH255112   1.423   1.662  10.998  0.0627 -0.2983  0.1761
10306TIP3    H155113   1.459   1.666  11.086 -1.9673  1.7425  1.0213
10306TIP3    H255114   1.492   1.698  10.942  2.1106 -3.3151  0.5225
10307TIP3   OH255115   3.839   2.442  11.881  0.1785  0.5261 -0.4066
10307TIP3    H155116   3.914   2.415  11.934  0.0794 -3.3425 -1.9497
10307TIP3    H255117   3.762   2.421  11.935  0.1365 -1.0769 -1.0495
10308TIP3   OH255118   6.205   5.194  11.717 -0.5464 -0.0909  0.1864
10308TIP3    H155119   6.199   5.139  11.639 -1.6391 -0.9417  0.8529
10308TIP3    H255120   6.115   5.217  11.738 -0.1380  1.6919  0.1301
10309TIP3   OH255121   2.018   2.136  11.424  0.2979  0.6440  0.9292
10309TIP3    H155122   2.078   2.211  11.411  1.5860 -0.3250  1.0731
10309TIP3    H255123   1.997   2.108  11.335  2.3658 -0.7423  0.7956
10310TIP3   OH255124   4.946   1.747  12.511  0.1158 -0.0998 -0.3132
10310TIP3    H155125   4.944   1.654  12.491  0.2752  0.3024 -2.5078
10310TIP3    H255126   5.026   1.778  12.468 -0.1067  1.0990  0.1047
10311TIP3   OH255127   5.111   2.209  11.566  0.4785  0.1597  0.2844
10311TIP3    H155128   5.066   2.237  11.486 -2.8488 -1.5716  1.3772
10311TIP3    H255129   5.173   2.143  11.536 -1.7366 -1.5451 -0.8355
10312TIP3   OH255130   4.766   0.501  10.471  0.2738  0.4304 -0.8164
10312TIP3    H155131   4.736   0.535  10.556  0.3248 -1.0018 -0.1988
10312TIP3    H255132   4.826   0.568  10.438 -0.6718  1.5715 -0.2941
10313TIP3   OH255133   0.824   4.352  10.858  0.1413  0.1233  0.3998
10313TIP3    H155134   0.875   4.273  10.837  0.7959  0.2889  1.3047
10313TIP3    H255135   0.738   4.318  10.883  0.7154 -0.4148  1.7735
10314TIP3   OH255136   2.851   0.243   9.228  0.1193  0.4038  0.1833
10314TIP3    H155137   2.762   0.255   9.263  0.8216  0.4018  2.1127
10314TIP3    H255138   2.876   0.156   9.258  0.2692 -0.1942 -1.5948
10315TIP3   OH255139   3.229   6.393  11.565 -0.2574 -0.3128 -0.3586
10315TIP3    H155140   3.221   6.312  11.515 -1.0874  0.2031 -1.0927
10315TIP3    H255141   3.139   6.422  11.579 -0.0605 -0.5026  1.5808
10316TIP3   OH255142   4.063   1.777  11.782 -0.0327 -0.5426 -0.0521
10316TIP3    H155143   4.104   1.819  11.857  0.4285 -0.4569 -0.3462
10316TIP3    H255144   4.029   1.694  11.817  0.3362 -0.5873  0.2124
10317TIP3   OH255145   1.347   2.966  10.228  0.0585 -0.0353  0.0526
10317TIP3    H155146   1.393   2.891  10.267 -0.5462 -1.0122 -1.0480
10317TIP3    H255147   1.416   3.030  10.211  0.7352 -0.7132  0.1544
10318TIP3   OH255148   3.291   4.212  10.214  0.0961  0.1876  0.3300
10318TIP3    H155149   3.360   4.150  10.188  0.8816  1.1634  0.0115
10318TIP3    H255150   3.209   4.166  10.195  0.6521 -0.6278 -0.1917
10319TIP3   OH255151   0.309   4.130   9.121  0.6326 -0.0213 -0.3736
10319TIP3    H155152   0.267   4.190   9.059 -0.2960 -1.4865 -1.2327
10319TIP3    H255153   0.365   4.186   9.174 -0.4105  1.6425 -0.9324
10320TIP3   OH255154   4.046   3.421  11.903 -0.0444  0.2260  0.8785
10320TIP3    H155155   3.969   3.475  11.886  0.2926  0.9723  1.6128
10320TIP3    H255156   4.044   3.354  11.835 -0.4413  1.2058 -0.1168
10321TIP3   OH255157   2.119   2.733  12.049  0.2517  0.5809 -0.7172
10321TIP3    H155158   2.088   2.656  12.096 -0.3759  0.1810 -1.7396
10321TIP3    H255159   2.048   2.754  11.989  0.6517  1.6221 -0.8476
10322TIP3   OH255160   6.207   2.204  11.804 -0.6466 -0.1782  0.0808
10322TIP3    H155161   6.140   2.207  11.872 -0.9059 -1.8940 -0.0461
10322TIP3    H255162   6.290   2.212  11.850 -0.8906  3.0079  0.1504
10323TIP3   OH255163   2.486   2.073  11.336 -0.6502 -0.2502  0.0216
10323TIP3    H155164   2.513   1.983  11.314  1.2166  0.3167 -0.2218
10323TIP3    H255165   2.400   2.063  11.376 -0.4439 -2.1662  0.0983
10324TIP3   OH255166   6.258   4.281   9.828 -0.0438 -0.5996  0.5381
10324TIP3    H155167   6.343   4.323   9.815  0.0839 -1.0639 -0.1869
10324TIP3    H255168   6.222   4.323   9.906 -0.2201  1.3312 -0.5244
10325TIP3   OH255169   4.447   2.218  11.377 -0.7273  0.6151 -0.0562
10325TIP3    H155170   4.529   2.204  11.425 -0.0675 -1.1779 -1.5487
10325TIP3    H255171   4.405   2.132  11.379 -0.2575  0.1971 -3.2918
10326TIP3   OH255172   1.236   6.676   9.250 -0.1081  0.1017  0.1576
10326TIP3    H155173   1.218   6.744   9.315 -1.2796  1.3556 -1.3726
10326TIP3    H255174   1.150   6.652   9.215  0.3564 -1.6480  0.1264
10327TIP3   OH255175   0.356   3.564  11.796 -0.1420  0.1626 -0.2847
10327TIP3    H155176   0.449   3.579  11.779 -0.4905  1.0752 -1.5368
10327TIP3    H255177   0.341   3.473  11.770  0.2421  0.2488 -0.8332
10328TIP3   OH255178   2.877   2.257  11.188 -0.0081 -0.2392 -0.5270
10328TIP3    H155179   2.969   2.280  11.175 -0.4077  1.8659 -0.0268
10328TIP3    H255180   2.879   2.164  11.209  1.9069 -0.4686 -1.4835
10329TIP3   OH255181   0.631   2.916  10.577 -0.4763 -0.2106 -0.5955
10329TIP3    H155182   0.688   2.891  10.650 -0.3060  1.1813 -0.2139
10329TIP3    H255183   0.660   3.004  10.554 -1.0192 -0.3480 -1.8717
10330TIP3   OH255184   5.751   3.804  12.536  0.0609  0.1297  0.6126
10330TIP3    H155185   5.694   3.778  12.463 -0.0592  0.8830  0.4379
10330TIP3    H255186   5.809   3.728  12.548 -0.6373 -0.4415  0.4586
10331TIP3   OH255187   5.129   2.755   9.567 -0.0647  0.1825  0.5524
10331TIP3    H155188   5.080   2.685   9.522  0.7143  0.2471 -0.4211
10331TIP3    H255189   5.070   2.783   9.637 -0.7233 -0.9055  0.4634
10332TIP3   OH255190   3.043   4.232   9.396  0.6428 -0.7374 -0.0739
10332TIP3    H155191   2.977   4.266   9.336  0.4786 -0.9493 -0.0138
10332TIP3    H255192   3.084   4.311   9.432  1.8573 -0.6110 -1.6623
10333TIP3   OH255193   2.804   3.695  10.657  0.3064  0.1120  0.3994
10333TIP3    H155194   2.863   3.678  10.584 -0.3293  1.4852 -0.4839
10333TIP3    H255195   2.747   3.618  10.660 -0.8215  0.7780 -1.7589
10334TIP3   OH255196   3.563   4.515  10.510 -0.1737  0.6478  0.1021
10334TIP3    H155197   3.519   4.433  10.486 -0.4122  0.5358  0.8785
10334TIP3    H255198   3.656   4.493  10.511 -0.2176  0.4541  0.0396
10335TIP3   OH255199   0.512   4.618  12.382 -0.1817 -0.0711 -0.9145
10335TIP3    H155200   0.497   4.625  12.288  1.3356  0.8101 -1.1137
10335TIP3    H255201   0.545   4.704  12.408 -1.5774  0.0403  0.6450
10336TIP3   OH255202   0.540   3.091  12.782  0.0155 -0.5713  0.0859
10336TIP3    H155203   0.600   3.164  12.795 -0.5397 -0.3441  1.5698
10336TIP3    H255204   0.529   3.053  12.869 -1.4422 -1.0197 -0.2601
10337TIP3   OH255205   0.644   2.647   9.274  0.3835  0.0098 -0.0827
10337TIP3    H155206   0.719   2.681   9.323 -0.2503  0.9936  0.2505
10337TIP3    H255207   0.641   2.700   9.194  0.5952 -0.6635 -0.5483
10338TIP3   OH255208   4.808   5.124  10.562 -0.0469  0.0812  0.0957
10338TIP3    H155209   4.729   5.110  10.509  0.4895 -1.9706 -0.2464
10338TIP3    H255210   4.779   5.110  10.652 -0.3896  0.9010  0.1216
10339TIP3   OH255211   2.025   2.412  10.126  0.0323 -0.7649  0.0621
10339TIP3    H155212   1.992   2.442  10.210  1.5032 -1.0931  0.7985
10339TIP3    H255213   2.059   2.324  10.143  1.2153 -0.4735 -0.6149
10340TIP3   OH255214   2.821   2.839  10.302 -0.1950 -0.2371 -0.1024
10340TIP3    H155215   2.794   2.931  10.310  0.8004 -0.0110  0.8843
10340TIP3    H255216   2.859   2.834  10.214 -0.9553  0.0911 -0.4646
10341TIP3   OH255217   4.188   2.242   9.709  0.0677  0.6022  0.0441
10341TIP3    H155218   4.199   2.334   9.732  0.1160  0.3009  1.3498
10341TIP3    H255219   4.181   2.241   9.614  1.4463  1.8049 -0.1036
10342TIP3   OH255220   0.751   0.996  12.270 -0.0589 -0.2383 -0.5160
10342TIP3    H155221   0.706   1.004  12.354 -0.3062 -2.2572 -0.4290
10342TIP3    H255222   0.833   0.950  12.291  0.2265 -0.0917 -1.2763
10343TIP3   OH255223   0.878   6.051  12.103  0.3403 -0.1397  0.2370
10343TIP3    H155224   0.866   6.081  12.013  1.8414  0.7515  0.3020
10343TIP3    H255225   0.798   6.078  12.148 -0.2200 -0.1660 -0.7027
10344TIP3   OH255226   0.859   0.533  11.184 -0.0503 -0.0978 -0.0137
10344TIP3    H155227   0.800   0.587  11.131 -1.2148 -0.5484  0.7778
10344TIP3    H255228   0.802   0.468  11.224  0.6065  0.8248  2.6073
10345TIP3   OH255229   5.717   3.860  12.193  0.1623  0.3021 -0.0656
10345TIP3    H155230   5.678   3.793  12.250  1.1308 -0.2317 -0.0163
10345TIP3    H255231   5.804   3.827  12.173  0.1136  0.8306 -1.2680
10346TIP3   OH255232   4.585   5.899  10.245  0.1495 -0.1094  0.5318
10346TIP3    H155233   4.628   5.834  10.190  1.6524  0.8338  0.5426
10346TIP3    H255234   4.645   5.974  10.246 -1.4674  1.2579  0.5976
10347TIP3   OH255235   2.746   0.878  11.551 -0.0980  0.2490 -0.5562
10347TIP3    H155236   2.823   0.827  11.575 -0.4085 -0.3031 -0.7127
10347TIP3    H255237   2.776   0.969  11.551  0.2432  0.1482  0.5838
10348TIP3   OH255238   5.032   4.838  10.724  0.0382 -0.5438 -0.0787
10348TIP3    H155239   5.076   4.786  10.792  0.8032 -1.6869 -1.4079
10348TIP3    H255240   4.941   4.811  10.728 -0.1844  0.3077  1.2962
10349TIP3   OH255241   6.600   5.195  10.645  0.4509 -0.0657  0.7221
10349TIP3    H155242   6.668   5.171  10.581 -1.1969 -1.8269 -0.4683
10349TIP3    H255243   6.555   5.270  10.605 -0.2586 -0.8548  0.0051
10350TIP3   OH255244   4.148   1.913  12.009  0.8410  0.3023 -0.7021
10350TIP3    H155245   4.139   1.930  12.103  0.7825 -0.5010 -0.5533
10350TIP3    H255246   4.180   1.995  11.973  4.5249 -0.3498  0.5780
10351TIP3   OH255247   2.629   2.453   9.446  0.2603 -0.4587  0.1613
10351TIP3    H155248   2.669   2.368   9.428  1.8491  0.3745 -0.3577
10351TIP3    H255249   2.636   2.463   9.541 -0.2463 -1.0290  0.2709
10352TIP3   OH255250   3.740   3.321  11.833  0.3127  0.2600 -0.1966
10352TIP3    H155251   3.698   3.406  11.823 -1.1674 -0.4232 -0.1201
10352TIP3    H255252   3.736   3.302  11.926 -3.5436 -1.7850 -0.5388
10353TIP3   OH255253   2.976   5.558  11.636 -0.0710  0.1667  0.2534
10353TIP3    H155254   2.901   5.615  11.653 -0.4443 -0.2023 -0.1219
10353TIP3    H255255   2.956   5.478  11.683 -0.1450 -0.1103 -0.2386
10354TIP3   OH255256   2.347   6.671  10.200 -0.2636 -0.5082  0.2806
10354TIP3    H155257   2.423   6.629  10.239  0.1243  0.0811  0.1578
10354TIP3    H255258   2.273   6.619  10.232 -0.0828  0.6473  2.7980
10355TIP3   OH255259   0.822   3.327  10.286  0.1383 -0.0033  0.5395
10355TIP3    H155260   0.790   3.398  10.342 -0.2432  0.5782 -0.3863
10355TIP3    H255261   0.903   3.362  10.249  0.1173 -0.1789  0.3295
10356TIP3   OH255262   1.833   0.664   9.254  0.7263  0.2921  0.3596
10356TIP3    H155263   1.794   0.721   9.188  0.6728  1.2508  1.1941
10356TIP3    H255264   1.911   0.712   9.283  0.7996 -0.1634  0.9174
10357TIP3   OH255265   5.816   6.199  12.013  0.3243  0.0809 -0.2602
10357TIP3    H155266   5.860   6.272  11.968  0.7078 -0.0163 -0.0512
10357TIP3    H255267   5.870   6.184  12.091  0.3042 -0.4906 -0.3546
10358TIP3   OH255268   4.529   6.458  10.771  0.0820  0.0460 -0.8946
10358TIP3    H155269   4.450   6.509  10.789  0.3066  0.2029 -0.3590
10358TIP3    H255270   4.599   6.505  10.814  0.3435 -0.5329 -0.6715
10359TIP3   OH255271   5.018   4.704  11.260  0.0056  0.0137 -0.4521
10359TIP3    H155272   5.010   4.633  11.324 -2.3390  1.1455  0.6500
10359TIP3    H255273   5.086   4.761  11.297 -0.7699  0.2471  0.6941
10360TIP3   OH255274   0.772   2.662  11.176  0.1666 -0.5819 -0.3122
10360TIP3    H155275   0.798   2.713  11.099 -1.4659 -0.4304 -0.8058
10360TIP3    H255276   0.768   2.572  11.144  1.6217 -0.8489  0.1858
10361TIP3   OH255277   0.521   5.229  11.326  0.6067 -0.2452 -0.4350
10361TIP3    H155278   0.562   5.316  11.319  0.4047  0.3715  3.6069
10361TIP3    H255279   0.589   5.173  11.361 -0.3382 -0.6320  0.8849
10362TIP3   OH255280   6.717   2.119   9.711  0.4799 -0.0940 -0.0957
10362TIP3    H155281   6.774   2.163   9.649  0.6209 -0.0005  0.0978
10362TIP3    H255282   6.758   2.033   9.725 -0.3742 -0.7191 -1.2978
10363TIP3   OH255283   0.927   3.484  12.035  0.1482 -0.2777  0.1369
10363TIP3    H155284   0.913   3.524  12.121  1.0572  1.9501 -0.6766
10363TIP3    H255285   0.883   3.542  11.974  1.4074 -0.5784 -1.1133
10364TIP3   OH255286   6.176   3.001  12.073  0.3020  0.1958  0.1712
10364TIP3    H155287   6.263   3.021  12.109  1.1490 -0.8549 -1.1657
10364TIP3    H255288   6.161   3.070  12.008  0.0999  0.4089  0.4413
10365TIP3   OH255289   3.666   2.035  11.487 -0.2424 -0.5850 -0.0145
10365TIP3    H155290   3.600   2.100  11.511 -1.1396 -0.2966 -2.8722
10365TIP3    H255291   3.746   2.064  11.530 -0.5597  2.5720 -1.2683
10366TIP3   OH255292   1.547   3.823  11.977 -0.1230  0.8558  0.2972
10366TIP3    H155293   1.502   3.880  11.914  1.9430  0.0199 -2.0864
10366TIP3    H255294   1.488   3.749  11.989  0.4839 -0.2311 -2.7649
10367TIP3   OH255295   6.591   2.702   9.050 -0.1727 -0.1972  0.5190
10367TIP3    H155296   6.520   2.639   9.038 -1.6308  1.3915  0.4396
10367TIP3    H255297   6.572   2.743   9.135  0.6949  0.2206  0.5236
10368TIP3   OH255298   5.374   3.706   9.216 -0.4906  0.5698 -0.2270
10368TIP3    H155299   5.369   3.686   9.310 -0.2007  0.0165 -0.3287
10368TIP3    H255300   5.314   3.780   9.205  1.0776  2.0793  0.7690
10369TIP3   OH255301   1.609   2.272  11.992 -0.1091 -0.5222 -0.0480
10369TIP3    H155302   1.632   2.319  12.072 -0.3234 -1.3263  0.4976
10369TIP3    H255303   1.549   2.331  11.946  0.9324  0.4447 -0.1956
10370TIP3   OH255304   1.817   2.128  12.135 -0.0148  0.0966 -0.3881
10370TIP3    H155305   1.796   2.148  12.227  1.4310 -0.7302  0.1481
10370TIP3    H255306   1.735   2.147  12.088 -0.8810  0.2539  1.1012
10371TIP3   OH255307   0.630   2.293   9.251 -0.8195  0.4558  0.7492
10371TIP3    H155308   0.579   2.353   9.307 -2.1234 -1.7602  2.1101
10371TIP3    H255309   0.567   2.224   9.227  0.7293 -0.6486 -0.3114
10372TIP3   OH255310   1.394   0.774   9.903  0.2770  0.5703 -0.1597
10372TIP3    H155311   1.417   0.729   9.984  1.4836  0.6479 -0.4278
10372TIP3    H255312   1.460   0.844   9.896 -0.0827  0.8338 -0.9766
10373TIP3   OH255313   2.280   3.937   9.890  0.1885 -0.3148 -0.3485
10373TIP3    H155314   2.349   3.977   9.837  0.0762  1.1279  0.5494
10373TIP3    H255315   2.204   3.931   9.831  0.7617 -1.0048 -1.0440
10374TIP3   OH255316   5.275   2.977  12.278  0.1452  0.1602  0.6987
10374TIP3    H155317   5.207   3.030  12.320  1.2901  2.3097  0.0174
10374TIP3    H255318   5.342   2.967  12.345  0.4906  0.7129  0.4479
10375TIP3   OH255319   0.348   2.813  11.470  0.9437 -0.0195 -0.2544
10375TIP3    H155320   0.414   2.805  11.402 -0.1853 -1.5079 -1.2339
10375TIP3    H255321   0.356   2.733  11.522  0.1171 -0.0965 -0.2219
10376TIP3   OH255322   3.441   5.072   9.971 -0.5846 -0.2753  0.0411
10376TIP3    H155323   3.482   5.036   9.892 -1.3729 -1.4766  0.1441
10376TIP3    H255324   3.351   5.042   9.966 -0.8687  0.4012  0.9582
10377TIP3   OH255325   4.228   3.217  11.173 -0.1756  0.9598 -0.3226
10377TIP3    H155326   4.142   3.195  11.138 -0.0448  0.2622 -0.2163
10377TIP3    H255327   4.287   3.152  11.135  0.2345  1.1754 -0.0683
10378TIP3   OH255328   0.586   3.097  12.506  0.3576  0.3954  0.1213
10378TIP3    H155329   0.562   3.109  12.598 -0.3980  0.0613 -0.0276
10378TIP3    H255330   0.594   3.002  12.496 -0.2748  0.3873 -0.3307
10379TIP3   OH255331   2.836   4.594  11.093 -0.5333  0.0807  0.0865
10379TIP3    H155332   2.747   4.628  11.080  0.3903  1.7289 -3.0883
10379TIP3    H255333   2.847   4.529  11.024  1.4006  1.5879 -1.1313
10380TIP3   OH255334   3.483   4.997  10.598 -0.0927  0.0139 -0.0948
10380TIP3    H155335   3.405   4.966  10.552 -0.6535  1.5211 -0.2287
10380TIP3    H255336   3.459   5.085  10.630  1.0536 -0.0728  1.1208
10381TIP3   OH255337   2.352   2.697  10.132 -0.7324  0.0868  0.2945
10381TIP3    H155338   2.297   2.755  10.184 -0.8083  1.1449 -0.9388
10381TIP3    H255339   2.409   2.654  10.196 -1.4000  0.7158  1.3316
10382TIP3   OH255340   5.474   0.361   9.990  1.0602 -0.1984  0.7940
10382TIP3    H155341   5.483   0.421  10.064  1.2312  1.4405 -0.5044
10382TIP3    H255342   5.527   0.285  10.014  1.3692  0.4341  2.2081
10383TIP3   OH255343   2.892   1.917  10.192  0.0097 -0.0690  0.3885
10383TIP3    H155344   2.941   1.961  10.122  1.7990 -1.4276  0.7142
10383TIP3    H255345   2.934   1.948  10.273 -1.7097  1.1009  0.8874
10384TIP3   OH255346   3.255   4.594   9.402  0.2535 -0.0897  0.1389
10384TIP3    H155347   3.301   4.562   9.324  2.0188 -2.6653  2.0536
10384TIP3    H255348   3.316   4.657   9.441 -0.4655  0.9078 -0.2996
10385TIP3   OH255349   1.843   1.539  11.994 -0.1886 -0.4269 -0.1716
10385TIP3    H155350   1.918   1.579  11.950  0.0008 -1.5249 -0.8658
10385TIP3    H255351   1.815   1.605  12.058 -0.2391  1.0363 -1.6520
10386TIP3   OH255352   2.481   2.743  11.174 -0.3942  0.5789 -0.2141
10386TIP3    H155353   2.484   2.839  11.176 -1.5249  0.7406 -2.5032
10386TIP3    H255354   2.571   2.715  11.190  0.5213  2.1668 -2.2101
10387TIP3   OH255355   1.745   6.224  10.175  0.3452  0.2614 -0.0333
10387TIP3    H155356   1.835   6.246  10.151  0.7203 -0.5318  0.5617
10387TIP3    H255357   1.701   6.308  10.186  0.5985  0.6567 -1.7687
10388TIP3   OH255358   5.252   5.318  10.829  0.4020  0.0473  0.2968
10388TIP3    H155359   5.237   5.412  10.817  2.2435  0.4227  0.7513
10388TIP3    H255360   5.337   5.302  10.787 -0.3997 -1.6592 -0.7782
10389TIP3   OH255361   2.811   2.514  11.430  0.7435 -0.4147 -0.3124
10389TIP3    H155362   2.797   2.560  11.348  0.2488 -0.0534 -0.0359
10389TIP3    H255363   2.744   2.445  11.431 -0.6493  0.8685  0.6935
10390TIP3   OH255364   6.472   1.744   9.994 -0.0364 -0.7442  0.4180
10390TIP3    H155365   6.425   1.807  10.049 -0.2069 -1.2188  0.8315
10390TIP3    H255366   6.404   1.687   9.960  0.0934 -0.5764 -0.1347
10391TIP3   OH255367   6.513   5.712  11.307  0.5558  0.1639  0.6138
10391TIP3    H155368   6.562   5.793  11.290  0.8587  0.0448  0.9126
10391TIP3    H255369   6.557   5.673  11.382 -0.8558  0.7586  1.8099
10392TIP3   OH255370   5.686   0.093  11.475  0.4106 -0.6069 -0.4996
10392TIP3    H155371   5.773   0.116  11.508 -0.4725  0.6607  1.1019
10392TIP3    H255372   5.658   0.170  11.425 -0.3144 -0.4347  0.1457
10393TIP3   OH255373   5.638   1.860   9.617  0.6190  0.5279 -0.7286
10393TIP3    H155374   5.615   1.767   9.610 -1.2926  1.0036 -1.3537
10393TIP3    H255375   5.604   1.887   9.702  2.8772  0.2764  0.3457
10394TIP3   OH255376   1.670   4.706  10.836  0.3686 -0.0069  0.1596
10394TIP3    H155377   1.629   4.736  10.917  1.5239  0.0306  0.7568
10394TIP3    H255378   1.618   4.630  10.810  0.2644 -0.3165  1.2097
10395TIP3   OH255379   0.062   2.828  13.005  0.1237  0.0443  0.4937
10395TIP3    H155380   0.116   2.778  13.066 -0.0986  0.6366  1.1883
10395TIP3    H255381  -0.005   2.767  12.977 -0.9248  0.2825  2.3290
10396TIP3   OH255382   3.284   4.087   9.236  0.0662  0.7392 -0.1738
10396TIP3    H155383   3.217   4.080   9.169  0.4109  3.3584 -0.9081
10396TIP3    H255384   3.263   4.168   9.283  1.4154  0.4183  1.0602
10397TIP3   OH255385   3.529   5.902  12.657  0.0496 -0.5274  0.8075
10397TIP3    H155386   3.624   5.890  12.656  0.1761  0.4112  0.2500
10397TIP3    H255387   3.514   5.978  12.601 -1.0433 -0.7207  0.8196
10398TIP3   OH255388   4.434   0.755  10.850  0.1781  0.0078  0.2864
10398TIP3    H155389   4.370   0.717  10.910  0.8276 -2.5377 -0.4868
10398TIP3    H255390   4.394   0.743  10.763  0.1982  1.6656  0.0112
10399TIP3   OH255391   2.672   3.576   9.550 -0.5307  0.1143 -0.2775
10399TIP3    H155392   2.705   3.503   9.498 -0.3376 -1.5246  2.0215
10399TIP3    H255393   2.583   3.591   9.516 -0.0095 -0.0600 -1.8295
10400TIP3   OH255394   5.999   3.331   9.818  1.0369  0.2613 -0.3681
10400TIP3    H155395   6.010   3.424   9.799 -1.2064  0.4219 -1.2098
10400TIP3    H255396   6.087   3.299   9.836  1.6908  2.8700  1.6074
10401TIP3   OH255397   4.946   4.936  11.545 -0.1468 -0.2152 -0.0833
10401TIP3    H155398   4.954   5.012  11.603  0.2127 -0.5113  0.2662
10401TIP3    H255399   4.925   4.863  11.604  0.0199 -0.4823 -0.3490
10402TIP3   OH255400   0.758   4.125  12.788 -0.2092  0.5208  0.6169
10402TIP3    H155401   0.765   4.217  12.814 -1.4240  1.2013 -1.2594
10402TIP3    H255402   0.725   4.081  12.866  0.0571  1.7273  1.4406
10403TIP3   OH255403   0.227   1.821  10.522 -0.6168  0.1660  0.3253
10403TIP3    H155404   0.191   1.885  10.460  1.1333  0.8833 -0.0315
10403TIP3    H255405   0.264   1.875  10.592  0.3881 -0.4640  0.2979
10404TIP3   OH255406   0.451   4.992  11.246  0.1941 -0.2715  0.3341
10404TIP3    H155407   0.463   5.080  11.281  0.0407 -0.5121  0.9985
10404TIP3    H255408   0.430   5.006  11.154 -0.3772  0.4180  0.5583
10405TIP3   OH255409   3.346   0.023  11.471  0.0715 -0.7386  0.0316
10405TIP3    H155410   3.390  -0.032  11.407  1.7640  0.5325  0.0449
10405TIP3    H255411   3.401   0.019  11.549 -0.4196  0.0085  0.4317
10406TIP3   OH255412   4.379   6.347  10.539 -0.0319  0.1200 -0.1376
10406TIP3    H155413   4.443   6.370  10.607  0.5452  0.3909 -0.7588
10406TIP3    H255414   4.337   6.430  10.517 -0.3096  0.0103 -0.0267
10407TIP3   OH255415   4.280   6.200  10.788 -0.0203  0.0765  0.6712
10407TIP3    H155416   4.301   6.240  10.872  1.2709  1.5730 -0.3234
10407TIP3    H255417   4.350   6.227  10.729 -0.5968 -1.3783 -0.7812
10408TIP3   OH255418   4.413   0.515   9.668 -0.1788 -0.1313  0.8753
10408TIP3    H155419   4.431   0.564   9.588 -1.5446 -1.7363 -0.4939
10408TIP3    H255420   4.352   0.570   9.717 -1.8049 -0.4128 -0.7025
10409TIP3   OH255421   0.419   0.924  11.051  0.2104  0.0699  0.4305
10409TIP3    H155422   0.360   0.856  11.082  1.8831 -0.9592  1.4993
10409TIP3    H255423   0.422   0.912  10.956 -1.4703  0.3292  0.3177
10410TIP3   OH255424   4.738   6.263  11.897  0.6794  0.6523  0.4569
10410TIP3    H155425   4.772   6.190  11.949  0.9042  0.7478  0.4430
10410TIP3    H255426   4.812   6.323  11.889  0.5519  0.7865  0.2957
10411TIP3   OH255427   3.669   3.026  12.651  0.7335 -0.3217  0.2979
10411TIP3    H155428   3.599   2.971  12.617  1.0793  0.5246 -1.9461
10411TIP3    H255429   3.637   3.116  12.641  3.2418  0.3919 -4.1213
10412TIP3   OH255430   4.372   5.252  12.115 -0.0909  0.1704  0.3228
10412TIP3    H155431   4.285   5.222  12.141  0.2855 -0.8587  0.4420
10412TIP3    H255432   4.397   5.195  12.042  1.6770 -1.5984  2.1754
10413TIP3   OH255433   5.231   2.159   9.596 -0.5345  0.3221  0.4025
10413TIP3    H155434   5.214   2.079   9.646  2.3212 -0.6849 -0.0907
10413TIP3    H255435   5.149   2.175   9.548 -2.1762 -0.5838  2.7421
10414TIP3   OH255436   0.410   4.439  10.327 -0.5533 -0.3192  0.0135
10414TIP3    H155437   0.440   4.530  10.336 -1.1542  0.0471 -1.3687
10414TIP3    H255438   0.469   4.402  10.261  0.6156 -1.3999  1.6003
10415TIP3   OH255439   2.230   2.472  12.914 -0.5293  0.0711 -0.6701
10415TIP3    H155440   2.235   2.562  12.945 -0.2414 -0.2049  0.0953
10415TIP3    H255441   2.288   2.470  12.837 -1.0463  0.6902 -1.0807
10416TIP3   OH255442   4.210   1.514  10.055  0.6148 -0.3026 -0.2413
10416TIP3    H155443   4.259   1.436  10.028  0.2047 -0.7193  0.1789
10416TIP3    H255444   4.158   1.538   9.979  0.5915 -0.5661 -0.3092
10417TIP3   OH255445   5.443   4.339  11.664  0.1379  0.2118  0.2646
10417TIP3    H155446   5.448   4.312  11.573 -0.6933 -0.4783  0.4086
10417TIP3    H255447   5.405   4.264  11.709 -0.2992  0.8742  1.0300
10418TIP3   OH255448   1.459   3.071   9.564 -0.2830  0.0439 -0.2634
10418TIP3    H155449   1.442   3.138   9.631  0.7764 -1.0178  1.1324
10418TIP3    H255450   1.434   2.989   9.606  0.3856 -0.6515 -1.1955
10419TIP3   OH255451   2.720   5.583  10.695 -0.0252 -0.3007 -0.9229
10419TIP3    H155452   2.807   5.557  10.665 -0.1535 -1.2032 -0.5451
10419TIP3    H255453   2.672   5.500  10.703 -0.6831  0.1235 -0.4104
10420TIP3   OH255454   2.669   2.276  11.403  0.6668  0.1503 -0.1505
10420TIP3    H155455   2.744   2.255  11.347  0.9039 -0.7581  0.4888
10420TIP3    H255456   2.605   2.207  11.385  0.4567  0.2592  0.1685
10421TIP3   OH255457   4.188   0.266   9.676 -0.0451 -0.2095  0.8463
10421TIP3    H155458   4.197   0.356   9.645 -0.8296 -0.3334  0.2362
10421TIP3    H255459   4.099   0.262   9.712  0.1184 -0.6408  1.2161
10422TIP3   OH255460   1.890   5.743  11.199 -0.0567 -0.3104 -0.7872
10422TIP3    H155461   1.916   5.821  11.247  0.8623 -0.2110 -1.4257
10422TIP3    H255462   1.803   5.764  11.164  0.5263  0.7643 -1.6614
10423TIP3   OH255463   6.336   4.416  12.305  0.2065 -0.6522  0.3343
10423TIP3    H155464   6.307   4.392  12.217  1.3225 -2.6991  0.4732
10423TIP3    H255465   6.309   4.343  12.360  1.7364 -0.5886  1.2247
10424TIP3   OH255466   1.607   5.123  10.186  0.1948  0.2540  0.3517
10424TIP3    H155467   1.572   5.139  10.098 -0.5066 -1.0349  0.3802
10424TIP3    H255468   1.650   5.038  10.179  0.3323  0.2469  1.2151
10425TIP3   OH255469   0.149   1.664   9.708 -0.5228 -0.1801  0.3343
10425TIP3    H155470   0.095   1.709   9.642 -1.0576 -0.1679  0.7726
10425TIP3    H255471   0.085   1.623   9.767 -0.0648  0.8661  1.5851
10426TIP3   OH255472   0.875   5.293   9.590  0.3025  0.1526 -0.7038
10426TIP3    H155473   0.872   5.337   9.675  0.8983  0.0841 -0.6423
10426TIP3    H255474   0.810   5.223   9.597  2.4827 -1.8716  0.8474
10427TIP3   OH255475   6.069   3.035  10.938 -0.2363 -0.2962  0.1526
10427TIP3    H155476   6.049   3.040  11.032 -1.0686  0.3714 -0.0467
10427TIP3    H255477   6.083   3.126  10.912 -2.7091 -0.1417 -0.9069
10428TIP3   OH255478   0.035   4.266  11.117  0.3044 -0.1523 -0.6751
10428TIP3    H155479   0.131   4.262  11.114  0.4623  1.7461  0.1168
10428TIP3    H255480   0.016   4.340  11.174 -1.6866 -2.0346  1.2852
10429TIP3   OH255481   1.231   1.471  12.666  0.5110 -0.6061  0.1470
10429TIP3    H155482   1.247   1.565  12.658  0.1303 -0.3260  2.0561
10429TIP3    H255483   1.318   1.433  12.679  0.5207 -0.2476  1.2738
10430TIP3   OH255484   1.656   0.211  10.769 -0.0754 -0.1720  0.2301
10430TIP3    H155485   1.581   0.265  10.795  0.6056  2.8010 -3.1768
10430TIP3    H255486   1.732   0.256  10.805  0.4251  0.7443 -1.7875
10431TIP3   OH255487   0.969   4.106  10.790  0.0767  0.5132  0.4592
10431TIP3    H155488   0.970   4.024  10.839  1.6686 -1.4835 -2.5478
10431TIP3    H255489   1.047   4.153  10.821  2.3938 -1.7507 -1.4859
10432TIP3   OH255490   3.232   0.548   9.992  0.0694  0.9863 -0.2717
10432TIP3    H155491   3.180   0.490  10.047  0.4174  0.4191 -0.5271
10432TIP3    H255492   3.218   0.635  10.028 -0.2690  0.7101  0.2711
10433TIP3   OH255493   4.064   4.480  12.691  0.0794  0.1048 -0.2607
10433TIP3    H155494   3.996   4.431  12.644 -0.2057  0.1559  0.0966
10433TIP3    H255495   4.092   4.548  12.629  0.3418 -0.3871 -0.6858
10434TIP3   OH255496   4.690   0.829  10.937  0.0297 -0.1688  0.4336
10434TIP3    H155497   4.602   0.796  10.948  1.2734 -3.7061  0.8555
10434TIP3    H255498   4.700   0.842  10.842  0.2991 -3.9537 -0.1811
10435TIP3   OH255499   1.517   6.324   9.347  0.0023  0.0292 -0.1685
10435TIP3    H155500   1.504   6.371   9.265  0.3578 -0.7843 -0.7120
10435TIP3    H255501   1.601   6.356   9.381  0.1205 -0.0232 -0.4089
10436TIP3   OH255502   5.351   3.672  10.406 -0.2193  0.0090 -0.0925
10436TIP3    H155503   5.313   3.719  10.481 -0.4423  0.4681 -0.4914
10436TIP3    H255504   5.275   3.637  10.359 -0.1426  0.6819 -0.7320
10437TIP3   OH255505   5.097   3.744  11.664  0.3592  0.1470  0.1102
10437TIP3    H155506   5.045   3.675  11.622  0.8444  0.8688 -1.7490
10437TIP3    H255507   5.176   3.699  11.694 -0.2699 -0.4970  0.8620
10438TIP3   OH255508   4.167   3.090   8.811  0.1388  0.0328 -0.1254
10438TIP3    H155509   4.224   3.037   8.867 -0.8884 -1.4152 -0.3988
10438TIP3    H255510   4.225   3.126   8.744  1.2368  1.0741  1.3252
10439TIP3   OH255511   2.245   0.634  10.355  0.3267  0.0808  0.6584
10439TIP3    H155512   2.168   0.681  10.322  0.9745 -0.2323 -1.4617
10439TIP3    H255513   2.318   0.692  10.337  0.9863 -1.1326 -0.8515
   6.73864   6.73864  30.00000
