Title
55513
    1DOPE     N    1   3.517   3.557  17.209  0.6620  0.1908  0.2256
    1DOPE   HN1    2   3.476   3.593  17.298 -1.5745  0.0987 -0.7052
    1DOPE   HN2    3   3.594   3.492  17.233  0.8630 -0.2665 -1.5431
    1DOPE   HN3    4   3.549   3.636  17.150 -0.9087  0.7689  0.0834
    1DOPE   C12    5   3.423   3.477  17.121 -0.1214  0.0473  0.2059
    1DOPE  H12A    6   3.345   3.550  17.091  0.1664  0.2199 -0.1253
    1DOPE  H12B    7   3.385   3.391  17.180 -0.3032  1.1242  1.6973
    1DOPE   C11    8   3.501   3.440  16.990  0.0197 -0.5763  0.0444
    1DOPE  H11A    9   3.525   3.536  16.940  0.3245  0.3894  1.9567
    1DOPE  H11B   10   3.429   3.395  16.918 -0.2147  1.1760 -0.8713
    1DOPE     P   11   3.759   3.399  17.014  0.1453 -0.4756  0.5028
    1DOPE   O13   12   3.841   3.287  17.050 -0.2327 -0.4003 -0.3241
    1DOPE   O14   13   3.773   3.517  17.095 -1.0030 -0.1749 -0.2365
    1DOPE   O11   14   3.788   3.438  16.858 -0.1000  0.2790 -0.2095
    1DOPE   O12   15   3.609   3.350  17.017 -0.2939 -0.4349  0.1586
    1DOPE    C1   16   3.821   3.332  16.773 -0.0646  0.1240  0.0365
    1DOPE    HA   17   3.815   3.380  16.673 -1.2158  2.2459  1.0687
    1DOPE    HB   18   3.750   3.247  16.776 -1.2744  1.1245  0.2671
    1DOPE    C2   19   3.970   3.284  16.777  0.8617  0.0988  0.2002
    1DOPE    HS   20   4.007   3.269  16.880 -0.2733 -1.4512  0.4009
    1DOPE   O21   21   4.047   3.399  16.721 -0.3108 -0.2689  0.0565
    1DOPE   C21   22   4.173   3.407  16.747  0.1142 -0.2775 -0.9448
    1DOPE   O22   23   4.233   3.340  16.831  0.4992 -0.0230 -0.2931
    1DOPE   C22   24   4.220   3.531  16.675 -0.6720  0.1184 -0.2186
    1DOPE   H2R   25   4.325   3.507  16.647 -0.5104 -0.0678  0.5293
    1DOPE   H2S   26   4.236   3.608  16.753 -0.6286  0.4726 -0.5786
    1DOPE    C3   27   3.982   3.154  16.699 -0.0756 -0.0969  0.5635
    1DOPE    HX   28   3.927   3.072  16.749  0.6691 -0.6757  0.4478
    1DOPE    HY   29   4.087   3.118  16.707 -0.3798 -0.8359  1.3844
    1DOPE   O31   30   3.933   3.166  16.562 -0.2524 -0.0532 -0.0004
    1DOPE   C31   31   4.017   3.165  16.461  0.1569  0.0354 -0.1550
    1DOPE   O32   32   4.138   3.164  16.472 -0.5904 -0.0031  0.1998
    1DOPE   C32   33   3.934   3.159  16.327 -0.5760  0.3301  0.1648
    1DOPE   H2X   34   3.840   3.218  16.321 -1.2691 -0.7996 -0.2503
    1DOPE   H2Y   35   4.003   3.223  16.267  0.4557  1.8397  2.7611
    1DOPE   C23   36   4.146   3.581  16.553  0.4637 -0.1748  0.2433
    1DOPE   H3R   37   4.044   3.614  16.583  0.4119 -0.5957  0.5500
    1DOPE   H3S   38   4.139   3.499  16.478 -0.8875 -0.1316  0.2957
    1DOPE   C24   39   4.213   3.692  16.471  0.1152  0.5646 -0.0405
    1DOPE   H4R   40   4.312   3.653  16.439 -0.9872 -2.7674  0.2408
    1DOPE   H4S   41   4.231   3.788  16.524  0.7040  0.5827 -0.2693
    1DOPE   C25   42   4.132   3.728  16.345  0.4092  0.3038  0.2083
    1DOPE   H5R   43   4.051   3.799  16.371  0.2282  1.3797 -2.8229
    1DOPE   H5S   44   4.093   3.638  16.293  1.0365  0.4772 -0.5890
    1DOPE   C26   45   4.219   3.792  16.239 -0.0980 -0.4333 -0.0152
    1DOPE   H6R   46   4.311   3.733  16.218 -0.3096 -0.6743 -0.2698
    1DOPE   H6S   47   4.249   3.892  16.279 -0.4512 -0.8257  1.2870
    1DOPE   C27   48   4.156   3.806  16.102  0.2685 -0.9660  0.0383
    1DOPE   H7R   49   4.053   3.846  16.112  0.1864 -1.3871  1.0487
    1DOPE   H7S   50   4.148   3.706  16.054  1.9106 -1.4971  0.7696
    1DOPE   C28   51   4.242   3.898  16.001 -0.4158  0.3996 -0.6163
    1DOPE   H8R   52   4.222   3.864  15.897  0.0021  2.2139 -1.3180
    1DOPE   H8S   53   4.349   3.874  16.013 -0.1482  1.5577 -0.5846
    1DOPE   C29   54   4.216   4.045  16.021  0.2249  0.5683 -0.3931
    1DOPE   H9R   55   4.108   4.065  16.022 -0.3846 -2.0287  2.7080
    1DOPE  C210   56   4.304   4.142  16.061  0.0712  0.0090  0.6217
    1DOPE  H10R   57   4.278   4.249  16.048  0.1474 -0.1140 -0.6748
    1DOPE  C211   58   4.447   4.106  16.086 -0.5129 -0.5584  0.1100
    1DOPE  H11R   59   4.456   4.008  16.137 -0.7766  0.1433  1.5557
    1DOPE  H11S   60   4.488   4.176  16.162  0.2649 -0.6016 -0.2619
    1DOPE  C212   61   4.549   4.098  15.967  0.3281 -1.1820  0.3136
    1DOPE  H12R   62   4.495   4.029  15.899  0.0226 -1.1197  0.4863
    1DOPE  H12S   63   4.634   4.048  16.019  1.3325 -0.1542 -0.3111
    1DOPE  C213   64   4.591   4.243  15.917  0.5849 -0.3545 -0.4128
    1DOPE  H13R   65   4.654   4.294  15.993 -1.6361 -0.9199  1.9618
    1DOPE  H13S   66   4.496   4.300  15.904 -0.6415 -2.4920 -1.2854
    1DOPE  C214   67   4.662   4.228  15.784  0.9772 -0.3060  0.0886
    1DOPE  H14R   68   4.585   4.192  15.712  0.3549 -0.2275  0.6980
    1DOPE  H14S   69   4.740   4.151  15.802 -0.2432 -2.0457 -1.6888
    1DOPE  C215   70   4.713   4.362  15.723  0.0044  0.2007 -0.8528
    1DOPE  H15R   71   4.771   4.410  15.805 -1.3191  1.9843 -0.8907
    1DOPE  H15S   72   4.629   4.434  15.709 -0.0878  0.8550  2.3829
    1DOPE  C216   73   4.788   4.338  15.600  0.1141  0.4920  0.2054
    1DOPE  H16R   74   4.725   4.334  15.508  1.4721  0.8822 -0.7871
    1DOPE  H16S   75   4.839   4.240  15.606 -1.8520 -0.7090 -1.3747
    1DOPE  C217   76   4.897   4.443  15.553  0.5359 -0.0169 -0.3292
    1DOPE  H17R   77   4.971   4.462  15.634 -0.7701  2.2375  0.4306
    1DOPE  H17S   78   4.840   4.538  15.560 -0.1953 -0.5569  3.2119
    1DOPE  C218   79   4.943   4.432  15.410 -0.4923 -0.2555  0.6104
    1DOPE  H18R   80   5.007   4.519  15.383 -0.0788 -0.9230 -0.6858
    1DOPE  H18S   81   4.861   4.433  15.334  1.8115 -0.5027 -2.0564
    1DOPE  H18T   82   4.987   4.333  15.386 -0.3857 -0.0272 -0.1744
    1DOPE   C33   83   3.920   3.021  16.254  0.0300  0.5320  0.4665
    1DOPE   H3X   84   3.851   2.959  16.314  0.2590 -1.2061 -0.9509
    1DOPE   H3Y   85   4.018   2.969  16.262 -0.1127 -0.6374 -3.2003
    1DOPE   C34   86   3.890   3.036  16.103  0.0707  0.2379  0.1928
    1DOPE   H4X   87   3.956   3.105  16.047 -1.4437  0.5077 -1.3571
    1DOPE   H4Y   88   3.894   2.939  16.049  2.8608  1.0044 -1.1300
    1DOPE   C35   89   3.746   3.076  16.067 -0.1502 -0.0204 -0.3943
    1DOPE   H5X   90   3.715   3.180  16.090  0.9877  0.2189  0.1250
    1DOPE   H5Y   91   3.674   3.012  16.124 -0.0319  0.8951  0.8183
    1DOPE   C36   92   3.727   3.061  15.911 -0.2054 -0.3733 -0.8967
    1DOPE   H6X   93   3.754   2.961  15.871  0.0378 -0.1370 -1.3252
    1DOPE   H6Y   94   3.804   3.126  15.865 -0.4562  1.1105  0.7049
    1DOPE   C37   95   3.585   3.084  15.853 -0.0138  0.6800 -1.1099
    1DOPE   H7X   96   3.565   3.190  15.875  2.3318  1.3782 -2.0004
    1DOPE   H7Y   97   3.594   3.074  15.743  0.4324  0.3093 -1.0457
    1DOPE   C38   98   3.470   2.986  15.897  0.1537 -0.3174  0.3663
    1DOPE   H8X   99   3.457   2.986  16.007  2.0948 -1.3257  0.6506
    1DOPE   H8Y  100   3.519   2.888  15.875 -1.2857 -1.1414  0.6617
    1DOPE   C39  101   3.343   2.992  15.817 -0.0983 -0.0101 -0.4257
    1DOPE   H9X  102   3.341   3.054  15.726 -2.1970 -1.8091 -1.7010
    1DOPE  C310  103   3.235   2.915  15.844  0.5630 -0.7030  0.3629
    1DOPE  H10X  104   3.148   2.930  15.778  0.2264 -2.4674  0.3652
    1DOPE  C311  105   3.217   2.809  15.955 -0.2163  0.3976  0.2148
    1DOPE  H11X  106   3.312   2.775  16.002 -0.7691  1.2172  2.0335
    1DOPE  H11Y  107   3.158   2.851  16.040 -1.2251 -0.4204 -0.0639
    1DOPE  C312  108   3.138   2.684  15.902 -0.4002  1.0681  0.5158
    1DOPE  H12X  109   3.201   2.623  15.833 -1.8001  0.8809 -0.6524
    1DOPE  H12Y  110   3.050   2.729  15.850 -0.3240  0.9178  0.2545
    1DOPE  C313  111   3.093   2.586  16.022  0.2912  0.0778 -0.6172
    1DOPE  H13X  112   3.058   2.493  15.971 -0.3147  0.9935 -1.9533
    1DOPE  H13Y  113   3.188   2.558  16.073 -0.2793  2.7210  2.1902
    1DOPE  C314  114   3.000   2.642  16.126 -1.2144  0.5656 -0.5374
    1DOPE  H14X  115   2.921   2.703  16.078  0.1992  1.8309 -1.3415
    1DOPE  H14Y  116   3.063   2.717  16.179 -1.2709  1.6554 -1.9321
    1DOPE  C315  117   2.932   2.539  16.227 -0.3465  0.0459  0.2682
    1DOPE  H15X  118   2.924   2.597  16.321 -1.7344 -0.6445  0.6061
    1DOPE  H15Y  119   2.993   2.447  16.242  1.0541  1.0898  1.2885
    1DOPE  C316  120   2.786   2.495  16.200 -0.4056  0.2754 -0.2457
    1DOPE  H16X  121   2.715   2.580  16.197 -2.0835 -0.9381  1.7882
    1DOPE  H16Y  122   2.745   2.440  16.288 -0.3374  1.8447  0.8153
    1DOPE  C317  123   2.787   2.414  16.070  1.0109 -0.6944  0.1657
    1DOPE  H17X  124   2.833   2.478  15.991  0.8387 -1.7567 -0.8067
    1DOPE  H17Y  125   2.855   2.327  16.079 -1.4914 -2.9908 -1.3644
    1DOPE  C318  126   2.643   2.373  16.034  0.5626 -0.1061  0.1961
    1DOPE  H18X  127   2.638   2.289  15.962  1.7597 -0.3616  0.3861
    1DOPE  H18Y  128   2.593   2.344  16.128  0.2840 -0.2253  0.0134
    1DOPE  H18Z  129   2.577   2.455  15.997 -0.5469  0.2252  2.6950
    2DOPE     N  130   3.916   3.750  17.029 -0.4485  0.0997 -0.0608
    2DOPE   HN1  131   3.885   3.848  17.043  0.6099  0.2570  1.3724
    2DOPE   HN2  132   3.838   3.690  17.062 -0.9066  1.2927  1.0744
    2DOPE   HN3  133   3.993   3.738  17.098 -0.0648  2.3311 -0.0400
    2DOPE   C12  134   3.979   3.710  16.896 -0.5299 -0.1376  0.3239
    2DOPE  H12A  135   3.902   3.691  16.818 -1.8688  5.1817 -0.0546
    2DOPE  H12B  136   4.044   3.621  16.907  0.6191  0.1057 -3.1494
    2DOPE   C11  137   4.070   3.815  16.831 -0.3765  0.3055  0.2126
    2DOPE  H11A  138   4.080   3.787  16.724 -0.4359 -1.0305  0.5380
    2DOPE  H11B  139   4.167   3.803  16.884 -0.8643 -0.3516  0.9916
    2DOPE     P  140   4.112   4.075  16.870 -0.0430  0.2904  0.2081
    2DOPE   O13  141   4.191   4.057  16.998 -0.7966  0.0874  0.9381
    2DOPE   O14  142   4.029   4.198  16.859  0.0511  0.3448 -0.3922
    2DOPE   O11  143   4.220   4.069  16.757 -0.7160  0.5702  0.1666
    2DOPE   O12  144   4.021   3.949  16.841  0.1345 -0.1854  0.2367
    2DOPE    C1  145   4.167   4.072  16.617 -0.0890  0.2350  0.4711
    2DOPE    HA  146   4.068   4.026  16.597 -0.0874 -0.1794  1.3830
    2DOPE    HB  147   4.235   4.001  16.566 -1.5056 -2.0479  1.6386
    2DOPE    C2  148   4.185   4.210  16.541  0.6403 -1.0317  0.3418
    2DOPE    HS  149   4.112   4.276  16.593 -0.7989 -2.8069  0.6810
    2DOPE   O21  150   4.145   4.207  16.401  0.4351  0.3924 -0.0209
    2DOPE   C21  151   4.015   4.191  16.381  0.4796  0.2164  0.4220
    2DOPE   O22  152   3.929   4.167  16.463 -0.1847  0.4752  0.4122
    2DOPE   C22  153   3.990   4.194  16.230 -0.1369  0.4135 -0.2245
    2DOPE   H2R  154   4.018   4.090  16.202 -1.6626  0.0892 -0.6144
    2DOPE   H2S  155   4.073   4.256  16.191  2.1137 -0.4555  2.7723
    2DOPE    C3  156   4.329   4.267  16.548 -0.4300  0.2136 -0.5137
    2DOPE    HX  157   4.392   4.192  16.496 -0.2663  0.4113 -0.5984
    2DOPE    HY  158   4.376   4.263  16.649 -2.1752 -3.2131  0.3420
    2DOPE   O31  159   4.346   4.398  16.491  0.2040 -0.5806 -0.2267
    2DOPE   C31  160   4.279   4.492  16.567 -0.3655 -1.1226 -0.4676
    2DOPE   O32  161   4.240   4.461  16.680  0.0866 -0.6407 -0.5456
    2DOPE   C32  162   4.281   4.624  16.503 -0.0181  0.6520  0.5667
    2DOPE   H2X  163   4.270   4.700  16.583 -1.4109  0.0617  0.9634
    2DOPE   H2Y  164   4.376   4.649  16.451  0.1238 -2.5101 -0.9242
    2DOPE   C23  165   3.843   4.223  16.183 -0.1620  0.3983 -0.1036
    2DOPE   H3R  166   3.808   4.321  16.222 -1.1118  0.0416 -0.0484
    2DOPE   H3S  167   3.774   4.145  16.221  0.9009 -0.8361 -0.6387
    2DOPE   C24  168   3.843   4.221  16.025 -0.3360 -0.5435  0.5153
    2DOPE   H4R  169   3.886   4.124  15.992  0.5455  0.1689 -0.4921
    2DOPE   H4S  170   3.901   4.308  15.986  0.3989 -0.2140  2.2687
    2DOPE   C25  171   3.708   4.228  15.951  0.0741 -0.2842  0.4236
    2DOPE   H5R  172   3.655   4.318  15.989 -0.6168  0.5806 -2.3369
    2DOPE   H5S  173   3.637   4.144  15.965  1.0436 -1.5691 -1.8342
    2DOPE   C26  174   3.728   4.237  15.800 -0.3915  0.4472  0.4133
    2DOPE   H6R  175   3.777   4.145  15.762  0.6774  1.0771  0.2104
    2DOPE   H6S  176   3.798   4.319  15.773 -1.9208  1.0396 -1.9581
    2DOPE   C27  177   3.604   4.279  15.720  0.2126 -0.1712  0.7390
    2DOPE   H7R  178   3.560   4.377  15.749  1.4988 -0.0504  2.4471
    2DOPE   H7S  179   3.521   4.208  15.741 -0.1941 -0.3838 -1.3735
    2DOPE   C28  180   3.608   4.265  15.566 -0.0435 -0.7659  0.3784
    2DOPE   H8R  181   3.508   4.268  15.518 -0.1573  1.3313  0.6597
    2DOPE   H8S  182   3.646   4.164  15.538 -1.2293 -0.4959 -2.6105
    2DOPE   C29  183   3.702   4.369  15.507 -0.0517 -1.4581  0.0848
    2DOPE   H9R  184   3.793   4.385  15.567 -1.1181 -1.5655  1.8110
    2DOPE  C210  185   3.692   4.451  15.402  0.0370  0.1701 -0.2597
    2DOPE  H10R  186   3.777   4.518  15.384  1.7538 -2.0177 -0.7334
    2DOPE  C211  187   3.573   4.448  15.311  0.0162  0.0523  0.7710
    2DOPE  H11R  188   3.556   4.551  15.274 -1.1198 -0.7716 -1.1662
    2DOPE  H11S  189   3.474   4.415  15.351  0.0948 -0.4541  0.5564
    2DOPE  C212  190   3.610   4.369  15.181  0.2195 -0.1151  0.4925
    2DOPE  H12R  191   3.622   4.259  15.186  1.1649 -0.2921 -3.1156
    2DOPE  H12S  192   3.706   4.418  15.152  0.0723 -0.1730 -0.0990
    2DOPE  C213  193   3.506   4.407  15.073  0.0854 -0.2656  0.6144
    2DOPE  H13R  194   3.503   4.517  15.060  0.4483 -0.2583  0.5987
    2DOPE  H13S  195   3.412   4.373  15.123 -0.3701 -1.3149 -0.9081
    2DOPE  C214  196   3.523   4.337  14.936 -0.3086 -0.1431 -0.2621
    2DOPE  H14R  197   3.544   4.231  14.963  3.5735 -0.2034 -2.7434
    2DOPE  H14S  198   3.609   4.380  14.880 -0.3345 -0.1549 -0.3109
    2DOPE  C215  199   3.392   4.345  14.854  0.5867 -0.0546  0.1079
    2DOPE  H15R  200   3.315   4.275  14.892  1.4822 -0.3997  1.3617
    2DOPE  H15S  201   3.399   4.300  14.752 -3.2612  0.4102 -0.5144
    2DOPE  C216  202   3.325   4.478  14.844  0.4580 -0.3048 -0.2153
    2DOPE  H16R  203   3.403   4.549  14.808 -0.3521 -0.4235 -2.3596
    2DOPE  H16S  204   3.299   4.502  14.950 -1.8894 -1.4391 -0.4784
    2DOPE  C217  205   3.203   4.490  14.758  0.4324 -1.0487  0.3044
    2DOPE  H17R  206   3.210   4.427  14.667 -0.4697 -1.2868  0.3870
    2DOPE  H17S  207   3.221   4.594  14.723  0.0327 -1.5164 -1.3847
    2DOPE  C218  208   3.067   4.471  14.817  0.5863 -0.3581 -0.1995
    2DOPE  H18R  209   3.060   4.369  14.861  1.2720 -0.3224  0.0062
    2DOPE  H18S  210   2.980   4.488  14.750  0.2663 -0.0647  0.2869
    2DOPE  H18T  211   3.057   4.546  14.898 -1.9455  0.3367 -1.0676
    2DOPE   C33  212   4.168   4.637  16.395 -0.3470  0.4398 -0.9628
    2DOPE   H3X  213   4.130   4.741  16.386 -1.4905  0.2294  1.0595
    2DOPE   H3Y  214   4.079   4.584  16.435 -0.7521  2.2817  0.7380
    2DOPE   C34  215   4.229   4.589  16.261  0.3726 -0.2459  0.1641
    2DOPE   H4X  216   4.314   4.651  16.224  0.4600 -0.1550  0.5164
    2DOPE   H4Y  217   4.260   4.482  16.267 -0.8644 -0.6067  0.5389
    2DOPE   C35  218   4.113   4.592  16.152 -0.6590 -0.4165  0.2494
    2DOPE   H5X  219   4.077   4.697  16.144 -1.4580 -0.6884  0.1011
    2DOPE   H5Y  220   4.038   4.522  16.195 -0.1738 -1.1440 -0.0875
    2DOPE   C36  221   4.145   4.519  16.013  0.2890 -0.3317  0.1674
    2DOPE   H6X  222   4.061   4.535  15.942  0.0700 -2.5170 -0.1309
    2DOPE   H6Y  223   4.148   4.409  16.025  0.6626 -0.1266  2.3244
    2DOPE   C37  224   4.275   4.571  15.944  0.6715  0.2732  0.1474
    2DOPE   H7X  225   4.252   4.679  15.939  3.5180  0.9131 -0.3325
    2DOPE   H7Y  226   4.361   4.548  16.010  0.5686 -1.3666 -0.2277
    2DOPE   C38  227   4.292   4.521  15.798 -0.7944  0.2525  0.6102
    2DOPE   H8X  228   4.337   4.420  15.791  2.4820  1.4863  2.0218
    2DOPE   H8Y  229   4.370   4.576  15.741 -1.3803  0.2141 -0.2471
    2DOPE   C39  230   4.170   4.521  15.706  0.0232  0.2354  0.0314
    2DOPE   H9X  231   4.127   4.618  15.679  2.9409  1.1285 -1.8206
    2DOPE  C310  232   4.102   4.407  15.685 -0.1279 -0.0580  0.4665
    2DOPE  H10X  233   4.010   4.414  15.625  1.1822 -2.7513 -2.1109
    2DOPE  C311  234   4.114   4.262  15.731 -0.3477 -0.5787 -0.0946
    2DOPE  H11X  235   4.153   4.257  15.836  0.0668 -0.6904 -0.2490
    2DOPE  H11Y  236   4.012   4.221  15.744 -1.2921  1.8306  0.6937
    2DOPE  C312  237   4.206   4.191  15.640  0.0564 -0.5567  0.1094
    2DOPE  H12X  238   4.225   4.085  15.670  0.6146 -0.6604 -0.5750
    2DOPE  H12Y  239   4.308   4.234  15.653 -0.3454  0.3809  0.2180
    2DOPE  C313  240   4.136   4.166  15.505  0.7521  0.9969 -0.3204
    2DOPE  H13X  241   4.103   4.261  15.456  0.4855  0.3263 -1.4796
    2DOPE  H13Y  242   4.196   4.104  15.436 -0.9878 -2.3598  0.9735
    2DOPE  C314  243   4.015   4.074  15.517 -0.1925 -0.2466 -0.4864
    2DOPE  H14X  244   3.938   4.150  15.540  1.8192  1.6309  0.4743
    2DOPE  H14Y  245   4.017   3.994  15.594 -0.2115 -0.3341 -0.5766
    2DOPE  C315  246   3.977   4.011  15.378 -0.3247  0.3043  0.1554
    2DOPE  H15X  247   4.047   3.927  15.365 -1.0762 -0.5622  1.4676
    2DOPE  H15Y  248   3.994   4.095  15.308 -1.7553  0.5673  0.0774
    2DOPE  C316  249   3.829   3.979  15.375 -0.3581 -0.4843 -0.3531
    2DOPE  H16X  250   3.764   4.069  15.371  0.5469  0.1653 -0.7214
    2DOPE  H16Y  251   3.807   3.916  15.463  0.4198 -2.2986 -1.3976
    2DOPE  C317  252   3.794   3.896  15.256  0.3266 -0.4323 -1.0959
    2DOPE  H17X  253   3.879   3.828  15.235  1.6144  0.9541 -0.5337
    2DOPE  H17Y  254   3.694   3.849  15.269  1.3735 -2.4357  0.2089
    2DOPE  C318  255   3.788   3.982  15.132 -0.1415 -0.0996 -0.2721
    2DOPE  H18X  256   3.886   4.030  15.114  0.0600 -0.4778 -0.1896
    2DOPE  H18Y  257   3.767   3.921  15.042  0.5702  0.9398 -1.1725
    2DOPE  H18Z  258   3.715   4.066  15.138  0.0009 -0.0676  1.4655
    3DOPE     N  259   3.853   4.293  16.686  0.2028 -0.4118  0.5052
    3DOPE   HN1  260   3.919   4.261  16.760  1.5766 -0.6162 -0.7728
    3DOPE   HN2  261   3.887   4.266  16.592  0.5652  2.5319 -0.3119
    3DOPE   HN3  262   3.845   4.397  16.686 -1.0426 -0.4639 -1.5482
    3DOPE   C12  263   3.719   4.238  16.725 -0.3272 -0.4459  0.3998
    3DOPE  H12A  264   3.662   4.233  16.630 -0.9854  0.2766  0.7392
    3DOPE  H12B  265   3.666   4.318  16.781 -1.9798  1.2955 -3.3515
    3DOPE   C11  266   3.723   4.101  16.783 -0.0828  0.0261 -0.6712
    3DOPE  H11A  267   3.784   4.108  16.875  0.0083 -0.2980 -0.7060
    3DOPE  H11B  268   3.792   4.044  16.716 -1.2790  1.7252 -3.5189
    3DOPE     P  269   3.490   4.088  16.907 -0.1866  0.0375  0.2248
    3DOPE   O13  270   3.461   4.229  16.888 -0.1797 -0.0333 -0.6061
    3DOPE   O14  271   3.549   4.044  17.039 -0.3013 -0.0382  0.3831
    3DOPE   O11  272   3.365   4.008  16.861  0.2824  0.5998 -0.0749
    3DOPE   O12  273   3.591   4.042  16.791  0.5808 -0.0245 -0.1067
    3DOPE    C1  274   3.285   4.066  16.758 -0.3207  0.7799  0.4743
    3DOPE    HA  275   3.330   4.061  16.656 -1.7471 -2.4190 -0.1123
    3DOPE    HB  276   3.261   4.171  16.786  0.2686  0.9603  0.3280
    3DOPE    C2  277   3.149   4.001  16.749 -0.1694 -0.4285 -0.1518
    3DOPE    HS  278   3.129   3.951  16.846  1.1926 -1.8941 -0.5716
    3DOPE   O21  279   3.169   3.899  16.645  0.3057  0.1162 -0.1468
    3DOPE   C21  280   3.078   3.796  16.653  0.2267  0.6121 -0.7095
    3DOPE   O22  281   2.985   3.791  16.731 -0.1253 -0.0497  0.0561
    3DOPE   C22  282   3.107   3.695  16.549  0.3341 -0.2203 -0.6115
    3DOPE   H2R  283   3.013   3.636  16.546  1.2563 -1.9879  1.9395
    3DOPE   H2S  284   3.178   3.622  16.591  0.9366 -0.4287 -1.9461
    3DOPE    C3  285   3.031   4.095  16.715 -0.3954 -0.2057  0.0349
    3DOPE    HX  286   3.016   4.165  16.800 -1.1399  0.3120 -0.5168
    3DOPE    HY  287   2.940   4.037  16.690 -0.4699  0.4185 -1.2281
    3DOPE   O31  288   3.058   4.172  16.592 -0.7064  0.3012  0.2242
    3DOPE   C31  289   2.989   4.288  16.584 -0.2507 -0.9370  0.1245
    3DOPE   O32  290   2.915   4.328  16.669  0.4517  0.2126 -0.3737
    3DOPE   C32  291   3.018   4.355  16.448  1.0198  0.0746  0.2693
    3DOPE   H2X  292   3.124   4.332  16.426  1.0495 -0.5317  1.0234
    3DOPE   H2Y  293   2.953   4.289  16.387 -1.2318  1.1364  1.4102
    3DOPE   C23  294   3.134   3.760  16.406  0.0758 -0.3977 -0.3291
    3DOPE   H3R  295   3.152   3.677  16.334  1.7127  0.7164 -1.2693
    3DOPE   H3S  296   3.233   3.809  16.412 -0.2568  0.1656  0.9834
    3DOPE   C24  297   3.018   3.845  16.345 -0.1958  0.6051  0.0134
    3DOPE   H4R  298   3.017   3.948  16.386  1.4841 -0.1206  2.0428
    3DOPE   H4S  299   2.928   3.796  16.389  0.1219 -0.2675 -0.2785
    3DOPE   C25  300   3.011   3.857  16.187  0.2107  0.1682 -0.0968
    3DOPE   H5R  301   2.905   3.886  16.169  0.4586  2.0219  1.1326
    3DOPE   H5S  302   3.013   3.758  16.136  0.1145  0.3653 -0.4876
    3DOPE   C26  303   3.114   3.947  16.121 -0.5025 -0.5259 -0.1250
    3DOPE   H6R  304   3.220   3.928  16.150  0.5614  2.3058 -1.7963
    3DOPE   H6S  305   3.099   4.051  16.155  2.2607 -0.0793 -0.0112
    3DOPE   C27  306   3.104   3.940  15.967 -0.7385 -0.1116 -0.3590
    3DOPE   H7R  307   3.005   3.979  15.937 -1.0812 -0.8175 -0.1638
    3DOPE   H7S  308   3.111   3.838  15.922  0.2431 -0.5967  0.8383
    3DOPE   C28  309   3.209   4.041  15.907 -0.1840  0.2060 -0.1290
    3DOPE   H8R  310   3.231   4.120  15.982  0.5429 -1.5131  1.5667
    3DOPE   H8S  311   3.162   4.084  15.816 -2.3413 -2.6154 -0.5017
    3DOPE   C29  312   3.341   3.981  15.878 -0.6561  0.2773 -0.5707
    3DOPE   H9R  313   3.402   3.954  15.965  0.2267  2.1941 -0.5517
    3DOPE  C210  314   3.384   3.968  15.755  0.1700 -0.3176  0.4358
    3DOPE  H10R  315   3.488   3.932  15.754 -0.0954 -1.1199  0.8018
    3DOPE  C211  316   3.332   3.996  15.621  0.2821  0.4308  0.2080
    3DOPE  H11R  317   3.327   4.107  15.611 -0.7847  0.2612 -1.8307
    3DOPE  H11S  318   3.225   3.967  15.617  0.4553 -0.0734 -1.7262
    3DOPE  C212  319   3.419   3.951  15.498  0.5461  0.6345 -0.0068
    3DOPE  H12R  320   3.422   3.840  15.510 -1.8903  0.5583  0.4352
    3DOPE  H12S  321   3.521   3.991  15.515  0.8080 -0.4977  1.3876
    3DOPE  C213  322   3.350   3.991  15.366 -0.4209 -0.0592 -0.1791
    3DOPE  H13R  323   3.383   4.095  15.346  1.8778 -0.0925  2.7148
    3DOPE  H13S  324   3.239   3.990  15.362 -0.4306  1.0286 -0.4682
    3DOPE  C214  325   3.380   3.894  15.249 -0.2267  0.8888  0.3377
    3DOPE  H14R  326   3.489   3.889  15.232  0.0639  0.6322  2.1287
    3DOPE  H14S  327   3.334   3.926  15.153 -1.6059 -0.0171  0.6565
    3DOPE  C215  328   3.331   3.752  15.283  0.9419 -0.5711  0.4234
    3DOPE  H15R  329   3.234   3.762  15.335  0.1087 -1.5002 -0.8994
    3DOPE  H15S  330   3.400   3.716  15.363  1.3629  1.3958  1.0040
    3DOPE  C216  331   3.301   3.648  15.174 -0.1256  0.1844  0.5271
    3DOPE  H16R  332   3.216   3.674  15.107  0.5037 -2.3642 -1.4206
    3DOPE  H16S  333   3.263   3.549  15.208  1.7918 -1.4337 -1.7014
    3DOPE  C217  334   3.435   3.627  15.100 -0.3963  0.1350  0.8873
    3DOPE  H17R  335   3.470   3.720  15.051 -1.9100 -1.1242 -3.0204
    3DOPE  H17S  336   3.412   3.557  15.016 -1.3992  0.3411  0.9754
    3DOPE  C218  337   3.546   3.563  15.190  0.1007  1.0524 -0.0863
    3DOPE  H18R  338   3.640   3.545  15.134  0.8218  2.7123  0.5128
    3DOPE  H18S  339   3.512   3.473  15.246 -0.5951  0.8503 -0.8139
    3DOPE  H18T  340   3.585   3.637  15.263 -0.6671  1.2225  0.1602
    3DOPE   C33  341   2.964   4.496  16.436  0.3962  0.5851 -0.1902
    3DOPE   H3X  342   3.007   4.569  16.507 -0.0280  4.9112 -3.9231
    3DOPE   H3Y  343   2.855   4.484  16.451  0.6131 -3.0125 -0.5330
    3DOPE   C34  344   3.006   4.563  16.307  0.5654  0.4741  0.0303
    3DOPE   H4X  345   2.984   4.672  16.312 -2.4952 -0.0486 -0.0511
    3DOPE   H4Y  346   3.114   4.553  16.284  0.7733  2.1060  0.1832
    3DOPE   C35  347   2.936   4.501  16.186 -0.3606 -0.6374 -0.2099
    3DOPE   H5X  348   2.840   4.456  16.220 -1.1819  1.5181  0.4408
    3DOPE   H5Y  349   2.997   4.413  16.155  0.4034 -0.5342  0.9761
    3DOPE   C36  350   2.889   4.597  16.078 -0.1088  0.1662  0.3987
    3DOPE   H6X  351   2.981   4.626  16.022 -1.1696 -2.3327 -2.9788
    3DOPE   H6Y  352   2.838   4.673  16.140 -0.2341 -1.1003  1.9207
    3DOPE   C37  353   2.794   4.536  15.965  0.2921 -0.2748 -0.2614
    3DOPE   H7X  354   2.693   4.524  16.009  0.7302  1.3811  1.2835
    3DOPE   H7Y  355   2.793   4.616  15.888 -1.7195  0.0401  0.0299
    3DOPE   C38  356   2.859   4.414  15.892  0.5352  0.1156 -0.6327
    3DOPE   H8X  357   2.857   4.324  15.958 -0.4820 -1.6637 -2.9329
    3DOPE   H8Y  358   2.961   4.437  15.856  0.7783 -0.7092 -0.4825
    3DOPE   C39  359   2.775   4.370  15.775  0.3567  0.3729  0.4657
    3DOPE   H9X  360   2.708   4.449  15.740  0.4790 -0.0793 -0.8551
    3DOPE  C310  361   2.773   4.250  15.713  0.1679  0.2303 -0.1946
    3DOPE  H10X  362   2.711   4.242  15.623 -1.1293  1.4894  0.5569
    3DOPE  C311  363   2.853   4.130  15.754  0.3050 -0.7397 -0.7175
    3DOPE  H11X  364   2.938   4.158  15.819  0.3102 -2.2340 -0.0542
    3DOPE  H11Y  365   2.790   4.067  15.820  0.6504 -0.9268 -0.5624
    3DOPE  C312  366   2.913   4.056  15.632  0.0183 -0.3048  0.7488
    3DOPE  H12X  367   3.003   3.999  15.660  0.5576 -0.2136 -0.7150
    3DOPE  H12Y  368   2.949   4.135  15.562  0.0225 -0.5298  0.4956
    3DOPE  C313  369   2.823   3.959  15.558 -0.1507 -0.1018 -0.3550
    3DOPE  H13X  370   2.799   3.882  15.635  1.5988  0.1286  0.4873
    3DOPE  H13Y  371   2.729   4.004  15.522  1.2163  1.9550 -1.5138
    3DOPE  C314  372   2.898   3.903  15.443  0.1238 -0.0767  0.0699
    3DOPE  H14X  373   2.849   3.804  15.427 -4.0081  1.6353  0.9273
    3DOPE  H14Y  374   3.006   3.909  15.466 -0.0386  0.5428  0.6715
    3DOPE  C315  375   2.883   3.976  15.311 -0.8346  0.6268 -0.1513
    3DOPE  H15X  376   2.839   4.076  15.334 -0.3112  0.9743 -0.6444
    3DOPE  H15Y  377   2.818   3.913  15.247 -0.5161  1.4594 -1.3258
    3DOPE  C316  378   3.012   4.013  15.230  0.0186  1.1903  0.4430
    3DOPE  H16X  379   3.067   3.917  15.225  0.5286  1.4604  0.7221
    3DOPE  H16Y  380   3.077   4.085  15.285  2.5621  0.8524 -1.8944
    3DOPE  C317  381   2.984   4.067  15.093 -0.0802  0.4362 -0.0300
    3DOPE  H17X  382   2.916   3.992  15.045 -0.0491  0.0059  0.5875
    3DOPE  H17Y  383   2.923   4.160  15.092 -2.3122 -0.9389 -0.9081
    3DOPE  C318  384   3.105   4.074  15.004  0.1331  0.2189 -0.3782
    3DOPE  H18X  385   3.080   4.085  14.897 -0.7441 -0.7251 -0.2915
    3DOPE  H18Y  386   3.177   4.145  15.049 -1.0172  1.2027 -0.0477
    3DOPE  H18Z  387   3.154   3.975  15.014 -0.9809 -0.2050  1.6394
    4DOPE     N  388   5.240   2.124  17.412 -0.3554 -0.0567 -0.2333
    4DOPE   HN1  389   5.208   2.139  17.509  1.4664  1.5341  0.1850
    4DOPE   HN2  390   5.181   2.055  17.361  1.6269 -1.4251 -0.8086
    4DOPE   HN3  391   5.332   2.074  17.411  1.0088  2.1907 -3.0089
    4DOPE   C12  392   5.239   2.257  17.338 -0.0221 -0.1692 -0.8928
    4DOPE  H12A  393   5.297   2.331  17.398 -1.4909  2.3094 -2.3417
    4DOPE  H12B  394   5.132   2.285  17.352 -0.4811 -1.8724 -0.8180
    4DOPE   C11  395   5.279   2.248  17.190 -0.1039  0.2475  0.4161
    4DOPE  H11A  396   5.385   2.217  17.178  0.2166  0.8439  1.5542
    4DOPE  H11B  397   5.268   2.350  17.149  1.1458 -0.2605 -1.3192
    4DOPE     P  398   5.066   2.166  17.046 -0.2400  0.2096 -0.1266
    4DOPE   O13  399   5.065   2.284  16.952  0.8781  0.0448 -0.0642
    4DOPE   O14  400   4.952   2.136  17.140  0.2036  0.3913  0.2624
    4DOPE   O11  401   5.070   2.037  16.958 -0.6725 -0.3512 -0.5906
    4DOPE   O12  402   5.203   2.155  17.123 -0.5430 -0.0572 -0.6723
    4DOPE    C1  403   5.177   1.942  16.950 -0.2753 -0.3639  0.1754
    4DOPE    HA  404   5.195   1.885  17.044 -0.0099 -1.3873 -0.4704
    4DOPE    HB  405   5.274   1.987  16.921  0.6238 -1.9388  0.6012
    4DOPE    C2  406   5.135   1.822  16.862  0.0414  0.6394  0.3900
    4DOPE    HS  407   5.217   1.747  16.856 -0.2651  0.3172  0.1971
    4DOPE   O21  408   5.090   1.859  16.733  0.7048  0.2471  0.0055
    4DOPE   C21  409   5.190   1.894  16.653  0.3739 -0.5406  1.0341
    4DOPE   O22  410   5.307   1.889  16.674  0.7836  0.4349 -0.3770
    4DOPE   C22  411   5.129   1.948  16.525  0.2285  0.0517  0.4474
    4DOPE   H2R  412   5.211   1.949  16.450  0.0851  0.2746  0.2895
    4DOPE   H2S  413   5.116   2.056  16.548 -0.0964  0.8144 -2.8127
    4DOPE    C3  414   5.025   1.735  16.936 -0.0810 -0.3922  0.2998
    4DOPE    HX  415   4.945   1.808  16.963 -0.2538 -0.6208  0.4139
    4DOPE    HY  416   5.068   1.706  17.034  1.3393 -1.3130 -0.5630
    4DOPE   O31  417   4.977   1.623  16.867  0.1557  0.5836  0.0863
    4DOPE   C31  418   4.877   1.644  16.784  0.4616  0.6058 -0.2257
    4DOPE   O32  419   4.811   1.746  16.776 -0.2206  0.0269  0.2416
    4DOPE   C32  420   4.861   1.513  16.703 -0.2718 -0.3022  0.5620
    4DOPE   H2X  421   4.955   1.454  16.694 -1.2260 -1.6622 -0.8191
    4DOPE   H2Y  422   4.806   1.437  16.762  0.8075 -1.3146  0.2960
    4DOPE   C23  423   4.999   1.874  16.475 -0.3649 -0.1835 -0.6138
    4DOPE   H3R  424   4.913   1.893  16.542 -1.0650  0.6321 -1.7053
    4DOPE   H3S  425   5.008   1.763  16.469  2.4850 -0.0087 -0.7565
    4DOPE   C24  426   4.964   1.921  16.335  0.4386  1.0398  0.3875
    4DOPE   H4R  427   4.883   1.857  16.295  1.5145  0.2052 -0.5269
    4DOPE   H4S  428   5.058   1.910  16.277  0.6381  0.3444  0.8385
    4DOPE   C25  429   4.923   2.065  16.318  0.7015 -0.9261  0.1902
    4DOPE   H5R  430   4.993   2.137  16.365 -0.0061 -0.1124  0.0287
    4DOPE   H5S  431   4.823   2.084  16.364  0.5979  0.8952 -0.6920
    4DOPE   C26  432   4.924   2.114  16.170  0.1711  0.4195 -0.0029
    4DOPE   H6R  433   4.852   2.052  16.111  0.0613 -0.4083  0.9717
    4DOPE   H6S  434   5.027   2.095  16.135  0.3250 -1.1565  1.1816
    4DOPE   C27  435   4.884   2.264  16.153  0.0010 -1.2798  0.0203
    4DOPE   H7R  436   4.972   2.326  16.181 -0.7171 -0.0796 -0.3227
    4DOPE   H7S  437   4.801   2.278  16.225  1.0991 -0.6285  1.1878
    4DOPE   C28  438   4.840   2.310  16.009  0.6511 -0.4098 -0.7222
    4DOPE   H8R  439   4.809   2.416  16.019  0.9172 -0.4000  0.0157
    4DOPE   H8S  440   4.748   2.265  15.966  1.2999 -0.2525 -2.3354
    4DOPE   C29  441   4.958   2.282  15.914 -0.2628 -1.1500  0.0646
    4DOPE   H9R  442   5.056   2.280  15.963  0.4691  1.5553 -1.0984
    4DOPE  C210  443   4.949   2.270  15.777  0.0387 -0.2328 -0.1564
    4DOPE  H10R  444   5.038   2.238  15.720 -1.2252 -1.2242 -1.7063
    4DOPE  C211  445   4.823   2.271  15.690  0.1198  0.2103  0.0905
    4DOPE  H11R  446   4.734   2.252  15.754 -0.1013 -0.0357 -0.2809
    4DOPE  H11S  447   4.834   2.196  15.609 -0.5400 -1.5491  1.5604
    4DOPE  C212  448   4.811   2.409  15.617 -0.1794  0.6339 -0.3640
    4DOPE  H12R  449   4.831   2.480  15.700 -0.2992 -1.1379  1.2578
    4DOPE  H12S  450   4.705   2.425  15.587 -0.5931 -2.3536 -0.7842
    4DOPE  C213  451   4.912   2.435  15.502 -0.2391 -0.3557 -0.9596
    4DOPE  H13R  452   5.002   2.372  15.519 -0.4637 -0.6986 -1.0371
    4DOPE  H13S  453   4.942   2.542  15.511 -0.3149 -0.4091  0.0371
    4DOPE  C214  454   4.846   2.408  15.368  0.0110 -0.6795  0.0661
    4DOPE  H14R  455   4.753   2.466  15.353 -1.1258 -2.7719 -1.5033
    4DOPE  H14S  456   4.799   2.308  15.364  1.4179 -1.3343 -1.2276
    4DOPE  C215  457   4.947   2.415  15.250  0.2291  1.1018 -0.0858
    4DOPE  H15R  458   5.028   2.339  15.259 -1.2280 -0.6501 -0.9616
    4DOPE  H15S  459   4.988   2.518  15.249 -0.8600  1.5628  0.8093
    4DOPE  C216  460   4.872   2.375  15.125  0.1821 -0.3883  0.4201
    4DOPE  H16R  461   4.796   2.454  15.106 -0.5293 -0.3716  2.9945
    4DOPE  H16S  462   4.809   2.288  15.153  0.9024 -0.3289  2.3212
    4DOPE  C217  463   4.967   2.356  15.006  0.0211 -0.3119  0.3183
    4DOPE  H17R  464   5.043   2.281  15.034 -0.2722 -0.1708  1.5305
    4DOPE  H17S  465   5.019   2.451  14.979  2.3586 -1.2017  1.3865
    4DOPE  C218  466   4.889   2.305  14.882  0.3012  0.4615 -0.0865
    4DOPE  H18R  467   4.799   2.371  14.874  0.5859  0.7384 -1.1757
    4DOPE  H18S  468   4.862   2.200  14.906  1.1037  0.3006  0.1189
    4DOPE  H18T  469   4.933   2.294  14.781 -1.1192  2.1634 -0.9586
    4DOPE   C33  470   4.795   1.540  16.564 -0.3954 -0.2793 -0.6070
    4DOPE   H3X  471   4.844   1.627  16.516 -0.1388  1.3617  2.3704
    4DOPE   H3Y  472   4.694   1.582  16.585 -0.2144 -0.5964  1.0156
    4DOPE   C34  473   4.777   1.420  16.478 -1.0336 -0.3064 -0.5278
    4DOPE   H4X  474   4.872   1.391  16.428  0.1446  3.0929 -0.5196
    4DOPE   H4Y  475   4.742   1.336  16.541  0.9104  0.2783  1.4653
    4DOPE   C35  476   4.679   1.449  16.357 -0.0160  0.3835  0.0024
    4DOPE   H5X  477   4.717   1.535  16.298  3.0248 -0.5939  0.3439
    4DOPE   H5Y  478   4.580   1.486  16.392  1.4767  3.8539  0.9426
    4DOPE   C36  479   4.661   1.323  16.268 -0.1168 -0.0939 -0.5644
    4DOPE   H6X  480   4.591   1.252  16.318  0.0391  0.3374  0.2767
    4DOPE   H6Y  481   4.756   1.266  16.257  0.3964  0.2680  1.5106
    4DOPE   C37  482   4.595   1.359  16.132 -0.6145 -0.4666  0.4147
    4DOPE   H7X  483   4.649   1.445  16.086 -0.7796 -0.7534 -0.3138
    4DOPE   H7Y  484   4.610   1.281  16.055  0.2759  0.1696 -0.0781
    4DOPE   C38  485   4.447   1.401  16.143 -0.0158 -0.7734  0.4786
    4DOPE   H8X  486   4.428   1.437  16.040  1.2479  0.3445  0.6041
    4DOPE   H8Y  487   4.441   1.489  16.211  0.0242 -0.3799 -0.0215
    4DOPE   C39  488   4.353   1.293  16.194 -0.2535 -0.4578  0.0224
    4DOPE   H9X  489   4.338   1.278  16.302  2.6806 -0.7222  0.4858
    4DOPE  C310  490   4.270   1.224  16.111 -0.9112 -0.1954  0.3079
    4DOPE  H10X  491   4.228   1.133  16.156  1.5633 -1.3724  0.3830
    4DOPE  C311  492   4.241   1.229  15.962  0.1764 -0.1766  0.1285
    4DOPE  H11X  493   4.280   1.328  15.930 -1.6999  0.4734 -0.2989
    4DOPE  H11Y  494   4.293   1.149  15.905 -1.2865 -1.1533  0.1075
    4DOPE  C312  495   4.093   1.236  15.931  0.3817  0.5756 -1.0755
    4DOPE  H12X  496   4.031   1.305  15.992 -0.9778 -0.6591 -0.9984
    4DOPE  H12Y  497   4.044   1.140  15.960  4.2051 -0.5537  2.7235
    4DOPE  C313  498   4.060   1.276  15.791  0.6379  0.2371  0.0866
    4DOPE  H13X  499   4.073   1.383  15.764  0.9010 -0.0297 -0.8792
    4DOPE  H13Y  500   4.135   1.235  15.720  2.1252 -2.5420  3.0007
    4DOPE  C314  501   3.916   1.236  15.750 -0.5720 -0.2128  0.3165
    4DOPE  H14X  502   3.851   1.310  15.800 -0.3873  1.5605 -1.9257
    4DOPE  H14Y  503   3.887   1.133  15.782  0.0377 -0.4604  0.0902
    4DOPE  C315  504   3.890   1.243  15.596 -0.3256 -0.6053  0.1106
    4DOPE  H15X  505   3.925   1.341  15.557 -0.9928 -0.4257 -0.0578
    4DOPE  H15Y  506   3.781   1.246  15.573 -0.3157  1.3680  0.1269
    4DOPE  C316  507   3.957   1.123  15.525 -0.4605 -0.2083  0.1609
    4DOPE  H16X  508   3.923   1.035  15.583 -2.6702  0.1244 -0.5305
    4DOPE  H16Y  509   4.065   1.139  15.544 -0.2868 -0.5109 -0.5200
    4DOPE  C317  510   3.915   1.122  15.372  0.3096 -0.1098 -0.3209
    4DOPE  H17X  511   3.958   1.026  15.339  1.6019  0.1314  0.5637
    4DOPE  H17Y  512   3.805   1.123  15.355 -0.0304  2.1555  1.4060
    4DOPE  C318  513   3.980   1.233  15.291 -0.2850 -0.7091 -0.1582
    4DOPE  H18X  514   3.919   1.325  15.302 -1.7964 -1.6233 -0.7066
    4DOPE  H18Y  515   4.086   1.256  15.315 -0.8696  2.2380 -0.0241
    4DOPE  H18Z  516   3.979   1.219  15.181 -0.4274  2.4287 -0.6592
    5DOPE     N  517   0.519   3.507  17.139 -0.6628 -0.1563 -0.1439
    5DOPE   HN1  518   0.598   3.567  17.170 -2.4968  2.2614  0.1126
    5DOPE   HN2  519   0.448   3.522  17.213 -1.8001  0.1069 -1.2478
    5DOPE   HN3  520   0.541   3.405  17.134  1.5972  0.2827 -0.3734
    5DOPE   C12  521   0.473   3.563  17.014 -0.1986  0.0082  0.5992
    5DOPE  H12A  522   0.416   3.657  17.027  1.6726  1.4938 -1.2611
    5DOPE  H12B  523   0.410   3.489  16.960 -2.4078  0.8440  1.9111
    5DOPE   C11  524   0.581   3.588  16.911  0.3507 -0.0278  0.2097
    5DOPE  H11A  525   0.529   3.626  16.820 -0.5856  0.0246  0.7678
    5DOPE  H11B  526   0.624   3.490  16.881  0.9820  1.1068 -3.1095
    5DOPE     P  527   0.829   3.664  16.967 -0.6667  0.1911 -0.2377
    5DOPE   O13  528   0.859   3.527  17.015  0.1573  0.0560 -0.1316
    5DOPE   O14  529   0.897   3.776  17.037  0.1897  0.0557 -0.1057
    5DOPE   O11  530   0.863   3.677  16.813  0.5384 -0.2252  0.0001
    5DOPE   O12  531   0.671   3.689  16.959  0.7131 -0.1170 -0.0361
    5DOPE    C1  532   0.783   3.743  16.718  0.2746 -1.1186  0.6448
    5DOPE    HA  533   0.729   3.826  16.768  1.0575 -0.2548  0.0874
    5DOPE    HB  534   0.699   3.679  16.683  0.9074 -1.7991  0.3369
    5DOPE    C2  535   0.851   3.797  16.585 -0.0005  0.2039  0.2363
    5DOPE    HS  536   0.763   3.823  16.522 -0.8366 -1.0420  0.8332
    5DOPE   O21  537   0.930   3.689  16.526 -0.0917 -0.3921 -0.0139
    5DOPE   C21  538   0.855   3.604  16.449  0.3157 -0.1087 -0.5116
    5DOPE   O22  539   0.737   3.634  16.422  0.1601  0.2296 -0.2917
    5DOPE   C22  540   0.943   3.489  16.402  0.0958 -0.4639 -0.1590
    5DOPE   H2R  541   1.003   3.463  16.492 -1.8644 -1.0894  1.0352
    5DOPE   H2S  542   1.011   3.519  16.319  0.3138  0.4679  0.3446
    5DOPE    C3  543   0.936   3.918  16.614 -0.0455 -0.9356 -0.1846
    5DOPE    HX  544   1.013   3.889  16.688  0.9655 -1.7234 -1.4977
    5DOPE    HY  545   0.877   4.001  16.658  0.8901 -0.8481  0.9421
    5DOPE   O31  546   1.002   3.965  16.494  0.3262 -0.2876  0.0925
    5DOPE   C31  547   0.928   4.021  16.400  0.3872  0.9337 -0.2140
    5DOPE   O32  548   0.805   4.027  16.400  0.1469  0.1747  0.5047
    5DOPE   C32  549   1.004   4.074  16.285  0.0984  0.5845 -0.4127
    5DOPE   H2X  550   0.987   4.183  16.271  0.7889  1.0443  1.9436
    5DOPE   H2Y  551   1.110   4.069  16.318 -0.3802  1.0648  1.2969
    5DOPE   C23  552   0.867   3.370  16.359  0.6788  0.1797 -0.2893
    5DOPE   H3R  553   0.793   3.402  16.281  0.9578  2.2270  0.2332
    5DOPE   H3S  554   0.801   3.335  16.441 -0.3997 -1.4626 -1.7630
    5DOPE   C24  555   0.962   3.255  16.310 -0.5214 -0.0607  0.2762
    5DOPE   H4R  556   1.047   3.233  16.378 -0.0653  0.1028 -0.2359
    5DOPE   H4S  557   1.013   3.291  16.218 -0.9775 -0.1860 -0.0289
    5DOPE   C25  558   0.884   3.125  16.283  0.5101  0.1346  0.1310
    5DOPE   H5R  559   0.806   3.099  16.358  0.6610  1.3178  0.7202
    5DOPE   H5S  560   0.952   3.038  16.292  1.9013  1.4077  3.3756
    5DOPE   C26  561   0.825   3.120  16.146 -0.1566 -0.7380  0.2100
    5DOPE   H6R  562   0.909   3.134  16.074 -1.1638  0.2269 -0.8152
    5DOPE   H6S  563   0.737   3.185  16.129  0.2213 -0.9312 -3.1377
    5DOPE   C27  564   0.762   2.981  16.122 -0.6605 -0.3690  0.0836
    5DOPE   H7R  565   0.668   2.982  16.181 -0.4216 -0.8645  0.4767
    5DOPE   H7S  566   0.824   2.907  16.177 -0.1431 -0.6375 -0.8421
    5DOPE   C28  567   0.731   2.944  15.979  0.5929  0.1088 -0.1984
    5DOPE   H8R  568   0.646   3.008  15.946 -1.1517 -0.9084  2.0564
    5DOPE   H8S  569   0.694   2.839  15.984 -2.4479  1.0583 -0.4311
    5DOPE   C29  570   0.858   2.952  15.887 -0.1366  0.3816 -0.3124
    5DOPE   H9R  571   0.950   2.904  15.923 -0.2246  0.7096  0.3671
    5DOPE  C210  572   0.861   3.014  15.770 -0.3265  0.4399  0.0252
    5DOPE  H10R  573   0.962   3.025  15.730 -0.8833  1.7438 -1.1007
    5DOPE  C211  574   0.744   3.087  15.705 -0.1957 -0.0387 -0.1836
    5DOPE  H11R  575   0.645   3.061  15.748 -0.8565  1.0885 -0.9651
    5DOPE  H11S  576   0.746   3.058  15.598  0.7716 -1.7715  0.2724
    5DOPE  C212  577   0.748   3.237  15.707  0.4061  0.3872  0.2623
    5DOPE  H12R  578   0.843   3.273  15.663  0.5063  0.6472  0.6787
    5DOPE  H12S  579   0.749   3.270  15.814 -1.0374  0.9301  0.1371
    5DOPE  C213  580   0.628   3.298  15.637  0.4034 -0.2266 -0.1189
    5DOPE  H13R  581   0.545   3.278  15.707  0.3520  2.5827  0.7682
    5DOPE  H13S  582   0.611   3.252  15.537  0.6546  1.8692 -1.2000
    5DOPE  C214  583   0.642   3.445  15.605  0.3362 -0.9092  0.7670
    5DOPE  H14R  584   0.555   3.475  15.542 -0.9347 -1.7663  2.0665
    5DOPE  H14S  585   0.724   3.451  15.531  0.0658 -2.5648  0.2968
    5DOPE  C215  586   0.664   3.545  15.715 -0.1392 -0.0588 -0.6624
    5DOPE  H15R  587   0.763   3.517  15.757 -0.3197  0.9858  0.5087
    5DOPE  H15S  588   0.590   3.534  15.797  1.0230  0.8765  0.5530
    5DOPE  C216  589   0.672   3.691  15.674  0.0522 -0.5133  0.1994
    5DOPE  H16R  590   0.704   3.751  15.762 -1.3461 -1.1095  1.1445
    5DOPE  H16S  591   0.572   3.726  15.641  0.8510  1.1464 -0.6011
    5DOPE  C217  592   0.762   3.723  15.548  0.2544  0.4748  0.8640
    5DOPE  H17R  593   0.736   3.830  15.530 -1.6369  0.0317  0.7352
    5DOPE  H17S  594   0.720   3.659  15.468 -1.5048 -0.4130  2.4084
    5DOPE  C218  595   0.916   3.723  15.583  0.0187  0.2348  0.6968
    5DOPE  H18R  596   0.929   3.792  15.669 -2.4794  0.1464  1.2076
    5DOPE  H18S  597   0.960   3.763  15.489 -2.8800 -0.8205 -1.2462
    5DOPE  H18T  598   0.965   3.623  15.582  0.6086  0.5186 -0.3637
    5DOPE   C33  599   0.986   3.990  16.154  0.3209  0.3021 -0.6405
    5DOPE   H3X  600   1.015   4.049  16.065  0.7806 -0.1406 -0.7925
    5DOPE   H3Y  601   0.880   3.962  16.135  0.2685 -1.6847  1.8774
    5DOPE   C34  602   1.058   3.857  16.154  0.1922  1.0611 -0.8327
    5DOPE   H4X  603   1.167   3.858  16.175  0.2537  0.1624 -1.0746
    5DOPE   H4Y  604   1.013   3.783  16.223  1.8522 -0.2271 -1.0675
    5DOPE   C35  605   1.026   3.789  16.020 -0.5527  0.3418 -0.2686
    5DOPE   H5X  606   1.060   3.853  15.936  0.4389 -0.7395 -0.7324
    5DOPE   H5Y  607   0.920   3.766  15.996 -0.6057 -1.6090  1.4939
    5DOPE   C36  608   1.094   3.650  16.006  0.2929 -0.1700 -0.0549
    5DOPE   H6X  609   1.049   3.586  16.085  0.5142 -1.5200 -1.0014
    5DOPE   H6Y  610   1.203   3.660  16.024  0.3527 -0.7219 -0.0834
    5DOPE   C37  611   1.056   3.580  15.870 -0.5611  0.4174  0.3233
    5DOPE   H7X  612   0.947   3.558  15.868 -0.0198 -2.9031  1.2224
    5DOPE   H7Y  613   1.089   3.643  15.785  0.5283 -1.1455 -0.4738
    5DOPE   C38  614   1.116   3.440  15.850 -0.1762 -0.4832  0.0172
    5DOPE   H8X  615   1.068   3.388  15.765 -1.9727  0.1963  0.5696
    5DOPE   H8Y  616   1.099   3.387  15.947 -0.9804  0.3664  0.3570
    5DOPE   C39  617   1.267   3.453  15.818 -0.8233  0.5261 -0.8386
    5DOPE   H9X  618   1.323   3.538  15.860 -0.7559 -0.1534  0.4832
    5DOPE  C310  619   1.342   3.369  15.748  0.3898  0.0447 -0.1912
    5DOPE  H10X  620   1.445   3.400  15.721  0.9430 -1.2060  0.3804
    5DOPE  C311  621   1.298   3.239  15.678 -0.2388  0.7326  0.0279
    5DOPE  H11X  622   1.381   3.166  15.687  0.3891  1.4032 -0.1676
    5DOPE  H11Y  623   1.202   3.204  15.719  0.6341 -0.0881  1.4210
    5DOPE  C312  624   1.283   3.247  15.526  0.3853  0.4601  0.3045
    5DOPE  H12X  625   1.277   3.146  15.480 -2.6772  0.0311  1.4538
    5DOPE  H12Y  626   1.366   3.305  15.480 -2.3027  3.3472 -1.2885
    5DOPE  C313  627   1.151   3.317  15.498 -0.3389  0.6907 -0.0448
    5DOPE  H13X  628   1.070   3.263  15.552 -1.4407  0.5769 -1.7261
    5DOPE  H13Y  629   1.158   3.419  15.542  2.4907  0.4465  0.2103
    5DOPE  C314  630   1.115   3.334  15.353  0.1538  0.5180  0.4844
    5DOPE  H14X  631   1.138   3.236  15.306 -1.7076 -0.0782  0.7176
    5DOPE  H14Y  632   1.175   3.414  15.303  0.9266  0.0333  0.6304
    5DOPE  C315  633   0.966   3.353  15.335  0.1563 -1.1956 -0.1106
    5DOPE  H15X  634   0.938   3.452  15.378  0.9961 -0.6641 -0.7462
    5DOPE  H15Y  635   0.911   3.269  15.381  0.0164 -0.2025  1.6030
    5DOPE  C316  636   0.923   3.355  15.190 -0.2502  0.2420  0.3957
    5DOPE  H16X  637   0.938   3.250  15.157 -0.0796  0.5115 -0.4315
    5DOPE  H16Y  638   0.982   3.421  15.123 -1.9889  1.5808  0.0979
    5DOPE  C317  639   0.779   3.394  15.167 -0.0828  0.2058 -0.0119
    5DOPE  H17X  640   0.744   3.353  15.070 -0.1279 -3.1136  1.2857
    5DOPE  H17Y  641   0.711   3.348  15.242 -0.5097  0.4030 -0.2750
    5DOPE  C318  642   0.757   3.544  15.165  0.6163 -0.3487 -0.1056
    5DOPE  H18X  643   0.653   3.571  15.136  0.7586  2.1297  1.4183
    5DOPE  H18Y  644   0.793   3.599  15.254  1.1977 -0.3901 -0.3116
    5DOPE  H18Z  645   0.826   3.588  15.089 -0.6137  2.3577  0.2041
    6DOPE     N  646   1.464   3.898  16.716 -0.1277 -0.0213  0.2003
    6DOPE   HN1  647   1.426   3.964  16.787  0.7490  2.3507 -1.3809
    6DOPE   HN2  648   1.534   3.945  16.655 -2.7536  0.6734 -2.5437
    6DOPE   HN3  649   1.385   3.879  16.651 -1.5868 -1.5777  2.3149
    6DOPE   C12  650   1.504   3.782  16.791  0.0204  0.3085  0.3741
    6DOPE  H12A  651   1.532   3.698  16.725  1.1698 -1.1018  2.5395
    6DOPE  H12B  652   1.418   3.757  16.857  0.9683 -0.7265  1.2592
    6DOPE   C11  653   1.623   3.811  16.876  0.8244  0.6650  0.1454
    6DOPE  H11A  654   1.620   3.729  16.950 -0.8293  1.0533  0.5476
    6DOPE  H11B  655   1.613   3.900  16.942 -0.2493  2.0264 -1.7602
    6DOPE     P  656   1.883   3.843  16.875  0.6726 -0.8841  0.3758
    6DOPE   O13  657   1.921   3.717  16.946 -0.3971 -0.4416  0.1924
    6DOPE   O14  658   1.877   3.970  16.952 -0.0241 -0.1956 -0.1942
    6DOPE   O11  659   1.989   3.861  16.754  0.3647 -0.1309 -0.0331
    6DOPE   O12  660   1.745   3.814  16.799  0.1562  0.4403 -0.0055
    6DOPE    C1  661   1.955   3.969  16.666 -0.1059 -0.1760  0.4897
    6DOPE    HA  662   1.952   4.068  16.715 -0.1063  0.1195 -0.1033
    6DOPE    HB  663   1.856   3.955  16.617 -0.1151  1.4220  0.0282
    6DOPE    C2  664   2.056   3.979  16.549  0.4464 -0.0973  0.2687
    6DOPE    HS  665   2.011   4.042  16.470 -0.4940  0.8166  1.4877
    6DOPE   O21  666   2.091   3.850  16.503  0.2624 -0.1087 -0.1828
    6DOPE   C21  667   1.997   3.785  16.430  0.4665  0.7064 -0.0842
    6DOPE   O22  668   1.892   3.838  16.398  0.0122  0.2771  0.2118
    6DOPE   C22  669   2.037   3.643  16.397  0.8960 -0.3363 -0.6874
    6DOPE   H2R  670   1.980   3.563  16.449 -1.7415  0.2860 -2.4485
    6DOPE   H2S  671   2.148   3.637  16.411  1.1132 -0.0259 -2.1112
    6DOPE    C3  672   2.183   4.053  16.599  0.0282 -0.0103 -0.1530
    6DOPE    HX  673   2.247   4.068  16.510 -0.8679 -0.4413 -0.8747
    6DOPE    HY  674   2.240   3.992  16.674 -0.9933 -1.8194 -0.7853
    6DOPE   O31  675   2.149   4.177  16.664  0.0983 -0.3014  0.6307
    6DOPE   C31  676   2.099   4.267  16.584 -0.4226  0.0991 -0.0005
    6DOPE   O32  677   2.093   4.267  16.462  0.0599 -0.1565 -0.0966
    6DOPE   C32  678   2.060   4.394  16.673 -0.4623  0.8926  0.3430
    6DOPE   H2X  679   1.953   4.386  16.703 -0.5131 -1.2934 -0.2788
    6DOPE   H2Y  680   2.125   4.398  16.763  0.6548 -1.2011 -0.3081
    6DOPE   C23  681   2.013   3.616  16.245  0.4073  0.0022  0.1479
    6DOPE   H3R  682   1.906   3.623  16.216 -0.2179  4.1470  2.6609
    6DOPE   H3S  683   2.042   3.509  16.245  0.4375 -0.0218  1.7824
    6DOPE   C24  684   2.112   3.691  16.151 -0.3101  0.0133 -0.4032
    6DOPE   H4R  685   2.213   3.667  16.191 -0.5872  3.2774  2.7852
    6DOPE   H4S  686   2.102   3.802  16.156 -0.2155  0.0549 -1.0507
    6DOPE   C25  687   2.107   3.623  16.012  0.3183 -0.0028 -0.0857
    6DOPE   H5R  688   2.112   3.512  16.016  2.7394  0.0706  0.5837
    6DOPE   H5S  689   2.200   3.652  15.958 -1.1547 -0.0051 -2.8028
    6DOPE   C26  690   1.986   3.659  15.926 -0.0045  0.2480 -0.5054
    6DOPE   H6R  691   1.960   3.764  15.952  0.5590  0.0876  0.7448
    6DOPE   H6S  692   1.897   3.601  15.955  0.1261  0.4896  0.3958
    6DOPE   C27  693   2.016   3.645  15.775  0.8547 -0.0405 -0.3864
    6DOPE   H7R  694   2.038   3.536  15.765 -3.3068 -1.1009  0.0813
    6DOPE   H7S  695   2.099   3.716  15.754  0.0059  1.1537  0.2174
    6DOPE   C28  696   1.895   3.694  15.687  0.4143 -0.4615  0.2640
    6DOPE   H8R  697   1.918   3.691  15.578 -0.8504 -2.3046 -0.0106
    6DOPE   H8S  698   1.884   3.803  15.709 -3.9827 -0.6546  0.0573
    6DOPE   C29  699   1.762   3.630  15.712 -0.2364 -0.6088  0.4552
    6DOPE   H9R  700   1.733   3.640  15.818 -2.1432 -0.9553  0.0137
    6DOPE  C210  701   1.668   3.568  15.634  0.6098 -0.8025 -0.1922
    6DOPE  H10R  702   1.574   3.530  15.675  0.5469 -1.1086 -0.6135
    6DOPE  C211  703   1.671   3.555  15.480 -0.0894  0.1985 -0.1960
    6DOPE  H11R  704   1.663   3.448  15.451  0.9490 -0.2632  1.1063
    6DOPE  H11S  705   1.772   3.592  15.452  0.9741 -1.7007  0.8805
    6DOPE  C212  706   1.556   3.624  15.412  0.1909 -0.4725  0.7396
    6DOPE  H12R  707   1.547   3.732  15.436 -0.0914 -0.2286 -0.3857
    6DOPE  H12S  708   1.462   3.575  15.447  0.5264 -1.2393  0.5853
    6DOPE  C213  709   1.552   3.594  15.263 -0.4162  0.2481 -0.8424
    6DOPE  H13R  710   1.553   3.483  15.257  0.0782  0.2373 -0.6250
    6DOPE  H13S  711   1.635   3.650  15.215  0.6631  0.8245  1.5366
    6DOPE  C214  712   1.422   3.644  15.197 -0.3850 -0.2102 -0.3095
    6DOPE  H14R  713   1.399   3.746  15.234 -1.9694 -0.1712 -1.3247
    6DOPE  H14S  714   1.342   3.587  15.248  2.8542 -2.8680  2.2634
    6DOPE  C215  715   1.428   3.649  15.043  0.4568 -0.2761  0.3087
    6DOPE  H15R  716   1.428   3.546  15.000 -0.8536 -0.6192  1.0774
    6DOPE  H15S  717   1.518   3.698  15.001  0.8651  0.3055  1.7687
    6DOPE  C216  718   1.308   3.720  14.983 -0.2017 -0.1198  0.1421
    6DOPE  H16R  719   1.294   3.820  15.029  0.0064 -0.6615  1.4093
    6DOPE  H16S  720   1.222   3.650  14.992 -0.3190 -0.0942 -0.7170
    6DOPE  C217  721   1.321   3.746  14.838  0.2615 -0.7745 -0.0368
    6DOPE  H17R  722   1.343   3.650  14.788  0.3927 -1.0872  0.6074
    6DOPE  H17S  723   1.404   3.817  14.816 -1.5049  0.7529 -2.2359
    6DOPE  C218  724   1.187   3.805  14.774 -0.6035 -0.3131  0.2815
    6DOPE  H18R  725   1.194   3.808  14.663 -0.0429 -3.4374  0.1426
    6DOPE  H18S  726   1.145   3.897  14.820 -0.5535 -1.2333  2.2568
    6DOPE  H18T  727   1.104   3.732  14.787  0.2756 -1.2926  0.5151
    6DOPE   C33  728   2.086   4.522  16.589  0.4429 -0.0964 -0.5778
    6DOPE   H3X  729   1.997   4.536  16.524 -0.0936  0.4402  0.2421
    6DOPE   H3Y  730   2.171   4.523  16.518 -0.9363  0.3856 -2.2823
    6DOPE   C34  731   2.096   4.647  16.677  0.2641  0.0292 -0.3262
    6DOPE   H4X  732   2.013   4.643  16.751  0.3325 -1.2295 -0.2942
    6DOPE   H4Y  733   2.187   4.637  16.740 -1.7656 -0.5146  2.7444
    6DOPE   C35  734   2.116   4.782  16.601  0.1687 -0.4181 -0.4267
    6DOPE   H5X  735   2.103   4.863  16.676  2.2087  0.0597 -0.5460
    6DOPE   H5Y  736   2.019   4.789  16.547 -0.1468 -0.4338  0.1197
    6DOPE   C36  737   2.230   4.804  16.505 -0.0584  0.3214  0.6506
    6DOPE   H6X  738   2.229   4.729  16.423 -1.1459  2.7204 -1.6603
    6DOPE   H6Y  739   2.326   4.791  16.560  0.0982 -1.6747 -0.0172
    6DOPE   C37  740   2.231   4.938  16.428 -0.1193 -0.2287 -0.9005
    6DOPE   H7X  741   2.245   5.032  16.487 -0.8183  0.3816 -1.6820
    6DOPE   H7Y  742   2.322   4.927  16.365 -0.8906  0.0879 -2.1099
    6DOPE   C38  743   2.099   4.957  16.345 -0.4814 -0.2576 -0.1887
    6DOPE   H8X  744   2.022   4.959  16.425  0.4936 -1.8987  0.8494
    6DOPE   H8Y  745   2.079   4.861  16.292  1.3417 -0.6211 -0.2790
    6DOPE   C39  746   2.101   5.084  16.265 -0.2960  0.1228 -0.0945
    6DOPE   H9X  747   2.118   5.169  16.332 -0.7091 -0.4934  0.8069
    6DOPE  C310  748   2.083   5.113  16.137  0.0957 -0.5512  0.5906
    6DOPE  H10X  749   2.097   5.216  16.100  3.2524 -1.1576 -0.1816
    6DOPE  C311  750   2.058   5.005  16.035  0.2885  0.0019 -0.1493
    6DOPE  H11X  751   2.119   4.917  16.065 -0.0854  0.4108  1.8900
    6DOPE  H11Y  752   1.953   4.969  16.026 -0.4304  1.9462  0.1370
    6DOPE  C312  753   2.119   5.050  15.899 -0.2824  0.1739 -0.4983
    6DOPE  H12X  754   2.225   5.077  15.920 -1.0692  1.0149  3.1148
    6DOPE  H12Y  755   2.063   5.137  15.859 -1.1009  0.0058  0.2446
    6DOPE  C313  756   2.141   4.932  15.794  0.2182 -0.4912  0.0970
    6DOPE  H13X  757   2.199   4.850  15.841  0.0508 -0.3753  0.5130
    6DOPE  H13Y  758   2.045   4.893  15.756  0.1167  0.5880 -0.7936
    6DOPE  C314  759   2.216   4.994  15.671  0.0860 -0.0684 -0.1541
    6DOPE  H14X  760   2.239   4.905  15.609  1.3068  1.1896 -1.5791
    6DOPE  H14Y  761   2.315   5.038  15.697 -0.1691  1.3285 -1.3752
    6DOPE  C315  762   2.131   5.098  15.596 -0.9050  0.2358 -0.5498
    6DOPE  H15X  763   2.168   5.202  15.609 -1.1751  0.0754  1.8461
    6DOPE  H15Y  764   2.028   5.110  15.634 -1.2865  1.7671 -1.9027
    6DOPE  C316  765   2.138   5.059  15.451  0.1467  0.9113  0.9260
    6DOPE  H16X  766   2.095   4.959  15.430  0.8605  0.3660  2.0089
    6DOPE  H16Y  767   2.244   5.048  15.422  0.0005  0.3524  0.5796
    6DOPE  C317  768   2.066   5.157  15.358  0.5079  0.0443 -0.2517
    6DOPE  H17X  769   1.959   5.138  15.382 -0.1943  2.3624 -1.2655
    6DOPE  H17Y  770   2.091   5.257  15.401  0.4319  0.6698 -1.5998
    6DOPE  C318  771   2.110   5.148  15.212  0.3149 -0.1782 -1.2480
    6DOPE  H18X  772   2.123   5.045  15.171 -1.9004 -1.1229  0.2577
    6DOPE  H18Y  773   2.032   5.192  15.146 -0.1010 -0.0665 -0.6882
    6DOPE  H18Z  774   2.206   5.200  15.193  0.4515  0.6857  1.4379
    7DOPE     N  775   4.156   5.806  17.044 -0.3923  0.4160  0.8575
    7DOPE   HN1  776   4.141   5.905  17.071 -0.0577  0.2743  1.5740
    7DOPE   HN2  777   4.063   5.758  17.047  0.3857 -1.1025  1.7906
    7DOPE   HN3  778   4.208   5.754  17.117 -1.9443 -1.0633  0.9617
    7DOPE   C12  779   4.221   5.810  16.911  0.0921 -0.2086  0.2576
    7DOPE  H12A  780   4.304   5.884  16.905 -1.7957  1.9431 -0.5234
    7DOPE  H12B  781   4.146   5.839  16.834 -0.3049 -0.3767  0.5787
    7DOPE   C11  782   4.273   5.672  16.865  0.0391  0.4713  0.7238
    7DOPE  H11A  783   4.356   5.641  16.933 -0.6961 -1.6858  0.7346
    7DOPE  H11B  784   4.305   5.675  16.759 -2.3100 -0.0953 -0.0584
    7DOPE     P  785   4.180   5.436  16.803  0.4472  0.2937  0.6414
    7DOPE   O13  786   4.082   5.335  16.857 -0.3130 -0.5719 -0.9761
    7DOPE   O14  787   4.326   5.394  16.814  0.4065 -0.2608 -0.6169
    7DOPE   O11  788   4.141   5.468  16.655 -0.2873 -0.3013 -0.3594
    7DOPE   O12  789   4.169   5.575  16.874 -0.0118  0.2992  0.2317
    7DOPE    C1  790   4.229   5.471  16.544 -0.6182 -0.2834 -0.2834
    7DOPE    HA  791   4.291   5.379  16.540  0.3396  0.3800 -1.0553
    7DOPE    HB  792   4.308   5.545  16.569 -2.6496  1.8208  0.2934
    7DOPE    C2  793   4.166   5.526  16.412 -0.4945  0.1497  0.0857
    7DOPE    HS  794   4.248   5.591  16.373  1.3061 -1.1866  1.4602
    7DOPE   O21  795   4.041   5.593  16.431 -0.2520  0.6615  0.3080
    7DOPE   C21  796   4.052   5.702  16.503 -0.4543 -0.2734 -0.0458
    7DOPE   O22  797   4.149   5.751  16.550 -0.4145  0.4940 -0.0561
    7DOPE   C22  798   3.911   5.764  16.502 -0.6282 -0.2807  0.5517
    7DOPE   H2R  799   3.919   5.863  16.551  0.9728 -0.4515  0.6830
    7DOPE   H2S  800   3.831   5.702  16.546 -1.6806 -0.9756 -2.1484
    7DOPE    C3  801   4.132   5.410  16.307 -0.0781 -0.0640 -0.2646
    7DOPE    HX  802   4.077   5.333  16.366  1.8943 -2.5720 -1.4891
    7DOPE    HY  803   4.223   5.351  16.283  0.5606  0.6535  0.3723
    7DOPE   O31  804   4.061   5.454  16.187  0.5835  0.0654  0.2095
    7DOPE   C31  805   4.140   5.521  16.098  0.4267  0.0442 -0.0904
    7DOPE   O32  806   4.261   5.529  16.106  0.0139  0.2093  0.3695
    7DOPE   C32  807   4.052   5.563  15.982 -0.4324 -1.0597  0.3080
    7DOPE   H2X  808   4.089   5.495  15.902  1.8030  0.9902 -0.5261
    7DOPE   H2Y  809   3.945   5.536  16.000  0.1293 -2.4274  1.8419
    7DOPE   C23  810   3.872   5.803  16.355  0.4079 -0.0904 -0.5704
    7DOPE   H3R  811   3.851   5.706  16.306 -0.3179 -1.4826  2.2629
    7DOPE   H3S  812   3.950   5.856  16.297  2.1971 -1.4596  0.4554
    7DOPE   C24  813   3.742   5.889  16.355 -0.3704 -0.1905 -0.1518
    7DOPE   H4R  814   3.767   5.986  16.403  1.1692 -1.2761  1.3732
    7DOPE   H4S  815   3.685   5.836  16.435  0.2113  1.4817  1.4229
    7DOPE   C25  816   3.662   5.897  16.226 -0.4196  0.5150 -0.6339
    7DOPE   H5R  817   3.706   5.957  16.143 -1.4195 -1.6463 -2.8915
    7DOPE   H5S  818   3.567   5.953  16.244 -0.6304  0.1207 -0.5044
    7DOPE   C26  819   3.619   5.760  16.165  0.0402  0.4576  0.4890
    7DOPE   H6R  820   3.560   5.693  16.232  0.7526 -0.2203  0.4520
    7DOPE   H6S  821   3.704   5.698  16.130  0.6332 -0.0968  2.6965
    7DOPE   C27  822   3.522   5.781  16.045 -0.0534  0.2653 -0.1173
    7DOPE   H7R  823   3.541   5.696  15.977 -0.2039 -1.1075  1.4886
    7DOPE   H7S  824   3.570   5.875  16.012 -0.2682  1.3076  2.3106
    7DOPE   C28  825   3.380   5.789  16.086  0.7068  0.1066 -0.1089
    7DOPE   H8R  826   3.366   5.860  16.171  1.2776  2.6528 -1.9993
    7DOPE   H8S  827   3.337   5.693  16.121  1.9065 -0.0944  0.8642
    7DOPE   C29  828   3.304   5.811  15.959 -0.3722  0.1358 -0.1719
    7DOPE   H9R  829   3.304   5.722  15.895  4.1584  0.1751 -0.5280
    7DOPE  C210  830   3.254   5.921  15.912  0.0069  0.1152  0.9707
    7DOPE  H10R  831   3.193   5.915  15.821  1.8602 -0.2032 -0.2789
    7DOPE  C211  832   3.252   6.057  15.974 -0.0369  0.4989 -0.1118
    7DOPE  H11R  833   3.288   6.051  16.079  0.8801  0.1146 -0.4342
    7DOPE  H11S  834   3.144   6.084  15.974  0.4046  2.4337  0.0473
    7DOPE  C212  835   3.326   6.165  15.901 -0.2717 -0.3069  0.7141
    7DOPE  H12R  836   3.297   6.157  15.794  0.8970 -0.2637  0.3719
    7DOPE  H12S  837   3.435   6.144  15.896 -0.3426 -0.6933  0.7794
    7DOPE  C213  838   3.301   6.308  15.945 -0.4025  0.1207  0.5582
    7DOPE  H13R  839   3.199   6.345  15.921  0.2679  0.7234 -1.4878
    7DOPE  H13S  840   3.370   6.377  15.894  0.3626 -1.1789 -0.2130
    7DOPE  C214  841   3.315   6.328  16.100  0.4875 -0.4665  1.5520
    7DOPE  H14R  842   3.243   6.264  16.155 -2.6101 -0.7178 -2.3716
    7DOPE  H14S  843   3.283   6.432  16.123 -2.8091 -0.6066 -1.5679
    7DOPE  C215  844   3.458   6.311  16.148  0.4281 -0.3741  0.4507
    7DOPE  H15R  845   3.489   6.208  16.122 -0.5442  0.1406 -3.2122
    7DOPE  H15S  846   3.462   6.322  16.259 -0.9978  2.6932  0.3007
    7DOPE  C216  847   3.562   6.406  16.081 -0.5521  0.3365  0.2350
    7DOPE  H16R  848   3.518   6.508  16.084 -0.2345  0.4818 -0.0518
    7DOPE  H16S  849   3.583   6.385  15.974 -0.6871  0.0451  0.2639
    7DOPE  C217  850   3.685   6.424  16.167  0.3373  0.4282 -0.2973
    7DOPE  H17R  851   3.759   6.356  16.120  1.3182  1.6675 -0.5898
    7DOPE  H17S  852   3.675   6.383  16.270 -0.3836 -0.4638 -0.7019
    7DOPE  C218  853   3.755   6.556  16.176  0.0853  0.2267  0.2066
    7DOPE  H18R  854   3.675   6.632  16.194  0.8480  1.1118 -0.0830
    7DOPE  H18S  855   3.810   6.586  16.084 -2.5443  2.1636 -0.8939
    7DOPE  H18T  856   3.839   6.559  16.248 -0.5314 -0.8285  0.9988
    7DOPE   C33  857   4.085   5.704  15.933 -0.1417 -0.0722  0.0125
    7DOPE   H3X  858   4.194   5.723  15.937 -0.1155 -0.2380  0.0756
    7DOPE   H3Y  859   4.050   5.773  16.012 -1.0660 -1.4184  0.8181
    7DOPE   C34  860   4.024   5.740  15.797  0.1083  0.1607  0.6569
    7DOPE   H4X  861   4.059   5.841  15.767  0.3134 -0.4570 -1.3231
    7DOPE   H4Y  862   4.056   5.667  15.719 -0.7744  0.1863  0.2642
    7DOPE   C35  863   3.864   5.750  15.800 -0.5185 -0.3026  0.0080
    7DOPE   H5X  864   3.833   5.808  15.889 -1.9257 -0.8964 -0.0740
    7DOPE   H5Y  865   3.824   5.649  15.823  0.8012 -0.4842  1.7194
    7DOPE   C36  866   3.795   5.807  15.672 -1.7788 -0.8566 -0.0219
    7DOPE   H6X  867   3.841   5.766  15.580  0.2110  0.7540  0.1841
    7DOPE   H6Y  868   3.829   5.913  15.677 -1.7560 -0.6756 -2.6471
    7DOPE   C37  869   3.642   5.812  15.667  0.6245  0.2224 -0.1726
    7DOPE   H7X  870   3.619   5.703  15.662  1.3952  0.0096  0.7041
    7DOPE   H7Y  871   3.601   5.866  15.755  2.2656 -0.4903  1.0760
    7DOPE   C38  872   3.580   5.896  15.560  1.4133 -0.4854  0.2868
    7DOPE   H8X  873   3.620   5.997  15.579  1.4600 -0.7955  1.9565
    7DOPE   H8Y  874   3.471   5.913  15.575  1.3697 -0.2122 -0.3237
    7DOPE   C39  875   3.589   5.846  15.413 -0.5430  0.2277  0.1773
    7DOPE   H9X  876   3.569   5.739  15.402 -0.9651  0.1690  1.3729
    7DOPE  C310  877   3.626   5.924  15.308  0.3322 -0.3160  0.0963
    7DOPE  H10X  878   3.637   5.873  15.211 -0.5471  0.2647 -0.3145
    7DOPE  C311  879   3.664   6.066  15.307  0.0443  1.4234  0.0071
    7DOPE  H11X  880   3.678   6.089  15.200 -1.9626 -1.3988 -1.0040
    7DOPE  H11Y  881   3.574   6.120  15.345 -1.5431 -0.6721 -0.5882
    7DOPE  C312  882   3.779   6.116  15.398  0.0017 -0.1443  0.4400
    7DOPE  H12X  883   3.855   6.035  15.405  0.4096  0.3488  2.4017
    7DOPE  H12Y  884   3.746   6.128  15.503 -1.1913 -0.8067  0.1717
    7DOPE  C313  885   3.846   6.238  15.343 -0.2417  0.1900 -0.0210
    7DOPE  H13X  886   3.921   6.283  15.412 -1.0108  0.6269  0.5445
    7DOPE  H13Y  887   3.891   6.201  15.248 -1.4908  0.8111 -0.8868
    7DOPE  C314  888   3.752   6.354  15.305  0.0533 -0.7152 -0.2539
    7DOPE  H14X  889   3.679   6.373  15.386 -0.0359 -0.1554 -0.4627
    7DOPE  H14Y  890   3.703   6.329  15.208 -0.7177 -1.4870  0.3128
    7DOPE  C315  891   3.825   6.488  15.289  0.2183 -0.2333  0.8072
    7DOPE  H15X  892   3.871   6.526  15.383 -0.3477  0.9617  0.6224
    7DOPE  H15Y  893   3.754   6.563  15.248  1.1618 -0.6059 -1.6366
    7DOPE  C316  894   3.940   6.482  15.183  0.0612 -0.8525  0.4412
    7DOPE  H16X  895   3.896   6.451  15.086  0.9300  2.8685 -1.2894
    7DOPE  H16Y  896   4.027   6.420  15.215  1.1103 -0.7622 -2.0388
    7DOPE  C317  897   3.993   6.620  15.131  0.7154  0.4145  0.2803
    7DOPE  H17X  898   3.995   6.684  15.221  0.9823 -0.0416  0.6016
    7DOPE  H17Y  899   4.098   6.618  15.093 -0.1022  1.5759 -2.2683
    7DOPE  C318  900   3.900   6.683  15.024 -0.3051  0.6803  0.0408
    7DOPE  H18X  901   3.955   6.748  14.952 -3.0718 -0.1200 -3.0635
    7DOPE  H18Y  902   3.848   6.611  14.958  0.5308  0.7221 -0.6959
    7DOPE  H18Z  903   3.811   6.735  15.064 -2.9588 -1.7602 -2.2360
    8DOPE     N  904   4.551   6.111  16.603  0.2590 -0.3311 -0.4689
    8DOPE   HN1  905   4.497   6.193  16.567 -0.2428  0.1920  1.3574
    8DOPE   HN2  906   4.629   6.095  16.537  0.0298 -1.6875 -0.4462
    8DOPE   HN3  907   4.489   6.028  16.613  0.5069 -0.4723 -0.0535
    8DOPE   C12  908   4.607   6.142  16.744 -0.4219  0.3297 -0.4623
    8DOPE  H12A  909   4.521   6.162  16.812 -1.1636  2.2615 -1.8748
    8DOPE  H12B  910   4.661   6.239  16.741 -1.3937  0.9013 -0.1702
    8DOPE   C11  911   4.687   6.029  16.793  0.1549 -0.2066  0.4559
    8DOPE  H11A  912   4.726   6.066  16.890 -0.0145  0.4518  0.2790
    8DOPE  H11B  913   4.776   6.002  16.731 -0.8435 -1.9903 -0.2811
    8DOPE     P  914   4.654   5.793  16.903 -0.0345  0.3195  0.0778
    8DOPE   O13  915   4.565   5.773  17.019 -0.2683  0.7315 -0.0987
    8DOPE   O14  916   4.796   5.804  16.934 -0.1900  0.2224 -0.1077
    8DOPE   O11  917   4.632   5.669  16.804  0.5819 -0.5127  0.3391
    8DOPE   O12  918   4.603   5.914  16.811  0.3355  0.1663  0.0001
    8DOPE    C1  919   4.658   5.682  16.663  0.1169 -0.4952  0.6256
    8DOPE    HA  920   4.733   5.759  16.634 -1.1887 -0.0054 -1.6837
    8DOPE    HB  921   4.566   5.711  16.609  1.3022  0.6918 -0.8397
    8DOPE    C2  922   4.696   5.543  16.595  0.7575  0.3598 -0.1651
    8DOPE    HS  923   4.602   5.483  16.593  0.7859  0.2918  0.3365
    8DOPE   O21  924   4.803   5.485  16.674  0.3617  0.0531 -0.7972
    8DOPE   C21  925   4.798   5.349  16.694 -0.3445 -0.1004 -0.4700
    8DOPE   O22  926   4.704   5.280  16.668 -0.8087 -0.4731 -0.0514
    8DOPE   C22  927   4.927   5.300  16.755 -0.1335  0.6370 -0.0470
    8DOPE   H2R  928   4.913   5.205  16.811 -1.2174  0.6914 -0.1868
    8DOPE   H2S  929   4.968   5.376  16.824  1.7002  1.2863 -1.7673
    8DOPE    C3  930   4.743   5.569  16.448 -0.0574 -0.2730  0.0744
    8DOPE    HX  931   4.774   5.476  16.395 -0.7585  1.0503 -2.8493
    8DOPE    HY  932   4.826   5.643  16.450  0.6992 -1.0982  0.1353
    8DOPE   O31  933   4.633   5.622  16.369 -0.6090 -0.1153  0.1677
    8DOPE   C31  934   4.634   5.747  16.334 -0.7191 -0.3960 -0.1582
    8DOPE   O32  935   4.724   5.825  16.367  0.3715  0.0185  0.5450
    8DOPE   C32  936   4.494   5.769  16.272 -0.0869 -0.5817 -0.0684
    8DOPE   H2X  937   4.471   5.699  16.189  0.4248  1.1680 -1.7659
    8DOPE   H2Y  938   4.428   5.743  16.358 -0.7916  1.2600 -0.0125
    8DOPE   C23  939   5.016   5.272  16.635 -0.3752 -0.3095  0.6618
    8DOPE   H3R  940   4.983   5.188  16.570  1.8597 -1.4795  0.9384
    8DOPE   H3S  941   5.108   5.236  16.686  0.2238  1.6979  1.0753
    8DOPE   C24  942   5.060   5.395  16.554  0.1182  0.0951 -0.5794
    8DOPE   H4R  943   5.068   5.487  16.615  2.5525  0.7289 -1.7533
    8DOPE   H4S  944   4.975   5.408  16.484  0.5000  1.6916 -0.7838
    8DOPE   C25  945   5.182   5.374  16.469  0.6517 -0.3509 -0.3749
    8DOPE   H5R  946   5.174   5.270  16.432  0.0898 -0.2163 -0.6474
    8DOPE   H5S  947   5.274   5.378  16.531  0.3405 -3.3506  0.4285
    8DOPE   C26  948   5.190   5.470  16.345  0.7700  0.0945  0.7337
    8DOPE   H6R  949   5.293   5.471  16.302  1.3309 -1.5781  1.9264
    8DOPE   H6S  950   5.170   5.567  16.394  0.4888  1.0857 -1.2116
    8DOPE   C27  951   5.081   5.447  16.244 -0.2977 -0.2340  0.7175
    8DOPE   H7R  952   4.982   5.475  16.286 -1.4008 -0.0938 -1.7969
    8DOPE   H7S  953   5.085   5.337  16.231 -0.0448 -0.5887  3.2119
    8DOPE   C28  954   5.103   5.533  16.116  0.5778  0.0307 -0.2862
    8DOPE   H8R  955   5.035   5.506  16.033  1.9459  0.6603 -1.6603
    8DOPE   H8S  956   5.206   5.514  16.079  1.4821  2.8162  0.5614
    8DOPE   C29  957   5.098   5.682  16.146 -0.7626  0.8233 -0.4186
    8DOPE   H9R  958   5.164   5.707  16.231  0.1763  1.5910 -1.3399
    8DOPE  C210  959   5.004   5.772  16.112  0.9583 -0.0328  0.0466
    8DOPE  H10R  960   5.020   5.879  16.130 -0.9773  0.0956  1.3198
    8DOPE  C211  961   4.873   5.741  16.034 -0.5085 -0.1045  0.1330
    8DOPE  H11R  962   4.787   5.777  16.096 -0.9413 -2.7490  1.1832
    8DOPE  H11S  963   4.860   5.631  16.039  1.3806 -0.4523 -1.3578
    8DOPE  C212  964   4.882   5.779  15.887  0.6930  0.1725  0.3960
    8DOPE  H12R  965   4.892   5.888  15.870  2.4141  0.0230  0.2507
    8DOPE  H12S  966   4.790   5.746  15.834  0.0326 -1.2171  2.2985
    8DOPE  C213  967   4.993   5.707  15.815  0.1375 -0.3876 -0.0747
    8DOPE  H13R  968   4.997   5.601  15.845  1.6132 -0.0227  1.1240
    8DOPE  H13S  969   5.091   5.756  15.835  1.2815 -2.2159 -0.8883
    8DOPE  C214  970   4.983   5.710  15.659  0.2669  0.2719 -0.2093
    8DOPE  H14R  971   4.977   5.814  15.622 -1.8774  0.5093  0.6996
    8DOPE  H14S  972   4.884   5.669  15.629  0.5131  0.5147 -1.4344
    8DOPE  C215  973   5.099   5.631  15.599 -0.1744  0.4501  0.5392
    8DOPE  H15R  974   5.078   5.638  15.490  2.5808  0.6137 -0.0353
    8DOPE  H15S  975   5.083   5.523  15.622  0.1131  0.6757  1.8286
    8DOPE  C216  976   5.239   5.690  15.638  0.0268 -0.2233 -0.2409
    8DOPE  H16R  977   5.329   5.637  15.600  1.4369  1.6527  0.3134
    8DOPE  H16S  978   5.247   5.694  15.749 -1.3209  0.2402 -0.1478
    8DOPE  C217  979   5.252   5.836  15.594  0.5333  0.2340  0.1262
    8DOPE  H17R  980   5.184   5.898  15.656  1.1916 -0.6253  1.7709
    8DOPE  H17S  981   5.227   5.834  15.486 -1.4567 -0.1571  0.5552
    8DOPE  C218  982   5.388   5.888  15.634  0.0083 -0.6750  0.2959
    8DOPE  H18R  983   5.411   5.993  15.603  1.3398 -0.6078  1.4208
    8DOPE  H18S  984   5.470   5.822  15.600  0.2329 -0.1788 -0.1402
    8DOPE  H18T  985   5.392   5.895  15.745 -1.0401  1.8790  0.2495
    8DOPE   C33  986   4.472   5.922  16.227 -0.1946  0.5484 -0.1583
    8DOPE   H3X  987   4.488   5.997  16.307 -0.9634  0.0850  0.4475
    8DOPE   H3Y  988   4.362   5.929  16.211 -0.1173  1.7222 -0.2159
    8DOPE   C34  989   4.537   5.961  16.100 -0.6468 -0.4460 -0.0780
    8DOPE   H4X  990   4.526   6.067  16.070 -2.1465 -1.3591 -3.0704
    8DOPE   H4Y  991   4.646   5.943  16.090 -0.4768  1.4421 -2.4285
    8DOPE   C35  992   4.482   5.900  15.968 -0.1679 -0.1384 -0.0912
    8DOPE   H5X  993   4.372   5.915  15.962 -0.0464  1.4700  0.9059
    8DOPE   H5Y  994   4.501   5.791  15.972 -2.2907 -0.5953 -1.3813
    8DOPE   C36  995   4.542   5.959  15.835  0.1557  0.4743 -0.0299
    8DOPE   H6X  996   4.645   5.918  15.826 -0.4807 -1.3752  0.5455
    8DOPE   H6Y  997   4.548   6.068  15.856 -0.4380  0.3952  0.6106
    8DOPE   C37  998   4.452   5.919  15.716 -0.2607  0.5012 -0.1940
    8DOPE   H7X  999   4.355   5.971  15.729  0.5183  2.2652 -1.1305
    8DOPE   H7Y 1000   4.484   5.966  15.621 -1.5961  0.7801 -0.5325
    8DOPE   C38 1001   4.440   5.767  15.693  0.1172  0.1751  0.2389
    8DOPE   H8X 1002   4.356   5.747  15.624 -1.4256 -0.1371  2.1092
    8DOPE   H8Y 1003   4.408   5.719  15.788 -2.4412  2.1649  0.4879
    8DOPE   C39 1004   4.566   5.704  15.634 -0.2263  0.1960 -0.1197
    8DOPE   H9X 1005   4.646   5.770  15.598  0.5622 -0.4143  0.4679
    8DOPE  C310 1006   4.600   5.575  15.641 -0.4046  0.2093 -0.3629
    8DOPE  H10X 1007   4.703   5.554  15.609 -0.9378 -1.1800 -1.2218
    8DOPE  C311 1008   4.524   5.463  15.709  0.4922 -0.1653  0.1749
    8DOPE  H11X 1009   4.418   5.487  15.732  0.4033 -0.8432  0.4978
    8DOPE  H11Y 1010   4.524   5.380  15.635  1.0419  1.4319 -1.6988
    8DOPE  C312 1011   4.599   5.397  15.826  0.4544 -0.6862 -0.3630
    8DOPE  H12X 1012   4.702   5.373  15.793  0.1587 -2.2169 -0.2240
    8DOPE  H12Y 1013   4.549   5.299  15.842 -1.6625  0.4076  0.0857
    8DOPE  C313 1014   4.586   5.489  15.949  0.4431  0.0170 -0.0615
    8DOPE  H13X 1015   4.637   5.581  15.912 -1.2100  0.6441 -0.9104
    8DOPE  H13Y 1016   4.479   5.516  15.967  0.1286 -0.8412 -0.5618
    8DOPE  C314 1017   4.644   5.426  16.081 -0.5562 -0.5921  0.1067
    8DOPE  H14X 1018   4.647   5.507  16.157  1.8543 -1.4329  0.9996
    8DOPE  H14Y 1019   4.749   5.399  16.057 -0.3892 -2.3740  2.5345
    8DOPE  C315 1020   4.567   5.303  16.140 -0.2666  1.1994  0.6405
    8DOPE  H15X 1021   4.590   5.220  16.069  1.4272 -2.0290  4.5863
    8DOPE  H15Y 1022   4.462   5.338  16.140 -0.3284  1.1770 -1.4425
    8DOPE  C316 1023   4.603   5.255  16.283  0.3163 -0.1505  0.2044
    8DOPE  H16X 1024   4.577   5.336  16.354 -0.0187 -0.3787  0.3473
    8DOPE  H16Y 1025   4.710   5.226  16.294  0.3275 -0.4703 -0.6570
    8DOPE  C317 1026   4.503   5.147  16.341 -0.2004 -0.0170 -0.6114
    8DOPE  H17X 1027   4.524   5.126  16.448 -1.1395 -0.8030 -0.5693
    8DOPE  H17Y 1028   4.401   5.192  16.339  0.0647  0.5715 -2.3043
    8DOPE  C318 1029   4.488   5.022  16.249 -0.5058 -0.3482 -0.1521
    8DOPE  H18X 1030   4.442   5.053  16.153  1.5378  2.9829 -0.2329
    8DOPE  H18Y 1031   4.435   4.942  16.304 -0.4408 -1.5493 -1.7582
    8DOPE  H18Z 1032   4.591   4.983  16.231  0.6267  1.8920  0.9696
    9DOPE     N 1033   1.223   4.052  17.349 -0.0818 -0.0338 -0.1038
    9DOPE   HN1 1034   1.172   3.963  17.331 -2.4086  1.2367 -0.2442
    9DOPE   HN2 1035   1.307   4.019  17.298  0.3583  1.2331 -0.2138
    9DOPE   HN3 1036   1.243   4.056  17.451  0.6040 -1.3084 -0.1665
    9DOPE   C12 1037   1.167   4.179  17.291  0.2506  0.0016  0.3259
    9DOPE  H12A 1038   1.136   4.245  17.375  2.5667  1.4890  0.1094
    9DOPE  H12B 1039   1.082   4.151  17.225  0.6910 -1.3222  0.3078
    9DOPE   C11 1040   1.270   4.258  17.210 -0.0628 -0.1997 -0.0374
    9DOPE  H11A 1041   1.355   4.287  17.275 -0.8814 -1.9446  1.9343
    9DOPE  H11B 1042   1.220   4.353  17.180 -2.8164 -1.5450 -0.0783
    9DOPE     P 1043   1.425   4.086  17.076  0.0549 -0.1519  0.1768
    9DOPE   O13 1044   1.418   4.024  16.944  0.2846  0.2928 -0.0329
    9DOPE   O14 1045   1.419   3.992  17.189 -0.0492  0.6718 -0.0668
    9DOPE   O11 1046   1.564   4.162  17.076 -0.2255 -0.6224  1.2802
    9DOPE   O12 1047   1.309   4.193  17.090  0.2841  0.3639  0.4879
    9DOPE    C1 1048   1.580   4.296  17.026  0.2207  0.0441 -0.0168
    9DOPE    HA 1049   1.676   4.341  17.058 -0.5340  1.1468  0.7517
    9DOPE    HB 1050   1.500   4.365  17.060  1.5604  1.6108  0.0773
    9DOPE    C2 1051   1.592   4.307  16.872  0.5897  0.1624 -0.3283
    9DOPE    HS 1052   1.632   4.406  16.839 -2.6045  1.9724  0.8407
    9DOPE   O21 1053   1.466   4.271  16.813 -0.4276 -0.1616 -0.7496
    9DOPE   C21 1054   1.361   4.348  16.835 -0.8749  0.0819  0.1139
    9DOPE   O22 1055   1.358   4.458  16.884  0.1384 -0.3214 -0.3531
    9DOPE   C22 1056   1.231   4.277  16.793 -0.4962 -0.1204  0.2921
    9DOPE   H2R 1057   1.163   4.362  16.772 -0.2470  0.7200  2.5612
    9DOPE   H2S 1058   1.194   4.233  16.888  1.1097 -0.8055  0.6357
    9DOPE    C3 1059   1.696   4.204  16.812 -0.6408 -1.5339 -0.3148
    9DOPE    HX 1060   1.665   4.097  16.821 -1.1678 -1.2321  2.3455
    9DOPE    HY 1061   1.786   4.218  16.876 -2.3267  3.4675  1.3969
    9DOPE   O31 1062   1.727   4.250  16.676 -0.5675 -0.1792 -0.0971
    9DOPE   C31 1063   1.688   4.182  16.572  0.0366 -0.4464 -0.3261
    9DOPE   O32 1064   1.616   4.085  16.572  0.3459 -0.1497 -0.4358
    9DOPE   C32 1065   1.756   4.255  16.448 -0.0848  0.4266  0.2173
    9DOPE   H2X 1066   1.769   4.362  16.475 -0.5310  0.6149 -0.3121
    9DOPE   H2Y 1067   1.853   4.204  16.432  0.0912  0.9952 -0.5976
    9DOPE   C23 1068   1.232   4.170  16.677  0.1054 -0.1280  0.3938
    9DOPE   H3R 1069   1.127   4.138  16.664  0.2772 -1.4483  1.8934
    9DOPE   H3S 1070   1.294   4.090  16.724 -0.1057  0.3222  1.4452
    9DOPE   C24 1071   1.295   4.207  16.544 -0.4803 -0.8582  0.1965
    9DOPE   H4R 1072   1.290   4.124  16.471 -0.2583 -0.3953 -0.3450
    9DOPE   H4S 1073   1.403   4.225  16.559 -0.1580 -0.6864 -2.1066
    9DOPE   C25 1074   1.223   4.326  16.494 -0.2231 -0.2281  0.4520
    9DOPE   H5R 1075   1.224   4.417  16.558  1.6401 -0.4596  0.8078
    9DOPE   H5S 1076   1.117   4.298  16.479 -0.8984  2.4676 -0.3269
    9DOPE   C26 1077   1.272   4.355  16.352 -0.0549 -0.0366  0.5151
    9DOPE   H6R 1078   1.262   4.262  16.292  0.0318 -1.1568  2.1553
    9DOPE   H6S 1079   1.379   4.382  16.364  0.4007 -1.7367  0.5788
    9DOPE   C27 1080   1.206   4.480  16.293 -0.1163  0.2648  0.1541
    9DOPE   H7R 1081   1.216   4.571  16.356  1.2047  0.0393  0.2943
    9DOPE   H7S 1082   1.096   4.468  16.283 -0.1453  0.9453 -0.4209
    9DOPE   C28 1083   1.272   4.515  16.160  0.4350  0.6081 -0.2117
    9DOPE   H8R 1084   1.378   4.546  16.168  0.8595 -0.7073 -0.3786
    9DOPE   H8S 1085   1.221   4.606  16.123  0.7076  0.7906 -0.1428
    9DOPE   C29 1086   1.240   4.416  16.048  0.4476  0.3576 -0.0712
    9DOPE   H9R 1087   1.155   4.347  16.059 -2.2947  3.1749 -1.6648
    9DOPE  C210 1088   1.314   4.405  15.935  0.0738 -0.1530  0.8917
    9DOPE  H10R 1089   1.285   4.346  15.847 -0.6566  2.0579 -0.4210
    9DOPE  C211 1090   1.438   4.487  15.900  0.2003  0.6636  0.5729
    9DOPE  H11R 1091   1.532   4.430  15.887  1.5686  1.9871  3.5605
    9DOPE  H11S 1092   1.463   4.555  15.985  1.2661  0.5678  0.3459
    9DOPE  C212 1093   1.415   4.578  15.779 -0.4080  0.0280 -0.1115
    9DOPE  H12R 1094   1.496   4.655  15.778  0.1605 -0.5723 -1.4654
    9DOPE  H12S 1095   1.328   4.647  15.776 -0.6202 -0.2763 -1.6413
    9DOPE  C213 1096   1.416   4.507  15.645 -0.3706  0.2534  0.2174
    9DOPE  H13R 1097   1.352   4.417  15.653 -0.8136  0.3605 -1.5940
    9DOPE  H13S 1098   1.523   4.486  15.623  0.2193  2.9676  0.1096
    9DOPE  C214 1099   1.377   4.605  15.541 -0.0453 -0.2357  0.1587
    9DOPE  H14R 1100   1.444   4.693  15.532 -2.1659  1.4387 -0.0051
    9DOPE  H14S 1101   1.285   4.658  15.571 -0.0520 -2.0042  3.6949
    9DOPE  C215 1102   1.353   4.544  15.400 -0.6815 -0.4113 -0.3181
    9DOPE  H15R 1103   1.278   4.464  15.418  0.6513 -0.9633  4.1505
    9DOPE  H15S 1104   1.447   4.492  15.370  0.6123  1.0048  1.0400
    9DOPE  C216 1105   1.309   4.645  15.291  0.2514  0.3148  0.1862
    9DOPE  H16R 1106   1.401   4.705  15.273 -0.3135  1.1487  0.0579
    9DOPE  H16S 1107   1.227   4.708  15.332 -0.0115  0.0130  0.1251
    9DOPE  C217 1108   1.242   4.584  15.165 -0.2987  0.1120 -0.3811
    9DOPE  H17R 1109   1.298   4.488  15.157  2.0723  1.2698  1.2094
    9DOPE  H17S 1110   1.260   4.641  15.072  0.6181 -0.1243 -0.3578
    9DOPE  C218 1111   1.093   4.553  15.170  0.1235 -0.6756  0.3835
    9DOPE  H18R 1112   1.070   4.475  15.094 -2.8599 -0.8480  1.3420
    9DOPE  H18S 1113   1.017   4.632  15.153  0.6926 -0.0463  0.7255
    9DOPE  H18T 1114   1.065   4.500  15.264 -1.6621  0.0450  0.2841
    9DOPE   C33 1115   1.676   4.247  16.316  0.3903  0.0639 -0.6861
    9DOPE   H3X 1116   1.719   4.319  16.243  2.9355  0.7113  1.3196
    9DOPE   H3Y 1117   1.570   4.273  16.336  0.8697  0.9548  0.8104
    9DOPE   C34 1118   1.686   4.113  16.246  0.3313 -0.4313 -0.0233
    9DOPE   H4X 1119   1.753   4.116  16.157  1.4715 -1.9169  0.7277
    9DOPE   H4Y 1120   1.723   4.038  16.319  1.6262 -0.8194 -1.0369
    9DOPE   C35 1121   1.546   4.045  16.203 -0.1475 -0.4869  0.1485
    9DOPE   H5X 1122   1.486   4.112  16.139  0.3392 -2.0844 -2.0892
    9DOPE   H5Y 1123   1.487   4.032  16.297 -0.5716 -0.1312 -0.0658
    9DOPE   C36 1124   1.576   3.924  16.118  0.1687  0.4914 -0.2976
    9DOPE   H6X 1125   1.631   3.851  16.181  2.1051  0.8485 -1.4893
    9DOPE   H6Y 1126   1.649   3.959  16.042  3.3978  0.8000  2.7137
    9DOPE   C37 1127   1.446   3.862  16.060  0.2101  0.0137  0.6191
    9DOPE   H7X 1128   1.413   3.777  16.123  1.3941  1.1124  2.8425
    9DOPE   H7Y 1129   1.367   3.939  16.051 -0.7238 -1.1501 -4.6420
    9DOPE   C38 1130   1.457   3.813  15.917  0.1293  0.8607  0.0872
    9DOPE   H8X 1131   1.474   3.703  15.920 -2.2885  0.2772 -2.8462
    9DOPE   H8Y 1132   1.541   3.875  15.877 -0.0434  0.7195 -0.4992
    9DOPE   C39 1133   1.337   3.828  15.834 -0.1943 -0.1996  0.4219
    9DOPE   H9X 1134   1.263   3.747  15.835  0.5725 -0.9139 -0.0507
    9DOPE  C310 1135   1.306   3.932  15.747 -0.0530  0.1823 -0.8330
    9DOPE  H10X 1136   1.211   3.915  15.695 -1.3890  2.0045  0.8253
    9DOPE  C311 1137   1.386   4.063  15.726 -0.6673  0.7124 -0.0686
    9DOPE  H11X 1138   1.323   4.144  15.768 -2.3783  0.9684 -2.8607
    9DOPE  H11Y 1139   1.483   4.057  15.780 -1.0824 -1.9944  0.4951
    9DOPE  C312 1140   1.426   4.102  15.584 -0.2640  0.1085  0.6676
    9DOPE  H12X 1141   1.442   4.210  15.568 -1.8168  0.0383 -1.9292
    9DOPE  H12Y 1142   1.341   4.063  15.523  0.2185  1.7250 -1.1157
    9DOPE  C313 1143   1.548   4.027  15.528  0.6818  0.5352  0.5679
    9DOPE  H13X 1144   1.647   4.062  15.564 -0.7833  3.4112  2.2204
    9DOPE  H13Y 1145   1.544   3.919  15.551  2.1459  0.7717  2.0781
    9DOPE  C314 1146   1.548   4.026  15.375 -0.3731 -0.3864  0.3024
    9DOPE  H14X 1147   1.459   3.990  15.320  0.5397 -0.6477 -1.0530
    9DOPE  H14Y 1148   1.628   3.957  15.341  0.5301  1.3475 -1.2758
    9DOPE  C315 1149   1.566   4.167  15.319 -0.1836  0.0737  0.6468
    9DOPE  H15X 1150   1.664   4.204  15.355  1.4016 -4.2992  1.4230
    9DOPE  H15Y 1151   1.487   4.229  15.367  1.6567  2.5781  0.6769
    9DOPE  C316 1152   1.545   4.165  15.164 -0.4582  0.4115 -0.3532
    9DOPE  H16X 1153   1.602   4.081  15.119  1.1158 -0.1160  2.3971
    9DOPE  H16Y 1154   1.568   4.264  15.119 -0.9144  1.1836  1.0504
    9DOPE  C317 1155   1.393   4.141  15.134 -0.0299  0.1185 -0.6611
    9DOPE  H17X 1156   1.374   4.032  15.146 -0.1979  0.0231 -1.6978
    9DOPE  H17Y 1157   1.328   4.187  15.212  2.6641  0.2287  1.7151
    9DOPE  C318 1158   1.366   4.181  14.993  0.5421  0.2027 -0.1556
    9DOPE  H18X 1159   1.438   4.158  14.912 -0.5180  1.1027 -1.3906
    9DOPE  H18Y 1160   1.272   4.137  14.955  1.0883 -1.8567  0.7720
    9DOPE  H18Z 1161   1.362   4.292  14.985  0.3099  0.2336  0.3502
   10DOPE     N 1162   0.871   6.436  16.888 -0.3478 -0.2831  0.2445
   10DOPE   HN1 1163   0.834   6.533  16.879  0.8567  0.2306  0.6140
   10DOPE   HN2 1164   0.890   6.406  16.790 -1.8375 -0.4002 -0.0245
   10DOPE   HN3 1165   0.799   6.380  16.937  0.6968  0.3888  2.6993
   10DOPE   C12 1166   0.999   6.428  16.971 -0.2759  0.0095 -0.2680
   10DOPE  H12A 1167   1.025   6.530  17.007  0.8648 -0.5182  0.4447
   10DOPE  H12B 1168   1.069   6.381  16.898 -0.5269  0.1605 -0.6109
   10DOPE   C11 1169   0.987   6.321  17.086 -0.5409 -0.2377 -0.0112
   10DOPE  H11A 1170   0.913   6.349  17.164 -0.3567 -0.9979  0.4421
   10DOPE  H11B 1171   1.078   6.305  17.148 -1.0614 -1.6626  0.4118
   10DOPE     P 1172   1.018   6.067  17.022 -0.8660  0.2747  0.2141
   10DOPE   O13 1173   0.925   5.971  16.969  0.1335  0.7301  0.2462
   10DOPE   O14 1174   1.077   6.030  17.152  0.2997  0.2987 -0.3855
   10DOPE   O11 1175   1.133   6.102  16.915  0.2327  0.3591  0.3369
   10DOPE   O12 1176   0.942   6.201  17.032  0.0136 -0.0542  0.3629
   10DOPE    C1 1177   1.126   6.066  16.780 -0.8949 -0.2106 -0.8904
   10DOPE    HA 1178   1.052   6.122  16.718 -0.6209  1.2375  0.0297
   10DOPE    HB 1179   1.087   5.962  16.777 -1.3660 -0.0280 -1.3272
   10DOPE    C2 1180   1.268   6.088  16.710 -0.2772 -0.2198  0.0468
   10DOPE    HS 1181   1.281   6.010  16.632  0.2347 -0.4002  0.3086
   10DOPE   O21 1182   1.376   6.089  16.805  0.0422  0.0811  0.4488
   10DOPE   C21 1183   1.408   5.964  16.838 -0.5374 -0.1275  0.6259
   10DOPE   O22 1184   1.349   5.864  16.810  0.1007  0.2373  0.4598
   10DOPE   C22 1185   1.551   5.954  16.905  1.0886  0.0396  0.2581
   10DOPE   H2R 1186   1.540   5.944  17.015  1.6479 -4.7108  0.0780
   10DOPE   H2S 1187   1.604   6.050  16.881 -0.1756  1.2289  2.0378
   10DOPE    C3 1188   1.285   6.223  16.632 -0.0255  0.1623  0.1414
   10DOPE    HX 1189   1.380   6.232  16.575 -0.2086 -2.9459 -0.8555
   10DOPE    HY 1190   1.278   6.309  16.701 -0.9826  0.1962  0.0110
   10DOPE   O31 1191   1.181   6.226  16.532  0.0758  0.3669 -0.0582
   10DOPE   C31 1192   1.177   6.333  16.454 -0.3935  0.0810 -0.1867
   10DOPE   O32 1193   1.256   6.431  16.465 -1.2469 -0.0932  1.0438
   10DOPE   C32 1194   1.079   6.308  16.345  0.0753  0.0075 -0.6393
   10DOPE   H2X 1195   0.975   6.295  16.382  0.2262  2.4784  0.7969
   10DOPE   H2Y 1196   1.079   6.396  16.277  1.7283 -0.0419 -0.7250
   10DOPE   C23 1197   1.635   5.829  16.857  0.0944 -0.9557 -0.1799
   10DOPE   H3R 1198   1.658   5.825  16.748  1.7439  0.4857  0.0824
   10DOPE   H3S 1199   1.571   5.746  16.895 -0.0048 -1.1671 -0.7885
   10DOPE   C24 1200   1.770   5.813  16.947  0.7785 -0.5223  0.0130
   10DOPE   H4R 1201   1.738   5.808  17.053  0.4695  2.6364  0.1677
   10DOPE   H4S 1202   1.821   5.910  16.932 -0.8351 -0.0383 -3.1660
   10DOPE   C25 1203   1.857   5.687  16.913  0.3658  0.5377 -0.0640
   10DOPE   H5R 1204   1.797   5.594  16.923  0.2039  0.7205  0.7167
   10DOPE   H5S 1205   1.936   5.679  16.990 -1.2197  1.5067  1.7583
   10DOPE   C26 1206   1.921   5.704  16.776  0.3568  0.0608 -0.3492
   10DOPE   H6R 1207   2.028   5.734  16.780  1.2896 -2.4069 -2.9546
   10DOPE   H6S 1208   1.864   5.785  16.726  0.0775 -0.7189 -1.3269
   10DOPE   C27 1209   1.911   5.576  16.696  0.2412 -0.7378 -0.4204
   10DOPE   H7R 1210   1.806   5.542  16.691  0.0296 -0.3239  0.8148
   10DOPE   H7S 1211   1.955   5.496  16.759  0.5746  0.9304  1.6058
   10DOPE   C28 1212   1.967   5.578  16.563  0.4885  0.1807 -0.3382
   10DOPE   H8R 1213   2.066   5.629  16.564 -0.1996  1.5528 -0.7970
   10DOPE   H8S 1214   1.897   5.643  16.507  0.1155  0.6325  0.6405
   10DOPE   C29 1215   1.988   5.447  16.501  0.3169  0.3310 -0.1211
   10DOPE   H9R 1216   2.004   5.368  16.575 -0.3643  2.0370  1.9361
   10DOPE  C210 1217   2.005   5.432  16.370  0.2625 -0.0464 -0.3019
   10DOPE  H10R 1218   2.019   5.329  16.333  1.4523 -0.2971  0.7975
   10DOPE  C211 1219   1.993   5.549  16.269 -0.1544  0.3603 -0.2026
   10DOPE  H11R 1220   2.060   5.628  16.307  1.7260 -1.5622  0.6934
   10DOPE  H11S 1221   1.896   5.601  16.284 -0.4870 -0.2453 -0.2342
   10DOPE  C212 1222   2.020   5.500  16.124 -0.2219 -0.0676  0.0685
   10DOPE  H12R 1223   1.948   5.419  16.101  0.8324 -0.9601 -0.1412
   10DOPE  H12S 1224   2.120   5.453  16.126 -0.0639  0.1208  3.6621
   10DOPE  C213 1225   2.024   5.606  16.010  0.5633 -0.1059  0.1517
   10DOPE  H13R 1226   2.112   5.671  16.032  1.3411 -1.2874  0.6709
   10DOPE  H13S 1227   1.931   5.666  16.006 -0.2531 -1.4351 -1.6681
   10DOPE  C214 1228   2.038   5.544  15.873 -0.2733 -0.6788  0.4309
   10DOPE  H14R 1229   2.120   5.469  15.872 -1.7459 -2.3786 -0.5200
   10DOPE  H14S 1230   2.049   5.616  15.790 -1.9353  0.5830  1.2488
   10DOPE  C215 1231   1.907   5.468  15.838 -0.1137  0.4216 -0.6134
   10DOPE  H15R 1232   1.819   5.533  15.862  0.5861 -0.0762  4.5003
   10DOPE  H15S 1233   1.897   5.380  15.904 -0.8534  1.2559  0.4281
   10DOPE  C216 1234   1.906   5.431  15.690 -0.2908 -0.0960  0.1448
   10DOPE  H16R 1235   1.968   5.339  15.676  0.0605  0.2068 -0.3104
   10DOPE  H16S 1236   1.952   5.518  15.638 -1.3168  0.0699 -0.5133
   10DOPE  C217 1237   1.765   5.404  15.629 -0.6590  0.1470  0.0219
   10DOPE  H17R 1238   1.700   5.493  15.634  1.3414  1.6123  1.5258
   10DOPE  H17S 1239   1.715   5.334  15.700 -1.9021  1.5754  0.6034
   10DOPE  C218 1240   1.768   5.350  15.485 -0.4190  0.3532  0.2749
   10DOPE  H18R 1241   1.781   5.240  15.485  0.5756  0.4590 -0.0134
   10DOPE  H18S 1242   1.852   5.405  15.437  0.2361 -0.8963 -0.0582
   10DOPE  H18T 1243   1.673   5.383  15.437 -0.7828 -0.2100  0.5996
   10DOPE   C33 1244   1.102   6.177  16.259  0.3116  0.8944 -0.3962
   10DOPE   H3X 1245   1.005   6.137  16.222  1.5258  1.0844 -4.2937
   10DOPE   H3Y 1246   1.144   6.100  16.327  0.0947 -0.3959 -1.6606
   10DOPE   C34 1247   1.179   6.209  16.132  0.1589  0.6102  0.2033
   10DOPE   H4X 1248   1.116   6.287  16.084  1.2730  2.5959  1.7818
   10DOPE   H4Y 1249   1.272   6.265  16.158  0.9535  0.8597 -2.8303
   10DOPE   C35 1250   1.201   6.096  16.034 -0.0996  0.3285  0.1193
   10DOPE   H5X 1251   1.112   6.030  16.036  0.3731 -0.4292 -1.8275
   10DOPE   H5Y 1252   1.287   6.035  16.067 -0.8131 -0.0769  1.2895
   10DOPE   C36 1253   1.210   6.139  15.898  0.9621 -0.0768 -0.7829
   10DOPE   H6X 1254   1.300   6.204  15.897  1.4711 -0.7731 -1.1645
   10DOPE   H6Y 1255   1.131   6.214  15.876  1.7811  1.0772  0.0759
   10DOPE   C37 1256   1.224   6.027  15.793 -0.6373 -0.2593  0.3708
   10DOPE   H7X 1257   1.295   6.071  15.719 -2.1656  2.1701  0.1927
   10DOPE   H7Y 1258   1.278   5.950  15.850 -1.2591 -0.0452  1.2651
   10DOPE   C38 1259   1.099   5.980  15.719 -0.5051  0.6932 -0.1530
   10DOPE   H8X 1260   1.073   6.062  15.649  0.4108  0.5276 -0.7062
   10DOPE   H8Y 1261   1.022   5.946  15.791  1.6734 -0.9929  1.5339
   10DOPE   C39 1262   1.147   5.868  15.625  0.0536  0.4192  0.2339
   10DOPE   H9X 1263   1.227   5.900  15.556  0.3735 -2.7386 -1.0065
   10DOPE  C310 1264   1.094   5.747  15.619  0.4564 -0.2928  0.3476
   10DOPE  H10X 1265   1.140   5.675  15.550 -0.6346  0.1920 -0.9266
   10DOPE  C311 1266   0.977   5.689  15.690 -0.0469 -0.8030 -0.7019
   10DOPE  H11X 1267   0.914   5.772  15.727  1.9915  1.2398 -1.5397
   10DOPE  H11Y 1268   0.922   5.635  15.610 -1.7409 -2.5436  1.5012
   10DOPE  C312 1269   1.003   5.590  15.804  0.0953  0.0269  0.3164
   10DOPE  H12X 1270   1.067   5.501  15.785 -0.0046 -0.0946  0.5471
   10DOPE  H12Y 1271   0.906   5.538  15.819 -0.4226  0.6938 -0.5958
   10DOPE  C313 1272   1.045   5.664  15.939 -0.4113 -0.3269 -0.0285
   10DOPE  H13X 1273   1.137   5.720  15.913  0.0246 -0.7101  0.6542
   10DOPE  H13Y 1274   0.968   5.737  15.972 -1.7171 -0.3129 -2.8334
   10DOPE  C314 1275   1.073   5.558  16.051 -0.0359 -0.0284 -0.3172
   10DOPE  H14X 1276   1.176   5.518  16.043  0.1085  0.1210  0.6821
   10DOPE  H14Y 1277   0.995   5.480  16.045  0.6654 -0.6812 -1.1700
   10DOPE  C315 1278   1.061   5.617  16.192 -0.4791 -0.2069  0.2455
   10DOPE  H15X 1279   1.073   5.536  16.267 -0.8598 -1.2794 -0.7972
   10DOPE  H15Y 1280   0.961   5.663  16.209 -1.1563 -0.9214 -1.5110
   10DOPE  C316 1281   1.162   5.730  16.221 -0.0802  0.0868  0.0816
   10DOPE  H16X 1282   1.159   5.806  16.140 -0.3901 -2.7150 -2.7220
   10DOPE  H16Y 1283   1.265   5.689  16.216 -0.4065 -0.7130 -0.1044
   10DOPE  C317 1284   1.153   5.802  16.353  0.3039 -0.1255 -0.0879
   10DOPE  H17X 1285   1.197   5.741  16.435  1.5304  2.4436  1.2786
   10DOPE  H17Y 1286   1.220   5.890  16.345 -0.4265  0.5304  0.7358
   10DOPE  C318 1287   1.015   5.841  16.401 -0.4041  0.3382 -0.0908
   10DOPE  H18X 1288   0.955   5.747  16.410  2.2605 -1.2684  3.4365
   10DOPE  H18Y 1289   1.022   5.884  16.504 -1.3928 -2.7858  1.4123
   10DOPE  H18Z 1290   0.966   5.914  16.333 -1.7776  0.9691  1.5024
   11DOPE     N 1291   1.235   2.472  16.789 -0.2353  0.5350 -0.2273
   11DOPE   HN1 1292   1.331   2.479  16.751 -0.1744 -2.2851 -0.8173
   11DOPE   HN2 1293   1.211   2.558  16.843 -0.6044  0.0954  0.3283
   11DOPE   HN3 1294   1.230   2.389  16.852 -0.0535  0.7348  0.0532
   11DOPE   C12 1295   1.146   2.463  16.672  0.0631  0.1100 -0.0867
   11DOPE  H12A 1296   1.178   2.387  16.598  2.5191  1.1841 -0.2326
   11DOPE  H12B 1297   1.150   2.557  16.613 -0.2834  0.9681  1.2044
   11DOPE   C11 1298   1.004   2.432  16.709 -0.3997  0.7440  0.3895
   11DOPE  H11A 1299   1.005   2.340  16.771 -1.4627 -0.4643 -1.2785
   11DOPE  H11B 1300   0.960   2.405  16.610 -0.6241  3.7083 -0.4165
   11DOPE     P 1301   0.775   2.546  16.778  0.0179 -0.1542 -0.7801
   11DOPE   O13 1302   0.752   2.637  16.894  0.6139  0.3472 -0.0232
   11DOPE   O14 1303   0.720   2.405  16.797  0.4186 -0.1371 -0.1738
   11DOPE   O11 1304   0.738   2.610  16.638 -0.3229 -0.3620 -0.2182
   11DOPE   O12 1305   0.936   2.539  16.757  0.4288 -0.7345  0.3222
   11DOPE    C1 1306   0.765   2.751  16.621 -0.1195  0.7749 -0.4363
   11DOPE    HA 1307   0.859   2.783  16.670 -0.1336  0.0553  0.0828
   11DOPE    HB 1308   0.680   2.812  16.660 -1.4252 -0.7700 -0.7405
   11DOPE    C2 1309   0.780   2.772  16.466  0.3576  0.1824  0.2097
   11DOPE    HS 1310   0.785   2.880  16.441  0.8923  0.3492  1.0058
   11DOPE   O21 1311   0.674   2.701  16.395 -0.2280 -0.4297  0.4476
   11DOPE   C21 1312   0.552   2.757  16.405  0.1818 -0.2862 -0.3430
   11DOPE   O22 1313   0.526   2.862  16.460  0.0125  0.1439 -0.2967
   11DOPE   C22 1314   0.447   2.670  16.342 -0.0895 -0.4596  0.2468
   11DOPE   H2R 1315   0.344   2.698  16.373  0.2187  1.0774 -0.0616
   11DOPE   H2S 1316   0.462   2.566  16.377  0.1726 -0.2746  0.6913
   11DOPE    C3 1317   0.912   2.712  16.422  0.4035  0.2442 -0.2307
   11DOPE    HX 1318   0.937   2.619  16.478 -1.3661  0.1949  0.5396
   11DOPE    HY 1319   0.995   2.781  16.450  2.0115 -0.8085 -2.1046
   11DOPE   O31 1320   0.913   2.687  16.279 -0.4025 -0.0757 -0.1118
   11DOPE   C31 1321   0.887   2.558  16.244  0.5766  0.5736 -0.1476
   11DOPE   O32 1322   0.903   2.462  16.320 -0.7496 -0.6378 -0.4082
   11DOPE   C32 1323   0.840   2.542  16.096  0.0603  0.2637  0.0689
   11DOPE   H2X 1324   0.753   2.473  16.106  0.5326 -0.3656 -0.0763
   11DOPE   H2Y 1325   0.805   2.640  16.059 -0.4512  0.4515  1.0240
   11DOPE   C23 1326   0.459   2.667  16.183 -0.2182 -0.3965 -0.5219
   11DOPE   H3R 1327   0.424   2.571  16.139 -0.1597  0.2804 -2.1109
   11DOPE   H3S 1328   0.568   2.655  16.166  0.5950  1.3758  2.6561
   11DOPE   C24 1329   0.399   2.782  16.106 -0.5644 -0.0970  0.2517
   11DOPE   H4R 1330   0.471   2.866  16.099 -0.1567  0.0095  4.0577
   11DOPE   H4S 1331   0.311   2.819  16.161 -0.5111  0.8860 -0.3063
   11DOPE   C25 1332   0.362   2.729  15.963  0.3718 -0.1319 -0.6642
   11DOPE   H5R 1333   0.280   2.653  15.965  1.0397 -0.8851 -1.3481
   11DOPE   H5S 1334   0.452   2.680  15.922  0.7641 -0.7044  0.8388
   11DOPE   C26 1335   0.304   2.833  15.857 -0.0466  0.0807  0.0011
   11DOPE   H6R 1336   0.199   2.855  15.886  0.2340  0.2052  0.9641
   11DOPE   H6S 1337   0.304   2.796  15.752 -2.6241  1.4101 -0.5638
   11DOPE   C27 1338   0.374   2.965  15.857  0.7702  0.2441 -0.7291
   11DOPE   H7R 1339   0.481   2.955  15.827  0.2121 -0.7367 -2.5443
   11DOPE   H7S 1340   0.366   3.011  15.958  0.2794 -1.5521  0.0804
   11DOPE   C28 1341   0.315   3.072  15.763  0.1778  0.3342 -0.0636
   11DOPE   H8R 1342   0.373   3.166  15.779 -0.8902  1.3432 -1.7504
   11DOPE   H8S 1343   0.208   3.079  15.790 -0.1493 -0.3431 -1.1022
   11DOPE   C29 1344   0.323   3.028  15.617  0.1713  0.3402  0.3281
   11DOPE   H9R 1345   0.426   3.010  15.582 -0.2766 -0.3277 -0.6968
   11DOPE  C210 1346   0.225   2.990  15.532  0.1727 -0.2614  0.1237
   11DOPE  H10R 1347   0.247   2.978  15.424 -2.5747  1.6311 -0.7550
   11DOPE  C211 1348   0.077   2.973  15.560  0.0095  0.0187  0.4262
   11DOPE  H11R 1349   0.059   2.937  15.664 -0.5664 -0.3932  0.1846
   11DOPE  H11S 1350   0.042   2.882  15.507  0.4624 -1.8709  3.1625
   11DOPE  C212 1351  -0.016   3.088  15.516  0.6103 -0.1390 -0.2221
   11DOPE  H12R 1352  -0.120   3.047  15.518  0.0780  1.1667  0.9474
   11DOPE  H12S 1353   0.016   3.119  15.415 -0.4896  1.2831 -0.1628
   11DOPE  C213 1354  -0.007   3.210  15.608 -0.1880  0.3517 -0.5218
   11DOPE  H13R 1355   0.092   3.256  15.587 -0.5750  0.2882 -2.7173
   11DOPE  H13S 1356  -0.011   3.169  15.712  1.4960  0.4406 -0.4080
   11DOPE  C214 1357  -0.132   3.299  15.585  0.4646 -0.4184 -0.6969
   11DOPE  H14R 1358  -0.223   3.247  15.622  1.7120 -0.2340  3.0626
   11DOPE  H14S 1359  -0.137   3.333  15.480  1.0527  0.0773 -0.5677
   11DOPE  C215 1360  -0.130   3.425  15.673  0.3778 -0.0537 -0.2655
   11DOPE  H15R 1361  -0.054   3.497  15.638  2.3147 -0.4827  2.6526
   11DOPE  H15S 1362  -0.092   3.401  15.775 -0.3731  0.8744  0.2432
   11DOPE  C216 1363  -0.272   3.474  15.701 -0.1042  0.0253 -0.0155
   11DOPE  H16R 1364  -0.333   3.395  15.748 -1.0300 -0.0336 -1.2838
   11DOPE  H16S 1365  -0.322   3.496  15.605  1.0427  0.8991 -0.4324
   11DOPE  C217 1366  -0.259   3.602  15.784 -0.1460 -0.0019  0.3323
   11DOPE  H17R 1367  -0.340   3.676  15.768  2.2298  2.8861  0.7020
   11DOPE  H17S 1368  -0.169   3.646  15.736  0.4601 -1.0995  0.4401
   11DOPE  C218 1369  -0.234   3.592  15.930  0.6593  0.1555  0.5194
   11DOPE  H18R 1370  -0.324   3.578  15.995  0.4757 -0.9869  0.0367
   11DOPE  H18S 1371  -0.194   3.690  15.964 -1.3350  1.0012  0.5721
   11DOPE  H18T 1372  -0.157   3.519  15.962  1.3271  0.5277 -0.2145
   11DOPE   C33 1373   0.965   2.483  16.024 -0.8256  0.4618 -0.4317
   11DOPE   H3X 1374   1.016   2.404  16.082 -3.3086 -0.7379  0.2621
   11DOPE   H3Y 1375   1.038   2.567  16.018  1.0120 -1.1623 -1.9152
   11DOPE   C34 1376   0.936   2.449  15.880 -0.9158  0.0013 -0.1923
   11DOPE   H4X 1377   1.030   2.446  15.822  0.5958  2.1630  1.9766
   11DOPE   H4Y 1378   0.896   2.348  15.855  3.1758 -1.6475 -0.8840
   11DOPE   C35 1379   0.854   2.552  15.802  0.0945 -0.3094 -0.2845
   11DOPE   H5X 1380   0.889   2.651  15.838 -1.8854  0.2298  0.3008
   11DOPE   H5Y 1381   0.745   2.551  15.824 -0.3416 -1.9524 -2.1648
   11DOPE   C36 1382   0.882   2.535  15.649 -0.6542 -0.3393  0.1528
   11DOPE   H6X 1383   0.988   2.515  15.624  0.3923  3.8133  0.5283
   11DOPE   H6Y 1384   0.869   2.640  15.613  1.6470  0.2853  1.0002
   11DOPE   C37 1385   0.788   2.436  15.584  0.0901 -0.8801 -0.4722
   11DOPE   H7X 1386   0.844   2.340  15.582 -1.0889 -1.6145  0.2756
   11DOPE   H7Y 1387   0.700   2.428  15.652  0.1702  1.6506  0.0264
   11DOPE   C38 1388   0.740   2.488  15.446 -0.1157 -0.3260 -0.2387
   11DOPE   H8X 1389   0.688   2.399  15.403 -1.0779  0.1152 -0.0288
   11DOPE   H8Y 1390   0.820   2.486  15.370 -0.0757 -2.5346 -0.2090
   11DOPE   C39 1391   0.647   2.604  15.450  0.0077 -0.7898 -0.0563
   11DOPE   H9X 1392   0.548   2.596  15.496 -0.3379  0.8469 -0.4410
   11DOPE  C310 1393   0.674   2.724  15.397 -0.1265 -1.2329  0.8221
   11DOPE  H10X 1394   0.603   2.807  15.410  0.8783 -0.5343  2.1755
   11DOPE  C311 1395   0.801   2.765  15.318  1.4294  0.4003 -0.2904
   11DOPE  H11X 1396   0.881   2.689  15.332 -0.3645 -1.1110  2.9662
   11DOPE  H11Y 1397   0.771   2.764  15.211 -3.5635 -0.5238  0.8321
   11DOPE  C312 1398   0.838   2.908  15.354  0.3538  0.0798 -0.6417
   11DOPE  H12X 1399   0.871   2.917  15.459 -1.5408  1.4039 -0.1001
   11DOPE  H12Y 1400   0.749   2.975  15.361  0.6259  0.2263  3.0406
   11DOPE  C313 1401   0.940   2.969  15.250 -0.1932 -0.2922  0.0228
   11DOPE  H13X 1402   0.878   3.002  15.163  1.7806 -0.9252 -1.7215
   11DOPE  H13Y 1403   0.991   3.058  15.292  1.3944  0.4516 -3.1509
   11DOPE  C314 1404   1.054   2.874  15.196  0.2672  0.2494 -0.0164
   11DOPE  H14X 1405   1.016   2.777  15.158 -0.1115  0.7565 -0.9521
   11DOPE  H14Y 1406   1.105   2.839  15.289  0.3486  0.0043 -0.1533
   11DOPE  C315 1407   1.141   2.933  15.087  0.0198  0.4794  0.3106
   11DOPE  H15X 1408   1.199   3.015  15.134  0.3210 -0.1366  1.0171
   11DOPE  H15Y 1409   1.082   2.980  15.005  0.8729  1.0896  0.0361
   11DOPE  C316 1410   1.237   2.830  15.036 -0.4906  0.0086  0.2772
   11DOPE  H16X 1411   1.175   2.750  14.990 -0.0860  0.1377 -0.5239
   11DOPE  H16Y 1412   1.302   2.779  15.110  1.0434 -0.8963 -1.6140
   11DOPE  C317 1413   1.325   2.891  14.925 -0.0362  0.1029 -0.1090
   11DOPE  H17X 1414   1.272   2.930  14.836  0.4030 -1.3741 -1.0435
   11DOPE  H17Y 1415   1.386   2.975  14.965 -1.3308  0.1119  2.0204
   11DOPE  C318 1416   1.423   2.786  14.873 -0.2856  0.4706  0.7097
   11DOPE  H18X 1417   1.369   2.699  14.831 -2.9830  1.7269  1.3523
   11DOPE  H18Y 1418   1.487   2.836  14.798 -0.0784  2.8639  2.3536
   11DOPE  H18Z 1419   1.490   2.748  14.953  1.8405 -1.9507 -2.0235
   12DOPE     N 1420   3.084   5.820  17.197  0.7069  0.3251  0.0825
   12DOPE   HN1 1421   3.006   5.760  17.232  1.2988 -0.6237 -0.1909
   12DOPE   HN2 1422   3.160   5.759  17.233  1.4082 -0.4571 -2.5202
   12DOPE   HN3 1423   3.097   5.913  17.242 -1.2960  1.1891 -0.9848
   12DOPE   C12 1424   3.080   5.822  17.048 -0.2646 -0.0603 -1.0288
   12DOPE  H12A 1425   2.978   5.859  17.024  0.1518  0.8544 -1.4471
   12DOPE  H12B 1426   3.089   5.718  17.009 -2.1297 -1.3717  1.6537
   12DOPE   C11 1427   3.184   5.909  16.982 -0.6133 -0.1911 -0.5350
   12DOPE  H11A 1428   3.188   5.888  16.873 -0.1432  2.3714 -1.0791
   12DOPE  H11B 1429   3.286   5.890  17.022 -0.9150  0.1129  0.4085
   12DOPE     P 1430   3.080   6.121  16.875  0.2943 -0.0936  0.1317
   12DOPE   O13 1431   3.098   6.268  16.880 -0.5351  0.3192  0.0215
   12DOPE   O14 1432   2.939   6.073  16.872 -0.1285 -0.1060 -0.4320
   12DOPE   O11 1433   3.151   6.061  16.747 -0.2547 -0.1332  0.1939
   12DOPE   O12 1434   3.144   6.050  17.004 -0.6487  0.6348 -0.0779
   12DOPE    C1 1435   3.282   6.108  16.707 -0.0507  0.0512 -0.2101
   12DOPE    HA 1436   3.336   6.016  16.676  0.9980  1.2792 -2.2386
   12DOPE    HB 1437   3.337   6.146  16.796 -1.9156 -1.2055  1.5529
   12DOPE    C2 1438   3.281   6.207  16.592  0.0430  0.0675  1.0181
   12DOPE    HS 1439   3.226   6.303  16.603  0.3683  0.3933 -0.0022
   12DOPE   O21 1440   3.232   6.146  16.465  0.5523  0.3584 -0.3840
   12DOPE   C21 1441   3.105   6.135  16.454  0.9674  0.3109 -0.5494
   12DOPE   O22 1442   3.023   6.178  16.535  0.3766  0.4504  0.0423
   12DOPE   C22 1443   3.072   6.059  16.323  0.7004  0.2039 -0.1689
   12DOPE   H2R 1444   3.128   5.963  16.325 -1.2781 -1.0061  1.2397
   12DOPE   H2S 1445   3.114   6.099  16.229  0.9695 -1.6545 -0.8795
   12DOPE    C3 1446   3.429   6.250  16.555 -0.0866 -0.0687 -0.0527
   12DOPE    HX 1447   3.477   6.173  16.491 -1.4701 -0.5386 -0.5544
   12DOPE    HY 1448   3.482   6.264  16.651 -1.2750  3.7792  0.2257
   12DOPE   O31 1449   3.439   6.375  16.483  0.5823 -0.5057 -0.5185
   12DOPE   C31 1450   3.426   6.485  16.558 -0.4598 -1.2048 -0.2238
   12DOPE   O32 1451   3.437   6.490  16.676 -0.3963  0.0458 -0.5573
   12DOPE   C32 1452   3.415   6.602  16.450  0.2866 -0.0734  0.0871
   12DOPE   H2X 1453   3.489   6.679  16.479 -0.6574  0.3509  1.4457
   12DOPE   H2Y 1454   3.445   6.563  16.350 -0.6627 -0.8469  0.0915
   12DOPE   C23 1455   2.918   6.024  16.315  0.4734  0.3583 -0.5043
   12DOPE   H3R 1456   2.857   6.114  16.293  0.3769  0.5304  0.4382
   12DOPE   H3S 1457   2.884   5.984  16.413 -1.0066 -3.9771 -2.5536
   12DOPE   C24 1458   2.889   5.900  16.227 -0.1791 -0.7219 -0.2782
   12DOPE   H4R 1459   2.790   5.859  16.259 -1.1463  0.1205 -2.0408
   12DOPE   H4S 1460   2.963   5.818  16.232  1.5717  0.5721 -2.8353
   12DOPE   C25 1461   2.890   5.939  16.075  0.6385 -0.1932  0.5434
   12DOPE   H5R 1462   2.847   5.864  16.005  0.3262 -1.8216  2.4151
   12DOPE   H5S 1463   2.995   5.953  16.043  1.1534 -3.6034  0.3975
   12DOPE   C26 1464   2.812   6.068  16.026  0.4125 -0.5818 -1.4222
   12DOPE   H6R 1465   2.873   6.158  16.049  0.9537 -1.6042  1.6080
   12DOPE   H6S 1466   2.720   6.074  16.087  0.4256  0.2289 -1.4762
   12DOPE   C27 1467   2.785   6.072  15.882 -0.2595 -0.4171  0.4195
   12DOPE   H7R 1468   2.727   6.163  15.855  0.8643 -0.1769 -1.3185
   12DOPE   H7S 1469   2.722   5.984  15.856  0.3039 -0.9189  0.7362
   12DOPE   C28 1470   2.907   6.064  15.786  0.0931  0.1202  0.4444
   12DOPE   H8R 1471   2.959   5.969  15.809 -2.5298 -0.9853  2.1877
   12DOPE   H8S 1472   2.978   6.144  15.818 -0.1618  0.2037  0.8052
   12DOPE   C29 1473   2.876   6.081  15.637  0.6518 -0.3538  0.3835
   12DOPE   H9R 1474   2.781   6.035  15.606  1.2149  0.0259 -2.1250
   12DOPE  C210 1475   2.952   6.131  15.541 -0.0392 -0.4427 -0.3730
   12DOPE  H10R 1476   2.914   6.153  15.441  0.5227  0.4024 -0.4085
   12DOPE  C211 1477   3.087   6.189  15.559  0.0942 -0.1307 -0.2876
   12DOPE  H11R 1478   3.131   6.191  15.661  1.5159 -0.1322 -0.8751
   12DOPE  H11S 1479   3.090   6.294  15.523 -1.2016  0.2081  0.5240
   12DOPE  C212 1480   3.184   6.098  15.492 -0.4656 -0.4163  0.0695
   12DOPE  H12R 1481   3.202   6.001  15.544  1.0872  1.2026  2.8234
   12DOPE  H12S 1482   3.282   6.151  15.503 -1.0464  0.6156  0.3648
   12DOPE  C213 1483   3.172   6.087  15.344 -0.9445  0.3002 -0.6745
   12DOPE  H13R 1484   3.117   6.175  15.304 -1.5579  1.9923  3.4168
   12DOPE  H13S 1485   3.104   6.003  15.319  1.0802 -1.3057 -1.0975
   12DOPE  C214 1486   3.302   6.049  15.274  0.9226  0.2413  0.0678
   12DOPE  H14R 1487   3.349   5.957  15.316 -2.5656 -1.2743  0.9720
   12DOPE  H14S 1488   3.370   6.137  15.271 -0.1532  1.1755 -4.6036
   12DOPE  C215 1489   3.286   6.019  15.125  0.5898 -0.2466  0.0940
   12DOPE  H15R 1490   3.382   5.991  15.075 -0.2437  1.4828 -2.6777
   12DOPE  H15S 1491   3.248   6.107  15.070  1.7423 -0.4578 -1.0927
   12DOPE  C216 1492   3.196   5.901  15.090 -0.1552  0.1759 -0.1916
   12DOPE  H16R 1493   3.093   5.930  15.119 -0.5562 -1.9808  0.6857
   12DOPE  H16S 1494   3.213   5.806  15.145  0.9871 -0.1985 -1.1579
   12DOPE  C217 1495   3.196   5.883  14.932  0.0283 -0.2167  0.7552
   12DOPE  H17R 1496   3.292   5.840  14.896  0.4789  0.3607  1.2495
   12DOPE  H17S 1497   3.184   5.983  14.888  2.1298 -0.7215 -1.1384
   12DOPE  C218 1498   3.076   5.795  14.890  0.0066 -0.6261  0.6422
   12DOPE  H18R 1499   3.072   5.813  14.780  0.0548 -0.1941  0.7095
   12DOPE  H18S 1500   2.976   5.816  14.932  0.5858  2.0944  0.8875
   12DOPE  H18T 1501   3.089   5.689  14.921 -1.2199 -0.1495  3.0074
   12DOPE   C33 1502   3.273   6.643  16.440  0.2098 -0.1967 -0.2288
   12DOPE   H3X 1503   3.263   6.726  16.366  2.5125  0.1580 -0.2075
   12DOPE   H3Y 1504   3.229   6.685  16.533 -1.1594 -0.7226 -0.6142
   12DOPE   C34 1505   3.186   6.523  16.390 -0.3658 -0.1144 -0.7325
   12DOPE   H4X 1506   3.242   6.451  16.326 -1.0226 -0.3324 -1.0635
   12DOPE   H4Y 1507   3.163   6.469  16.484  1.0519  0.5087  0.0063
   12DOPE   C35 1508   3.069   6.576  16.311 -0.0557  0.7392 -0.1249
   12DOPE   H5X 1509   3.107   6.639  16.227  1.8787 -0.1889  0.0171
   12DOPE   H5Y 1510   2.993   6.638  16.364 -1.7262 -1.3679  0.0795
   12DOPE   C36 1511   2.993   6.456  16.246  0.2722  0.2933  0.2093
   12DOPE   H6X 1512   2.992   6.382  16.329  1.3657  0.8953  0.7808
   12DOPE   H6Y 1513   3.044   6.419  16.154 -0.1672  0.7166 -0.2071
   12DOPE   C37 1514   2.846   6.496  16.207  0.0803 -0.0206  0.6288
   12DOPE   H7X 1515   2.786   6.403  16.192  1.2459 -0.6227 -0.5347
   12DOPE   H7Y 1516   2.801   6.546  16.295  0.6978 -1.0468  1.5496
   12DOPE   C38 1517   2.845   6.598  16.089 -0.2990  0.2484  0.2858
   12DOPE   H8X 1518   2.914   6.683  16.106 -1.1497  0.5279  2.7080
   12DOPE   H8Y 1519   2.744   6.640  16.076  0.2841  1.4018 -0.6874
   12DOPE   C39 1520   2.875   6.521  15.960 -0.5662  0.3085 -1.0386
   12DOPE   H9X 1521   2.804   6.442  15.930  0.9996 -1.0478 -1.3030
   12DOPE  C310 1522   2.982   6.540  15.880  0.6381 -0.4570  0.0360
   12DOPE  H10X 1523   2.997   6.491  15.783  1.0685  1.5233 -0.9443
   12DOPE  C311 1524   3.090   6.643  15.907  0.2733  0.1448  0.1166
   12DOPE  H11X 1525   3.040   6.732  15.951  0.2130 -0.1128  0.5753
   12DOPE  H11Y 1526   3.172   6.612  15.975  1.8037  1.7803 -0.8890
   12DOPE  C312 1527   3.150   6.681  15.771 -0.6093  0.2669 -0.1270
   12DOPE  H12X 1528   3.196   6.592  15.721  0.4952  0.6838  0.1277
   12DOPE  H12Y 1529   3.227   6.756  15.795 -0.3534 -0.1381  0.3448
   12DOPE  C313 1530   3.057   6.760  15.676  0.1274  0.4708 -0.3996
   12DOPE  H13X 1531   2.968   6.697  15.658  0.9617 -1.2578  1.1387
   12DOPE  H13Y 1532   3.022   6.850  15.731 -0.2714  0.8645 -1.2889
   12DOPE  C314 1533   3.124   6.802  15.548  0.4320 -0.4724 -0.1514
   12DOPE  H14X 1534   3.217   6.860  15.564 -0.4224  1.4982 -1.9080
   12DOPE  H14Y 1535   3.057   6.877  15.500 -0.7846 -0.6513  1.2007
   12DOPE  C315 1536   3.147   6.682  15.449  0.3949  0.3294 -0.2608
   12DOPE  H15X 1537   3.045   6.642  15.433  0.1246  0.5494  0.8602
   12DOPE  H15Y 1538   3.196   6.596  15.499 -1.8825 -2.0539 -1.8891
   12DOPE  C316 1539   3.214   6.719  15.319  0.4033 -0.0226  0.3864
   12DOPE  H16X 1540   3.311   6.767  15.344 -0.4665  1.9732  0.1746
   12DOPE  H16Y 1541   3.155   6.808  15.288  3.0813  1.1525 -1.8132
   12DOPE  C317 1542   3.219   6.623  15.196  0.4871  0.1703 -0.0488
   12DOPE  H17X 1543   3.118   6.581  15.176  1.6133 -2.0606 -1.4396
   12DOPE  H17Y 1544   3.241   6.684  15.105  0.4974  0.6832  0.2950
   12DOPE  C318 1545   3.330   6.519  15.197 -0.0407  0.1096 -0.0296
   12DOPE  H18X 1546   3.343   6.479  15.300  2.8491  1.8029  0.3647
   12DOPE  H18Y 1547   3.311   6.448  15.114  1.1932  0.4188 -0.5938
   12DOPE  H18Z 1548   3.428   6.568  15.176  0.6087 -1.1370  0.0079
   13DOPE     N 1549   2.850   0.544  16.835  0.3366  0.0903  0.3847
   13DOPE   HN1 1550   2.911   0.579  16.911 -0.6372  4.8726 -0.6628
   13DOPE   HN2 1551   2.915   0.513  16.759 -0.5591 -1.0921  0.0762
   13DOPE   HN3 1552   2.800   0.628  16.799 -0.7488  0.3679  2.4331
   13DOPE   C12 1553   2.759   0.425  16.881 -0.4694 -0.7278  0.6540
   13DOPE  H12A 1554   2.658   0.425  16.834  0.0847  0.1047 -0.5974
   13DOPE  H12B 1555   2.757   0.426  16.992  1.1823  1.4772  0.7437
   13DOPE   C11 1556   2.823   0.293  16.836 -0.6717  0.0784 -0.2634
   13DOPE  H11A 1557   2.814   0.268  16.728  0.5916  1.1347 -0.6329
   13DOPE  H11B 1558   2.770   0.208  16.885  0.5960 -0.8767 -0.5111
   13DOPE     P 1559   3.067   0.209  16.803 -0.0745 -0.1420 -0.2542
   13DOPE   O13 1560   3.053   0.076  16.858 -0.3213  0.0137  0.0670
   13DOPE   O14 1561   3.203   0.266  16.820  0.1694  0.1633  0.2330
   13DOPE   O11 1562   3.024   0.223  16.653  0.4218  0.1455  0.0197
   13DOPE   O12 1563   2.957   0.299  16.872 -0.2519  0.3720 -0.1506
   13DOPE    C1 1564   3.096   0.176  16.539 -0.1891  0.0857  0.0192
   13DOPE    HA 1565   3.060   0.074  16.514 -0.3907 -0.2035  1.4232
   13DOPE    HB 1566   3.206   0.160  16.549 -0.5128 -1.1788  2.1395
   13DOPE    C2 1567   3.081   0.267  16.417  0.7206  0.0070  0.3977
   13DOPE    HS 1568   3.129   0.367  16.428  2.2127 -0.5863 -0.4117
   13DOPE   O21 1569   2.938   0.274  16.387  0.1799 -0.1322 -0.5225
   13DOPE   C21 1570   2.877   0.373  16.441 -0.4469  0.4226  0.2183
   13DOPE   O22 1571   2.937   0.463  16.502 -0.4868 -0.2417  0.0797
   13DOPE   C22 1572   2.721   0.362  16.432 -0.8920  0.0740 -0.2444
   13DOPE   H2R 1573   2.692   0.321  16.531  2.2752  0.9097  1.1616
   13DOPE   H2S 1574   2.700   0.284  16.355  0.1347 -0.8806  0.4016
   13DOPE    C3 1575   3.149   0.201  16.293 -0.0776 -0.3288  0.1706
   13DOPE    HX 1576   3.112   0.252  16.202  1.8850  0.0962 -0.4519
   13DOPE    HY 1577   3.106   0.101  16.273  1.7181 -0.9982 -0.5652
   13DOPE   O31 1578   3.299   0.205  16.293  0.0825  0.1959  0.7134
   13DOPE   C31 1579   3.353   0.086  16.308  0.1624  0.8289  0.0022
   13DOPE   O32 1580   3.295  -0.016  16.333 -0.1015 -0.2746  0.2288
   13DOPE   C32 1581   3.501   0.106  16.310  0.1006  0.3644  0.1288
   13DOPE   H2X 1582   3.528   0.203  16.358  0.3016  1.0144 -1.2425
   13DOPE   H2Y 1583   3.532   0.021  16.374 -1.4925  0.7576  1.4961
   13DOPE   C23 1584   2.654   0.496  16.396 -0.3445  0.3689  0.2182
   13DOPE   H3R 1585   2.702   0.587  16.438  0.9911 -1.1918  2.2650
   13DOPE   H3S 1586   2.559   0.485  16.452  0.6467 -0.1471  1.8603
   13DOPE   C24 1587   2.636   0.515  16.239  0.0818 -0.3855 -0.2724
   13DOPE   H4R 1588   2.545   0.579  16.228  1.4165  1.5080 -0.7508
   13DOPE   H4S 1589   2.628   0.413  16.197 -0.3027 -0.5311  0.1330
   13DOPE   C25 1590   2.741   0.603  16.176 -0.0050  0.8537 -0.1845
   13DOPE   H5R 1591   2.839   0.554  16.193 -1.5745 -3.7629 -2.5964
   13DOPE   H5S 1592   2.737   0.700  16.229  0.4668  1.8536 -1.9130
   13DOPE   C26 1593   2.720   0.613  16.027 -0.0457  0.1606  0.3646
   13DOPE   H6R 1594   2.614   0.638  16.004 -1.1825 -2.7932  1.9579
   13DOPE   H6S 1595   2.742   0.511  15.990 -1.0263 -0.2786  0.9505
   13DOPE   C27 1596   2.805   0.720  15.960 -0.2972 -0.0742 -0.8869
   13DOPE   H7R 1597   2.910   0.701  15.991 -0.4928  0.3104  0.0741
   13DOPE   H7S 1598   2.772   0.820  15.995  1.5577  0.1796  0.3398
   13DOPE   C28 1599   2.802   0.718  15.807  0.7110 -0.1448  0.5164
   13DOPE   H8R 1600   2.826   0.614  15.776  1.0663  0.7746 -2.6537
   13DOPE   H8S 1601   2.878   0.768  15.743 -2.0451  0.9995 -2.1612
   13DOPE   C29 1602   2.673   0.766  15.747  0.2052  0.0017  0.2527
   13DOPE   H9R 1603   2.667   0.876  15.740  1.5023  0.1007  0.4035
   13DOPE  C210 1604   2.579   0.690  15.695  0.8726  0.3782 -0.2911
   13DOPE  H10R 1605   2.485   0.735  15.659 -0.3296 -0.1211  2.0159
   13DOPE  C211 1606   2.572   0.544  15.672 -0.3611 -0.0785 -0.2161
   13DOPE  H11R 1607   2.516   0.496  15.754  0.8529  0.2869  0.8560
   13DOPE  H11S 1608   2.675   0.502  15.676 -0.4306 -0.4150 -1.4223
   13DOPE  C212 1609   2.510   0.500  15.539  0.3948  0.1910 -0.2930
   13DOPE  H12R 1610   2.422   0.566  15.522 -1.4468 -1.2001  2.9363
   13DOPE  H12S 1611   2.456   0.406  15.565 -0.6219  0.3143 -1.8598
   13DOPE  C213 1612   2.615   0.485  15.426  0.9164 -0.8976 -0.2505
   13DOPE  H13R 1613   2.694   0.412  15.452  0.2398 -1.2748  0.8076
   13DOPE  H13S 1614   2.667   0.583  15.420  1.4208 -1.1116  0.4206
   13DOPE  C214 1615   2.555   0.451  15.288 -0.4589 -0.3381  0.9990
   13DOPE  H14R 1616   2.472   0.520  15.263 -0.6853 -1.3461 -1.2786
   13DOPE  H14S 1617   2.511   0.350  15.306  2.6775 -1.6205  2.2926
   13DOPE  C215 1618   2.674   0.455  15.186 -0.0493 -0.4642  0.0084
   13DOPE  H15R 1619   2.754   0.383  15.215 -2.0972 -2.9047 -0.0019
   13DOPE  H15S 1620   2.720   0.556  15.186  1.8112 -1.2156  1.8923
   13DOPE  C216 1621   2.622   0.414  15.045  0.0927  0.5770 -0.2514
   13DOPE  H16R 1622   2.559   0.323  15.052  1.6727 -0.4822  0.8098
   13DOPE  H16S 1623   2.693   0.394  14.961 -0.3818  0.2243 -0.5677
   13DOPE  C217 1624   2.532   0.531  14.987 -0.2290 -0.7153  0.6547
   13DOPE  H17R 1625   2.580   0.631  14.991 -0.6627 -0.4815  0.0873
   13DOPE  H17S 1626   2.440   0.542  15.049 -1.1278  1.4798 -0.9311
   13DOPE  C218 1627   2.475   0.501  14.844 -0.2838 -0.4401  0.8088
   13DOPE  H18R 1628   2.412   0.411  14.832 -2.3653  1.1605 -1.2845
   13DOPE  H18S 1629   2.563   0.475  14.780  0.2040  0.8430  0.9150
   13DOPE  H18T 1630   2.432   0.586  14.786 -3.0233 -2.1841  0.1374
   13DOPE   C33 1631   3.560   0.091  16.163  0.6762  0.6608 -0.1825
   13DOPE   H3X 1632   3.524   0.182  16.109  1.1623  0.9827  0.0194
   13DOPE   H3Y 1633   3.516   0.001  16.116  0.8345 -0.5151  1.8355
   13DOPE   C34 1634   3.716   0.100  16.165  0.0458 -0.9798 -0.0516
   13DOPE   H4X 1635   3.739   0.205  16.193 -2.5677 -0.2038 -0.5428
   13DOPE   H4Y 1636   3.746   0.023  16.240  1.1667 -1.1833 -0.6816
   13DOPE   C35 1637   3.794   0.054  16.043 -0.0773  0.8894  0.0594
   13DOPE   H5X 1638   3.902   0.080  16.048  0.2236 -0.4874  2.5966
   13DOPE   H5Y 1639   3.754   0.096  15.948 -0.8687  1.0342  0.4479
   13DOPE   C36 1640   3.797  -0.105  16.023 -0.1092 -0.9688  0.4238
   13DOPE   H6X 1641   3.691  -0.140  16.026 -0.6833  0.4153 -1.7867
   13DOPE   H6Y 1642   3.840  -0.158  16.111 -0.7960 -2.3868 -0.0589
   13DOPE   C37 1643   3.864  -0.158  15.896 -0.1457 -0.0054 -0.9261
   13DOPE   H7X 1644   3.900  -0.071  15.838  0.9331 -0.0395 -0.3339
   13DOPE   H7Y 1645   3.952  -0.212  15.936  0.8902  1.6986 -0.7859
   13DOPE   C38 1646   3.772  -0.252  15.814  0.0156  0.6344  0.0792
   13DOPE   H8X 1647   3.740  -0.327  15.890  1.3742  0.6713  0.7015
   13DOPE   H8Y 1648   3.829  -0.298  15.731  1.2410  1.3755  0.4880
   13DOPE   C39 1649   3.650  -0.194  15.753 -0.1629  0.0557 -0.5290
   13DOPE   H9X 1650   3.591  -0.130  15.820 -1.0511 -0.3724 -0.8838
   13DOPE  C310 1651   3.600  -0.221  15.632  0.1677 -0.3128 -0.0995
   13DOPE  H10X 1652   3.526  -0.147  15.597  0.4157  0.6638  1.3158
   13DOPE  C311 1653   3.652  -0.312  15.526  0.0215  0.4717  0.0194
   13DOPE  H11X 1654   3.753  -0.355  15.543  0.0672  0.0901 -1.1212
   13DOPE  H11Y 1655   3.588  -0.403  15.532  0.5073 -0.1034 -2.3355
   13DOPE  C312 1656   3.658  -0.234  15.391 -0.2021 -0.1007  0.7081
   13DOPE  H12X 1657   3.562  -0.181  15.377  0.1908  0.4811  0.1360
   13DOPE  H12Y 1658   3.666  -0.308  15.309  0.0546 -0.4395  1.0321
   13DOPE  C313 1659   3.771  -0.120  15.375  0.4278  0.0213 -0.5976
   13DOPE  H13X 1660   3.744  -0.050  15.293 -0.7961 -1.2524 -1.3018
   13DOPE  H13Y 1661   3.758  -0.060  15.468  0.5289 -1.3287  0.3177
   13DOPE  C314 1662   3.915  -0.174  15.362 -1.0227 -0.4194  0.2369
   13DOPE  H14X 1663   3.971  -0.090  15.316  1.1781 -1.9363 -0.0135
   13DOPE  H14Y 1664   3.923  -0.253  15.285  1.9039 -0.6225  0.6505
   13DOPE  C315 1665   3.982  -0.212  15.483  0.1053  0.2847 -0.7228
   13DOPE  H15X 1666   3.965  -0.318  15.511 -1.2525  0.2101 -1.7484
   13DOPE  H15Y 1667   3.944  -0.145  15.563 -0.3163  2.0463 -2.3205
   13DOPE  C316 1668   4.130  -0.205  15.478  1.1109 -0.2096 -0.1490
   13DOPE  H16X 1669   4.168  -0.101  15.472  0.3938  0.1417  0.9866
   13DOPE  H16Y 1670   4.161  -0.254  15.383  0.5816  0.2026 -0.5401
   13DOPE  C317 1671   4.195  -0.258  15.604 -0.2264 -0.1084  0.0332
   13DOPE  H17X 1672   4.172  -0.184  15.683 -0.5199 -0.2243  0.0580
   13DOPE  H17Y 1673   4.149  -0.353  15.638  1.1282  0.2263  3.1166
   13DOPE  C318 1674   4.347  -0.287  15.580  0.2445  0.0338 -0.1750
   13DOPE  H18X 1675   4.396  -0.190  15.555 -0.2628  0.0957 -0.9313
   13DOPE  H18Y 1676   4.401  -0.329  15.668  0.6889  1.7648  0.4410
   13DOPE  H18Z 1677   4.361  -0.361  15.499 -1.5565 -0.6245  0.0827
   14DOPE     N 1678   6.955   5.426  16.911 -0.8113 -0.3834 -0.8012
   14DOPE   HN1 1679   6.878   5.495  16.908  0.6262  1.2985 -0.3279
   14DOPE   HN2 1680   6.970   5.377  17.002  0.5968 -1.0550 -1.3710
   14DOPE   HN3 1681   7.044   5.475  16.888  0.1932 -1.6523  0.2076
   14DOPE   C12 1682   6.919   5.319  16.812 -0.3171 -0.1100 -0.1321
   14DOPE  H12A 1683   6.905   5.368  16.713  0.3593 -2.4291 -1.4695
   14DOPE  H12B 1684   6.822   5.275  16.844 -0.3422  0.2352  0.2720
   14DOPE   C11 1685   7.023   5.202  16.793  0.7757 -0.1013  0.0743
   14DOPE  H11A 1686   6.983   5.135  16.714  0.8591 -1.3084  1.0291
   14DOPE  H11B 1687   7.036   5.140  16.884  0.9397 -0.1703  0.0047
   14DOPE     P 1688   7.274   5.205  16.747  0.0964 -0.0735 -0.5557
   14DOPE   O13 1689   7.244   5.061  16.748  0.0784 -0.0590 -1.0828
   14DOPE   O14 1690   7.362   5.266  16.849  0.8458 -0.0510  0.5528
   14DOPE   O11 1691   7.334   5.243  16.609 -0.1326 -0.2735  0.2863
   14DOPE   O12 1692   7.137   5.271  16.739  0.3153 -0.2181  0.0971
   14DOPE    C1 1693   7.264   5.279  16.488 -0.0135  0.1150 -0.0082
   14DOPE    HA 1694   7.294   5.383  16.463 -0.0741  0.3003  0.6799
   14DOPE    HB 1695   7.156   5.284  16.514  0.4531  0.6458  1.9882
   14DOPE    C2 1696   7.282   5.181  16.375  0.2815  0.0292 -0.2205
   14DOPE    HS 1697   7.258   5.217  16.272  0.2822 -1.3692 -0.7300
   14DOPE   O21 1698   7.217   5.057  16.401  1.2021 -0.0639 -0.2792
   14DOPE   C21 1699   7.082   5.054  16.420 -0.1639 -0.8792 -0.2731
   14DOPE   O22 1700   7.004   5.144  16.396 -0.0092  0.2504 -0.0189
   14DOPE   C22 1701   7.042   4.909  16.454  0.2330 -0.5209  0.4068
   14DOPE   H2R 1702   6.931   4.910  16.444  0.2916  0.0749 -0.2790
   14DOPE   H2S 1703   7.064   4.898  16.562 -2.5659  0.6240  1.1947
   14DOPE    C3 1704   7.429   5.151  16.357  0.3497 -0.1471  0.3674
   14DOPE    HX 1705   7.468   5.097  16.446  2.8405 -1.7645 -1.5896
   14DOPE    HY 1706   7.487   5.246  16.351  0.6947 -0.4371 -1.4302
   14DOPE   O31 1707   7.452   5.066  16.241 -0.3737  0.4136  0.3543
   14DOPE   C31 1708   7.491   4.941  16.263 -0.4171  0.2842  0.3117
   14DOPE   O32 1709   7.517   4.896  16.371 -0.3396 -0.3376 -0.3479
   14DOPE   C32 1710   7.507   4.866  16.126  0.1094  0.5901  0.1596
   14DOPE   H2X 1711   7.401   4.852  16.097  0.5863 -2.0881 -0.5725
   14DOPE   H2Y 1712   7.546   4.934  16.048  1.3996  0.0211  0.2808
   14DOPE   C23 1713   7.100   4.810  16.356  0.3332  0.8510  0.4038
   14DOPE   H3R 1714   7.073   4.708  16.388 -0.1996  0.3348 -1.5896
   14DOPE   H3S 1715   7.211   4.815  16.354  0.2978  1.6439 -0.9166
   14DOPE   C24 1716   7.048   4.822  16.210  0.2670  0.2880 -0.2489
   14DOPE   H4R 1717   7.061   4.925  16.170 -1.6138  1.1505  1.1736
   14DOPE   H4S 1718   6.942   4.797  16.232  0.2882 -0.8789 -1.3907
   14DOPE   C25 1719   7.103   4.714  16.111  0.2676 -0.6394 -0.0725
   14DOPE   H5R 1720   7.090   4.620  16.169 -4.8366  0.1120  0.4911
   14DOPE   H5S 1721   7.207   4.744  16.085 -0.7781  3.1718 -0.4759
   14DOPE   C26 1722   7.014   4.701  15.985  0.2631 -0.1319 -0.1227
   14DOPE   H6R 1723   7.027   4.801  15.938 -1.3090 -0.0852 -0.5015
   14DOPE   H6S 1724   6.908   4.694  16.018 -0.0351  0.7815 -0.8412
   14DOPE   C27 1725   7.042   4.580  15.894 -0.9306 -0.6420  0.3998
   14DOPE   H7R 1726   6.968   4.571  15.811 -2.5164 -2.1334  1.9104
   14DOPE   H7S 1727   7.030   4.483  15.946  1.5048 -1.2142  0.0087
   14DOPE   C28 1728   7.183   4.583  15.837 -0.4772  1.0597  0.1185
   14DOPE   H8R 1729   7.188   4.487  15.782  0.2439  0.6171  0.9328
   14DOPE   H8S 1730   7.249   4.585  15.926 -0.7105 -0.3856  0.3442
   14DOPE   C29 1731   7.214   4.701  15.739 -0.0251  0.7536 -0.2442
   14DOPE   H9R 1732   7.185   4.801  15.776 -1.2797 -0.9780  4.1215
   14DOPE  C210 1733   7.274   4.698  15.620 -0.3907  0.3098  0.8345
   14DOPE  H10R 1734   7.303   4.796  15.580  0.5066  0.7849  2.5313
   14DOPE  C211 1735   7.323   4.576  15.544  0.4108 -0.2831 -0.4657
   14DOPE  H11R 1736   7.332   4.502  15.626  1.5128 -1.8008 -1.9055
   14DOPE  H11S 1737   7.426   4.581  15.504  0.7077  1.1610  0.3792
   14DOPE  C212 1738   7.219   4.512  15.444  0.4469  0.0456 -0.1211
   14DOPE  H12R 1739   7.188   4.587  15.368  0.6298  1.6398  1.3335
   14DOPE  H12S 1740   7.130   4.478  15.502 -0.1150 -0.6111 -1.3293
   14DOPE  C213 1741   7.277   4.394  15.366 -0.3817  0.3452 -0.3181
   14DOPE  H13R 1742   7.294   4.308  15.434  0.1804  0.8461  0.1865
   14DOPE  H13S 1743   7.378   4.423  15.330 -0.8105  2.0345 -0.2510
   14DOPE  C214 1744   7.190   4.355  15.256  0.1589  0.4773  0.0685
   14DOPE  H14R 1745   7.158   4.443  15.197 -0.4312  0.4817  0.3826
   14DOPE  H14S 1746   7.094   4.310  15.288  1.1818 -2.1129 -0.2005
   14DOPE  C215 1747   7.252   4.251  15.159 -0.7581  0.2511 -0.6569
   14DOPE  H15R 1748   7.269   4.156  15.214  1.8783  0.4038 -1.1110
   14DOPE  H15S 1749   7.354   4.278  15.124 -0.3553  0.2626  0.4975
   14DOPE  C216 1750   7.165   4.238  15.029 -0.2439 -0.4968 -0.0260
   14DOPE  H16R 1751   7.179   4.324  14.960 -0.2692  0.2016  0.8232
   14DOPE  H16S 1752   7.057   4.236  15.055 -1.1141  1.7177 -2.9203
   14DOPE  C217 1753   7.191   4.114  14.955 -0.1331 -0.4456 -0.1059
   14DOPE  H17R 1754   7.210   4.031  15.027  0.0728  0.6245  1.1122
   14DOPE  H17S 1755   7.289   4.132  14.906  0.5068 -0.1333  1.2449
   14DOPE  C218 1756   7.091   4.082  14.843 -1.1861  0.7312 -0.5287
   14DOPE  H18R 1757   7.127   4.001  14.777  0.9571  2.0173 -1.0410
   14DOPE  H18S 1758   7.066   4.168  14.778 -0.3700  0.4452 -1.2265
   14DOPE  H18T 1759   6.995   4.056  14.893 -0.3734  0.8320  1.1439
   14DOPE   C33 1760   7.583   4.733  16.142  0.3061  0.1910  0.1119
   14DOPE   H3X 1761   7.532   4.673  16.221  3.4826 -1.6083  0.9659
   14DOPE   H3Y 1762   7.691   4.739  16.167  0.1889  1.3226  0.4141
   14DOPE   C34 1763   7.584   4.657  16.009 -0.3635 -0.1568 -0.5223
   14DOPE   H4X 1764   7.619   4.553  16.025 -2.0595 -0.7893 -0.7473
   14DOPE   H4Y 1765   7.482   4.633  15.972 -0.6801  0.7002 -0.2395
   14DOPE   C35 1766   7.670   4.730  15.897  0.2187 -0.0335  0.3372
   14DOPE   H5X 1767   7.775   4.730  15.933  0.8662 -1.4195 -1.3681
   14DOPE   H5Y 1768   7.629   4.831  15.877 -2.1878 -1.1606 -0.8700
   14DOPE   C36 1769   7.677   4.657  15.758 -0.0535  0.8188 -0.2646
   14DOPE   H6X 1770   7.580   4.648  15.706  0.5617 -0.0365 -1.2988
   14DOPE   H6Y 1771   7.714   4.556  15.784  1.0489  1.2201 -0.2017
   14DOPE   C37 1772   7.767   4.718  15.647  0.5969  0.4456  0.6633
   14DOPE   H7X 1773   7.745   4.826  15.641 -1.8094 -0.0760 -3.3314
   14DOPE   H7Y 1774   7.876   4.707  15.668  0.6742  1.4172  0.7807
   14DOPE   C38 1775   7.730   4.669  15.500  0.4749  0.9120  0.0168
   14DOPE   H8X 1776   7.770   4.753  15.439 -1.9523  1.5120 -0.8705
   14DOPE   H8Y 1777   7.621   4.685  15.488  0.3815  0.8729  0.7660
   14DOPE   C39 1778   7.760   4.521  15.467  0.5574  0.2312 -0.9979
   14DOPE   H9X 1779   7.797   4.460  15.551  2.0603 -1.1461 -2.5990
   14DOPE  C310 1780   7.765   4.475  15.342  0.0525  0.1369  0.2342
   14DOPE  H10X 1781   7.766   4.368  15.313 -0.4725  0.9943 -3.4160
   14DOPE  C311 1782   7.743   4.558  15.218 -0.5201  0.3378  0.0428
   14DOPE  H11X 1783   7.696   4.655  15.244 -0.1723  0.9027 -1.3469
   14DOPE  H11Y 1784   7.838   4.594  15.175 -0.3222  2.0809  1.7954
   14DOPE  C312 1785   7.666   4.498  15.099 -1.0425 -0.0699  0.0294
   14DOPE  H12X 1786   7.557   4.510  15.114 -0.8775  1.1496  0.3637
   14DOPE  H12Y 1787   7.684   4.389  15.087  0.2458  0.2685 -1.3673
   14DOPE  C313 1788   7.721   4.545  14.961  0.1923  0.1825 -0.3917
   14DOPE  H13X 1789   7.691   4.652  14.958  1.0357  0.4112 -1.0507
   14DOPE  H13Y 1790   7.829   4.521  14.951 -0.0592 -0.6087 -1.4002
   14DOPE  C314 1791   7.662   4.477  14.835  0.4736 -0.4833  0.2906
   14DOPE  H14X 1792   7.643   4.374  14.871  1.7893 -1.9976 -2.9240
   14DOPE  H14Y 1793   7.741   4.493  14.758  0.0252  1.9763  0.2754
   14DOPE  C315 1794   7.528   4.532  14.794  0.6576 -0.3728 -0.2344
   14DOPE  H15X 1795   7.538   4.628  14.739 -1.3735 -0.3933 -0.7281
   14DOPE  H15Y 1796   7.471   4.566  14.884  1.7343  3.0502 -0.7141
   14DOPE  C316 1797   7.439   4.441  14.710 -0.4422 -0.2140  0.5888
   14DOPE  H16X 1798   7.343   4.497  14.700 -0.0142  1.1378  3.1985
   14DOPE  H16Y 1799   7.417   4.345  14.762 -1.7005 -0.3028 -0.0723
   14DOPE  C317 1800   7.499   4.399  14.576 -0.2243 -0.2682 -0.4526
   14DOPE  H17X 1801   7.515   4.490  14.514  0.0832 -0.8154 -1.1839
   14DOPE  H17Y 1802   7.596   4.350  14.594  0.2137  0.5047 -0.6531
   14DOPE  C318 1803   7.416   4.310  14.488  0.0453 -0.1572  0.2123
   14DOPE  H18X 1804   7.396   4.212  14.536 -1.4807  0.9164  1.9179
   14DOPE  H18Y 1805   7.316   4.357  14.476 -0.4266 -0.2143  3.1504
   14DOPE  H18Z 1806   7.468   4.307  14.390  0.5028  0.9924  0.4011
   15DOPE     N 1807   0.836   1.982  16.830  0.1300 -0.8487 -0.0786
   15DOPE   HN1 1808   0.843   1.891  16.779  0.8394  0.2520 -2.0243
   15DOPE   HN2 1809   0.814   2.053  16.757 -0.9686 -0.6919  0.3870
   15DOPE   HN3 1810   0.933   1.994  16.866  0.0551 -1.2713  0.2715
   15DOPE   C12 1811   0.744   1.975  16.943 -0.4150  0.4018  0.5489
   15DOPE  H12A 1812   0.660   2.041  16.912  0.9080  1.1430 -1.6925
   15DOPE  H12B 1813   0.791   2.029  17.029 -0.4063  2.4442 -0.6711
   15DOPE   C11 1814   0.722   1.836  16.989 -0.2498  0.0517  0.6205
   15DOPE  H11A 1815   0.693   1.765  16.909  2.2437  0.2267 -0.5415
   15DOPE  H11B 1816   0.635   1.838  17.058  1.1192  1.1042  2.4125
   15DOPE     P 1817   0.905   1.663  17.027 -0.0068  0.2236 -0.4971
   15DOPE   O13 1818   0.820   1.546  17.049  0.7588  0.1989  0.3245
   15DOPE   O14 1819   1.044   1.653  17.079 -0.3758  0.0355  0.0929
   15DOPE   O11 1820   0.912   1.674  16.877 -0.4500 -0.6150 -0.3504
   15DOPE   O12 1821   0.835   1.798  17.071 -0.3365 -0.2623  0.1776
   15DOPE    C1 1822   0.988   1.573  16.810  0.0029  0.9263 -0.7882
   15DOPE    HA 1823   0.951   1.472  16.839 -1.3984  1.8384  0.7640
   15DOPE    HB 1824   1.097   1.584  16.824  0.0675  2.2394 -2.0382
   15DOPE    C2 1825   0.962   1.581  16.657  0.6197  0.2399  1.2427
   15DOPE    HS 1826   0.994   1.685  16.632  1.5346  0.2336  2.3432
   15DOPE   O21 1827   0.824   1.544  16.628 -0.0005 -0.2209  0.1960
   15DOPE   C21 1828   0.733   1.644  16.633  0.1778  0.0736 -0.5947
   15DOPE   O22 1829   0.764   1.757  16.651 -1.2761  0.0370 -0.2659
   15DOPE   C22 1830   0.585   1.583  16.623 -0.1791  0.8160  0.2037
   15DOPE   H2R 1831   0.548   1.534  16.715 -1.6078  0.2950 -0.6170
   15DOPE   H2S 1832   0.587   1.499  16.551  0.8975  1.3560 -0.4412
   15DOPE    C3 1833   1.053   1.480  16.582  0.0465 -0.2562  0.1606
   15DOPE    HX 1834   1.031   1.374  16.606 -1.6304 -0.2272 -1.0274
   15DOPE    HY 1835   1.156   1.494  16.622  1.4183 -0.8661 -2.8474
   15DOPE   O31 1836   1.053   1.500  16.432  0.6884 -0.5363 -0.4570
   15DOPE   C31 1837   1.149   1.429  16.368 -0.3430  0.5863  0.7285
   15DOPE   O32 1838   1.233   1.355  16.422  0.0256 -0.3277 -0.0573
   15DOPE   C32 1839   1.140   1.445  16.215  0.5192 -0.0110  0.6748
   15DOPE   H2X 1840   1.229   1.485  16.161 -0.6390  1.5530 -0.1804
   15DOPE   H2Y 1841   1.122   1.341  16.179  0.1770  0.5236 -0.7732
   15DOPE   C23 1842   0.483   1.698  16.593 -0.1600 -0.5268 -0.2612
   15DOPE   H3R 1843   0.522   1.796  16.630  0.8359  0.0031 -2.5422
   15DOPE   H3S 1844   0.391   1.689  16.653 -0.6302  0.0428 -0.8837
   15DOPE   C24 1845   0.443   1.712  16.445 -0.1736  0.0314  0.4811
   15DOPE   H4R 1846   0.345   1.763  16.452 -0.6500 -1.0563  2.9907
   15DOPE   H4S 1847   0.440   1.606  16.412 -0.0332 -0.0159  0.6147
   15DOPE   C25 1848   0.547   1.788  16.366 -0.8060 -0.0493  0.5864
   15DOPE   H5R 1849   0.647   1.788  16.413 -0.4368 -2.6103 -0.0771
   15DOPE   H5S 1850   0.510   1.892  16.358  0.0715  0.1253 -1.8511
   15DOPE   C26 1851   0.557   1.755  16.218  0.2296 -0.4793 -0.7007
   15DOPE   H6R 1852   0.619   1.837  16.175 -0.5788  0.5752  0.0887
   15DOPE   H6S 1853   0.452   1.750  16.182  0.0226 -3.0428  0.0479
   15DOPE   C27 1854   0.612   1.604  16.191  0.7792  0.6476  0.1095
   15DOPE   H7R 1855   0.553   1.531  16.250  0.0946  1.4414  0.4313
   15DOPE   H7S 1856   0.712   1.600  16.239  0.3921 -1.2120  0.8640
   15DOPE   C28 1857   0.612   1.555  16.043 -0.3837 -0.0559 -0.3452
   15DOPE   H8R 1858   0.511   1.566  15.999  0.2449 -2.4808 -2.6404
   15DOPE   H8S 1859   0.639   1.447  16.044 -1.1199 -0.2546 -1.1641
   15DOPE   C29 1860   0.706   1.630  15.947  0.2855  0.7769  0.2621
   15DOPE   H9R 1861   0.777   1.695  16.000  1.5293 -1.4580  1.4935
   15DOPE  C210 1862   0.704   1.616  15.811 -0.2082 -0.0172 -0.3224
   15DOPE  H10R 1863   0.772   1.677  15.750  0.0740  0.1707  0.1793
   15DOPE  C211 1864   0.606   1.525  15.736  0.4761 -0.3200 -0.4961
   15DOPE  H11R 1865   0.537   1.592  15.679 -0.3511  0.1459  0.9898
   15DOPE  H11S 1866   0.545   1.460  15.802  1.9714 -1.0474  0.1962
   15DOPE  C212 1867   0.697   1.445  15.640 -0.4020  0.0023  0.2576
   15DOPE  H12R 1868   0.643   1.360  15.593  3.0822 -1.2028 -1.8636
   15DOPE  H12S 1869   0.778   1.387  15.689 -0.3011 -1.7162 -1.7770
   15DOPE  C213 1870   0.766   1.523  15.520  0.2694 -0.4617 -0.0298
   15DOPE  H13R 1871   0.843   1.589  15.566 -1.1498 -0.0401  1.8436
   15DOPE  H13S 1872   0.688   1.590  15.479  0.2836  0.3716  1.2469
   15DOPE  C214 1873   0.822   1.437  15.410  0.1963  0.3825  0.1583
   15DOPE  H14R 1874   0.752   1.354  15.385  0.0144  0.1991  1.2087
   15DOPE  H14S 1875   0.913   1.383  15.444  0.6591  1.9044  1.4650
   15DOPE  C215 1876   0.854   1.520  15.289 -0.0590  0.5970 -0.3953
   15DOPE  H15R 1877   0.939   1.587  15.314  0.3904  0.1084 -0.5932
   15DOPE  H15S 1878   0.765   1.580  15.260  0.5634  2.1484  0.7550
   15DOPE  C216 1879   0.902   1.440  15.164 -0.1546  0.4805 -0.3114
   15DOPE  H16R 1880   0.830   1.367  15.121  1.9675 -1.9794  0.0729
   15DOPE  H16S 1881   0.997   1.391  15.194 -0.0730 -1.5102 -3.3491
   15DOPE  C217 1882   0.928   1.537  15.045  0.3368 -0.3245 -0.0945
   15DOPE  H17R 1883   0.999   1.617  15.074 -0.9832  0.4381  1.1837
   15DOPE  H17S 1884   0.842   1.603  15.018  0.4552 -0.0093  0.2984
   15DOPE  C218 1885   0.972   1.464  14.922  0.3174 -0.0106 -0.2077
   15DOPE  H18R 1886   1.069   1.412  14.938 -0.4591 -1.5993 -0.4882
   15DOPE  H18S 1887   0.987   1.540  14.842 -0.5816 -0.0013 -0.3726
   15DOPE  H18T 1888   0.900   1.397  14.870  0.5439 -1.0042  0.7167
   15DOPE   C33 1889   1.016   1.527  16.168 -0.2193 -0.3568 -0.8751
   15DOPE   H3X 1890   0.944   1.499  16.248  1.8639  0.3681  1.3802
   15DOPE   H3Y 1891   0.968   1.490  16.076 -0.6468 -1.0656 -0.3773
   15DOPE   C34 1892   1.030   1.679  16.180  0.0072  0.1979  0.1839
   15DOPE   H4X 1893   0.934   1.711  16.135  0.0263 -1.2279 -0.9653
   15DOPE   H4Y 1894   1.043   1.711  16.285  1.2947  0.3084  0.0069
   15DOPE   C35 1895   1.146   1.731  16.100 -0.1906 -0.3761 -0.4541
   15DOPE   H5X 1896   1.143   1.682  16.000  1.6142 -2.2210  0.3314
   15DOPE   H5Y 1897   1.243   1.700  16.143  0.1808 -1.1507 -1.7866
   15DOPE   C36 1898   1.149   1.882  16.089 -0.3952  0.7302  0.2342
   15DOPE   H6X 1899   1.164   1.923  16.191 -1.5484  1.3473  0.1778
   15DOPE   H6Y 1900   1.049   1.916  16.053 -0.8656 -1.7090 -1.0317
   15DOPE   C37 1901   1.258   1.930  15.991  0.8114  0.4921 -0.5304
   15DOPE   H7X 1902   1.352   1.894  16.038 -0.8092 -2.4940  0.6841
   15DOPE   H7Y 1903   1.224   1.885  15.895 -0.4688  0.0547  0.1121
   15DOPE   C38 1904   1.263   2.087  15.986  0.1340  0.4799  0.8309
   15DOPE   H8X 1905   1.366   2.127  15.974  0.4288 -1.0037 -3.0034
   15DOPE   H8Y 1906   1.229   2.120  16.086  2.4537  1.5375  1.3318
   15DOPE   C39 1907   1.163   2.140  15.884  0.5323 -0.7325 -0.3174
   15DOPE   H9X 1908   1.064   2.153  15.932  0.2461  0.5362 -1.2094
   15DOPE  C310 1909   1.183   2.172  15.757 -0.3574 -0.2250  0.1780
   15DOPE  H10X 1910   1.098   2.215  15.701  0.7182  0.8782 -0.6621
   15DOPE  C311 1911   1.320   2.163  15.684  0.3608  0.1572 -0.6939
   15DOPE  H11X 1912   1.356   2.267  15.669  1.1149  0.0838  0.4677
   15DOPE  H11Y 1913   1.397   2.115  15.748  1.5599  0.5670 -1.7829
   15DOPE  C312 1914   1.316   2.074  15.554 -0.6074  0.0380 -0.2329
   15DOPE  H12X 1915   1.418   2.075  15.510 -1.2936  0.9694 -1.9293
   15DOPE  H12Y 1916   1.246   2.131  15.488  1.2872  0.6189 -1.8378
   15DOPE  C313 1917   1.264   1.931  15.573 -0.1786 -0.5921 -0.1473
   15DOPE  H13X 1918   1.182   1.917  15.646 -0.6756  1.6665 -0.1889
   15DOPE  H13Y 1919   1.217   1.895  15.479 -1.7669 -1.3025  0.8763
   15DOPE  C314 1920   1.369   1.823  15.612  0.7325 -0.6808  0.8821
   15DOPE  H14X 1921   1.411   1.833  15.715  0.0424 -1.6630  1.2746
   15DOPE  H14Y 1922   1.450   1.835  15.536  0.5749 -0.6163  0.7260
   15DOPE  C315 1923   1.311   1.679  15.592 -0.4737 -0.4247  0.2249
   15DOPE  H15X 1924   1.399   1.615  15.611 -0.1595  0.0211  0.2988
   15DOPE  H15Y 1925   1.280   1.661  15.487 -0.2451  0.1943  0.0448
   15DOPE  C316 1926   1.208   1.634  15.699  0.3351  0.0843  0.0820
   15DOPE  H16X 1927   1.111   1.683  15.675  0.6142  0.4440 -0.3397
   15DOPE  H16Y 1928   1.257   1.672  15.791  1.1876 -0.5062 -0.1178
   15DOPE  C317 1929   1.185   1.487  15.707 -0.3189 -0.1166 -0.0600
   15DOPE  H17X 1930   1.139   1.455  15.611  2.3121 -1.8001 -0.8887
   15DOPE  H17Y 1931   1.277   1.426  15.722 -1.2321 -1.1488  1.8037
   15DOPE  C318 1932   1.089   1.438  15.817 -0.1440 -0.3564  0.1998
   15DOPE  H18X 1933   0.989   1.479  15.793 -2.0920 -4.6379  0.1204
   15DOPE  H18Y 1934   1.084   1.327  15.820  1.1547 -0.4311  0.3131
   15DOPE  H18Z 1935   1.113   1.490  15.912  0.0137  0.5046 -0.2981
   16DOPE     N 1936   7.462   4.144  16.701 -0.0702  0.5382  0.1748
   16DOPE   HN1 1937   7.530   4.144  16.779 -2.0132  0.4044  1.9698
   16DOPE   HN2 1938   7.440   4.239  16.664  1.1111  0.1261 -1.7590
   16DOPE   HN3 1939   7.375   4.105  16.743  0.6924 -0.4507  0.8915
   16DOPE   C12 1940   7.509   4.054  16.585  0.0960  0.5948  0.1212
   16DOPE  H12A 1941   7.609   4.094  16.556  0.9992 -0.5836  1.4906
   16DOPE  H12B 1942   7.439   4.066  16.500  0.9256 -1.4375 -0.9190
   16DOPE   C11 1943   7.529   3.903  16.618 -0.6930 -0.3309  0.2288
   16DOPE  H11A 1944   7.552   3.853  16.521 -0.2228  0.3584 -0.0297
   16DOPE  H11B 1945   7.430   3.873  16.658 -1.3815 -0.8603 -1.7659
   16DOPE     P 1946   7.688   3.751  16.755 -0.0231 -0.3402  0.3240
   16DOPE   O13 1947   7.649   3.702  16.888  0.2708 -0.2474 -0.2649
   16DOPE   O14 1948   7.833   3.755  16.713  0.6835  0.1541 -0.1609
   16DOPE   O11 1949   7.616   3.660  16.650 -0.2701 -0.1582  0.7159
   16DOPE   O12 1950   7.624   3.893  16.728  0.1453  0.0097 -0.1661
   16DOPE    C1 1951   7.618   3.514  16.652 -0.8939  0.3126 -0.4619
   16DOPE    HA 1952   7.514   3.476  16.663 -0.5609 -0.4304  0.1616
   16DOPE    HB 1953   7.684   3.474  16.732  0.5913 -2.2666 -2.7946
   16DOPE    C2 1954   7.674   3.476  16.508  0.2166  0.2142  0.1116
   16DOPE    HS 1955   7.777   3.511  16.489  0.4285  0.3901  1.4454
   16DOPE   O21 1956   7.587   3.534  16.416  0.2825 -0.5946 -0.0431
   16DOPE   C21 1957   7.632   3.641  16.349 -0.0320  0.2723  0.0195
   16DOPE   O22 1958   7.745   3.687  16.358 -0.1976  0.0989  0.9123
   16DOPE   C22 1959   7.528   3.687  16.244 -0.0140  0.2988 -0.4749
   16DOPE   H2R 1960   7.434   3.631  16.264  0.4145 -0.2250  0.1044
   16DOPE   H2S 1961   7.566   3.650  16.146 -1.4182 -0.2423 -0.8444
   16DOPE    C3 1962   7.673   3.319  16.493 -0.1844  0.0854  0.1098
   16DOPE    HX 1963   7.567   3.286  16.493  0.1211 -0.9556  0.6660
   16DOPE    HY 1964   7.717   3.263  16.578  1.5694 -0.5001 -1.1343
   16DOPE   O31 1965   7.738   3.280  16.372 -0.3459 -0.4283  0.2460
   16DOPE   C31 1966   7.846   3.197  16.377 -0.6976  0.2926  0.4290
   16DOPE   O32 1967   7.890   3.145  16.480  0.5148 -0.6979  0.2465
   16DOPE   C32 1968   7.903   3.192  16.241 -0.3767 -0.4916 -0.3773
   16DOPE   H2X 1969   7.866   3.098  16.195 -0.4462 -0.3711 -0.5721
   16DOPE   H2Y 1970   7.875   3.282  16.182 -1.3115 -0.3746  0.2286
   16DOPE   C23 1971   7.511   3.835  16.229 -0.1993  0.0963  0.1529
   16DOPE   H3R 1972   7.558   3.874  16.137 -1.2391 -0.1219 -0.4917
   16DOPE   H3S 1973   7.559   3.891  16.312  1.2669  0.5894 -0.9862
   16DOPE   C24 1974   7.359   3.875  16.227  0.4511 -0.2922 -0.1411
   16DOPE   H4R 1975   7.323   3.850  16.328 -0.3729  0.1132 -0.3309
   16DOPE   H4S 1976   7.306   3.808  16.155  2.3446 -0.8462 -1.1031
   16DOPE   C25 1977   7.323   4.023  16.204 -0.6672 -0.1030  0.0564
   16DOPE   H5R 1978   7.375   4.079  16.285 -1.8134 -2.2675  2.4475
   16DOPE   H5S 1979   7.213   4.033  16.216 -0.5177  1.2475  0.5065
   16DOPE   C26 1980   7.368   4.086  16.071  0.4170  0.7631 -0.4518
   16DOPE   H6R 1981   7.295   4.071  15.988  0.5757 -2.1587 -0.1770
   16DOPE   H6S 1982   7.460   4.040  16.028  0.2853 -0.3898  0.4605
   16DOPE   C27 1983   7.397   4.232  16.080  0.6786 -1.1671 -0.0539
   16DOPE   H7R 1984   7.482   4.244  16.150  1.9330 -0.7669 -1.5961
   16DOPE   H7S 1985   7.305   4.274  16.128 -1.0219 -1.7878 -2.5774
   16DOPE   C28 1986   7.437   4.303  15.945  0.3484  0.1387 -0.1880
   16DOPE   H8R 1987   7.450   4.412  15.963 -1.9704  0.0895  2.4270
   16DOPE   H8S 1988   7.349   4.292  15.879 -1.9932 -1.2239  2.8985
   16DOPE   C29 1989   7.564   4.244  15.892 -0.2169  0.0248  0.2318
   16DOPE   H9R 1990   7.642   4.232  15.969 -3.0796 -1.5957  3.1147
   16DOPE  C210 1991   7.588   4.208  15.766 -0.6017  0.2379  0.3210
   16DOPE  H10R 1992   7.689   4.167  15.752  0.0209  1.9406 -0.4596
   16DOPE  C211 1993   7.504   4.208  15.641 -0.3344  0.6866  0.5698
   16DOPE  H11R 1994   7.532   4.291  15.572 -0.2234  1.2544  1.2900
   16DOPE  H11S 1995   7.399   4.224  15.675  0.1582  4.0421  0.7998
   16DOPE  C212 1996   7.510   4.065  15.581 -0.2171 -0.2206  0.2039
   16DOPE  H12R 1997   7.465   3.985  15.642  0.8004 -1.5376 -0.7142
   16DOPE  H12S 1998   7.618   4.044  15.560  0.2774  1.7448  0.5537
   16DOPE  C213 1999   7.431   4.051  15.447  0.4659 -0.1457  0.0199
   16DOPE  H13R 2000   7.467   4.111  15.360  1.9761  1.0522  1.4157
   16DOPE  H13S 2001   7.329   4.091  15.468  0.4246 -0.7874  1.0906
   16DOPE  C214 2002   7.416   3.901  15.400 -0.1452 -0.1000 -0.0466
   16DOPE  H14R 2003   7.366   3.844  15.481 -0.7357  0.8683  0.2935
   16DOPE  H14S 2004   7.517   3.865  15.373 -0.7214 -0.8936 -1.2373
   16DOPE  C215 2005   7.339   3.892  15.264 -0.5539  0.3442 -0.1574
   16DOPE  H15R 2006   7.404   3.939  15.187  1.4702 -1.5751  0.2513
   16DOPE  H15S 2007   7.245   3.947  15.285  0.2328  1.7631 -0.2338
   16DOPE  C216 2008   7.308   3.751  15.228 -0.0618  0.6479 -0.3510
   16DOPE  H16R 2009   7.265   3.693  15.313  0.2021 -0.2636 -0.8294
   16DOPE  H16S 2010   7.401   3.694  15.209 -0.9120 -1.4695  1.4581
   16DOPE  C217 2011   7.207   3.748  15.115 -0.3656  0.5995  1.2365
   16DOPE  H17R 2012   7.260   3.797  15.031  0.6682 -2.5896 -0.1186
   16DOPE  H17S 2013   7.118   3.810  15.141 -0.7723 -0.1704  1.7152
   16DOPE  C218 2014   7.172   3.610  15.062 -0.0552 -0.5421 -0.2956
   16DOPE  H18R 2015   7.122   3.550  15.141  1.0244  0.5679  1.2953
   16DOPE  H18S 2016   7.268   3.563  15.032  0.3830 -0.6794  1.2536
   16DOPE  H18T 2017   7.105   3.604  14.973  0.1958 -2.1144 -0.4078
   16DOPE   C33 2018   8.056   3.182  16.252  0.1838  0.3162  0.6569
   16DOPE   H3X 2019   8.093   3.144  16.154 -4.3145 -1.3468 -0.6272
   16DOPE   H3Y 2020   8.088   3.110  16.331 -1.0751 -1.0041  0.0208
   16DOPE   C34 2021   8.137   3.313  16.264  0.0228 -0.3480  0.0188
   16DOPE   H4X 2022   8.099   3.352  16.361  1.1617 -3.6006  1.9452
   16DOPE   H4Y 2023   8.246   3.293  16.266 -0.2242 -1.7314  1.2305
   16DOPE   C35 2024   8.114   3.419  16.158 -0.9071  0.0210  0.0944
   16DOPE   H5X 2025   8.007   3.441  16.136 -0.1407  3.2339 -0.9356
   16DOPE   H5Y 2026   8.155   3.376  16.064  1.8357  0.5643  0.9486
   16DOPE   C36 2027   8.194   3.547  16.175  0.4305 -0.0023 -0.2914
   16DOPE   H6X 2028   8.299   3.511  16.171 -0.0842 -1.5773 -0.1440
   16DOPE   H6Y 2029   8.170   3.600  16.269 -1.3135  1.5193 -1.5359
   16DOPE   C37 2030   8.143   3.658  16.076 -0.3476 -0.4285 -0.2833
   16DOPE   H7X 2031   8.135   3.601  15.981  0.6752 -0.2318 -0.4978
   16DOPE   H7Y 2032   8.042   3.704  16.080  0.5466  1.6009  0.4346
   16DOPE   C38 2033   8.257   3.755  16.042  0.6614  0.2107 -0.7949
   16DOPE   H8X 2034   8.246   3.794  15.939  0.1207  0.3599 -0.6847
   16DOPE   H8Y 2035   8.354   3.701  16.043  1.1657  1.1000 -0.9093
   16DOPE   C39 2036   8.268   3.863  16.150  0.6986  0.2495  0.2721
   16DOPE   H9X 2037   8.287   3.830  16.253 -0.0476  0.2756  0.4280
   16DOPE  C310 2038   8.276   3.992  16.132 -0.2679  0.2108  0.8410
   16DOPE  H10X 2039   8.304   4.061  16.213 -0.2919  1.4680 -0.1774
   16DOPE  C311 2040   8.276   4.048  15.990  0.3011  0.7389  0.2054
   16DOPE  H11X 2041   8.198   4.004  15.925 -0.1673  1.2715  0.4060
   16DOPE  H11Y 2042   8.247   4.154  16.005  0.8445  0.6455  2.1057
   16DOPE  C312 2043   8.410   4.046  15.919 -0.4655  0.1898 -0.1906
   16DOPE  H12X 2044   8.449   3.942  15.920 -0.5581  0.1400 -1.1229
   16DOPE  H12Y 2045   8.493   4.094  15.974  0.2220 -2.0906  0.8749
   16DOPE  C313 2046   8.401   4.106  15.780 -0.3073  0.1131 -0.7586
   16DOPE  H13X 2047   8.357   4.034  15.707 -1.0232 -0.1174 -0.1218
   16DOPE  H13Y 2048   8.356   4.206  15.793 -0.9626 -0.1599 -0.8754
   16DOPE  C314 2049   8.543   4.122  15.738  0.5877 -0.1173 -0.3464
   16DOPE  H14X 2050   8.615   4.042  15.767  0.9321  0.4584  0.4097
   16DOPE  H14Y 2051   8.585   4.218  15.776 -2.9860  1.7502 -0.7493
   16DOPE  C315 2052   8.560   4.143  15.586  0.3793 -0.2221  0.4569
   16DOPE  H15X 2053   8.505   4.236  15.560 -2.9918 -2.1902 -0.0398
   16DOPE  H15Y 2054   8.508   4.059  15.536 -0.1915 -0.3511  1.2553
   16DOPE  C316 2055   8.705   4.166  15.546 -0.0717 -0.3702  0.6969
   16DOPE  H16X 2056   8.771   4.080  15.572  1.6512  0.8111  0.3541
   16DOPE  H16Y 2057   8.747   4.243  15.614 -0.9850  0.7654  0.0042
   16DOPE  C317 2058   8.720   4.200  15.393 -0.6627  0.2613  0.2864
   16DOPE  H17X 2059   8.633   4.254  15.350 -0.1315  0.7738 -0.1561
   16DOPE  H17Y 2060   8.796   4.280  15.385 -0.7803  0.3214 -0.3139
   16DOPE  C318 2061   8.758   4.072  15.310 -0.6531 -1.1046  0.5785
   16DOPE  H18X 2062   8.857   4.035  15.347 -0.7270 -2.2803 -0.3591
   16DOPE  H18Y 2063   8.681   3.992  15.316 -1.4435 -0.4467 -0.6161
   16DOPE  H18Z 2064   8.786   4.103  15.207 -0.9489  0.7688  1.0347
   17DOPE     N 2065   2.180   6.370  16.711 -0.2519  0.1727  0.0701
   17DOPE   HN1 2066   2.228   6.288  16.669 -1.5808 -0.7734  0.3170
   17DOPE   HN2 2067   2.094   6.339  16.762 -0.0553 -0.5600 -0.0360
   17DOPE   HN3 2068   2.143   6.428  16.633 -2.8077  0.1751  1.1776
   17DOPE   C12 2069   2.274   6.426  16.817 -0.5882  0.1382 -0.2796
   17DOPE  H12A 2070   2.224   6.520  16.847 -2.4481 -0.6389 -0.8027
   17DOPE  H12B 2071   2.375   6.447  16.778 -0.6620  0.8347 -0.1033
   17DOPE   C11 2072   2.281   6.333  16.939  0.1800  0.2735 -0.7344
   17DOPE  H11A 2073   2.184   6.316  16.991  0.4091  0.1700 -0.3287
   17DOPE  H11B 2074   2.340   6.374  17.024  0.1863 -0.7313 -0.2449
   17DOPE     P 2075   2.449   6.128  16.979  0.5262 -0.1682 -0.0224
   17DOPE   O13 2076   2.389   6.097  17.108 -0.0830  0.9797  0.1680
   17DOPE   O14 2077   2.573   6.205  16.985  0.2042 -0.2620 -0.1620
   17DOPE   O11 2078   2.455   5.991  16.897  0.7810  0.7049  0.2892
   17DOPE   O12 2079   2.343   6.214  16.892  0.4322 -0.0151  0.0740
   17DOPE    C1 2080   2.554   5.986  16.797 -0.6583 -0.1914 -0.7179
   17DOPE    HA 2081   2.579   5.879  16.780  0.0554  0.1950 -2.2923
   17DOPE    HB 2082   2.644   6.046  16.823 -1.1137  0.1924 -0.0039
   17DOPE    C2 2083   2.512   6.025  16.657  0.1652  0.4125  0.1288
   17DOPE    HS 2084   2.507   6.136  16.649  2.8221  0.6523  1.0263
   17DOPE   O21 2085   2.391   5.953  16.633  0.6971  0.3635  0.0904
   17DOPE   C21 2086   2.288   6.024  16.587  0.4715 -0.2396 -1.0217
   17DOPE   O22 2087   2.280   6.148  16.600 -0.5732  0.0004  0.4551
   17DOPE   C22 2088   2.188   5.924  16.524  0.6178 -0.1216 -0.6133
   17DOPE   H2R 2089   2.166   5.853  16.607 -1.5411  1.2892  0.1109
   17DOPE   H2S 2090   2.232   5.871  16.437  0.9141  0.7126 -0.9890
   17DOPE    C3 2091   2.618   5.995  16.548  0.2139 -0.2770  0.4479
   17DOPE    HX 2092   2.642   5.887  16.563  1.1264 -0.2349 -0.5473
   17DOPE    HY 2093   2.714   6.051  16.561 -1.3211  2.3523  1.1025
   17DOPE   O31 2094   2.566   6.022  16.416  0.6148 -0.5589  0.1141
   17DOPE   C31 2095   2.559   6.152  16.386  0.0134 -0.5400  0.2474
   17DOPE   O32 2096   2.602   6.240  16.457 -0.1283 -0.0087 -0.3801
   17DOPE   C32 2097   2.482   6.172  16.249 -0.2397  0.0064 -0.3947
   17DOPE   H2X 2098   2.505   6.083  16.187  2.1870 -0.0502  0.4928
   17DOPE   H2Y 2099   2.371   6.183  16.260 -0.1650  1.9992 -1.0910
   17DOPE   C23 2100   2.050   5.990  16.480 -0.0441 -0.2714 -0.8308
   17DOPE   H3R 2101   2.012   6.050  16.565  2.5486 -0.4917  0.5770
   17DOPE   H3S 2102   1.972   5.914  16.460 -1.3571  0.8798 -0.2728
   17DOPE   C24 2103   2.056   6.082  16.360 -0.0569  0.2852 -0.0519
   17DOPE   H4R 2104   2.118   6.173  16.378  2.1888 -1.0339 -0.7230
   17DOPE   H4S 2105   1.952   6.121  16.350 -0.1355 -0.0632 -0.6618
   17DOPE   C25 2106   2.100   6.012  16.235  0.0658 -0.3401 -0.2310
   17DOPE   H5R 2107   2.053   5.912  16.219 -0.0883 -0.6228  1.7064
   17DOPE   H5S 2108   2.209   5.994  16.236  0.0921 -0.4244 -1.8677
   17DOPE   C26 2109   2.076   6.101  16.112 -0.2265  0.6223 -0.3247
   17DOPE   H6R 2110   2.117   6.203  16.128  0.5273  0.0107  2.0471
   17DOPE   H6S 2111   1.966   6.111  16.102 -0.5511  1.3351  2.8565
   17DOPE   C27 2112   2.144   6.035  15.986 -0.2604 -0.3688  0.1972
   17DOPE   H7R 2113   2.084   5.946  15.958 -1.2027  0.4722 -0.5359
   17DOPE   H7S 2114   2.242   6.014  16.033  1.2610  3.1080 -1.0881
   17DOPE   C28 2115   2.155   6.128  15.859 -0.0916  0.0356 -0.2395
   17DOPE   H8R 2116   2.205   6.075  15.775 -1.1208 -0.1877 -0.7164
   17DOPE   H8S 2117   2.217   6.219  15.878 -1.6568  1.1128 -0.0723
   17DOPE   C29 2118   2.017   6.175  15.809  0.1645  0.0324 -0.1347
   17DOPE   H9R 2119   1.963   6.256  15.862  0.1535 -0.1778  0.1797
   17DOPE  C210 2120   1.957   6.131  15.696 -0.2995 -0.0060 -0.0729
   17DOPE  H10R 2121   1.884   6.202  15.655 -0.2685  0.5297  0.7791
   17DOPE  C211 2122   2.024   6.029  15.602 -0.5661  0.5065 -0.5363
   17DOPE  H11R 2123   2.099   5.967  15.656  0.1049  0.4869 -1.4644
   17DOPE  H11S 2124   2.071   6.086  15.519 -2.4359 -0.2731 -2.2446
   17DOPE  C212 2125   1.912   5.938  15.550 -0.5440 -0.0357 -0.3583
   17DOPE  H12R 2126   1.828   5.986  15.496 -1.0884 -0.6434 -0.0690
   17DOPE  H12S 2127   1.863   5.899  15.642  0.4846  1.4996  0.8811
   17DOPE  C213 2128   1.958   5.825  15.464 -0.1946  0.4176 -0.3391
   17DOPE  H13R 2129   1.867   5.776  15.425 -0.3491  0.2517  0.2169
   17DOPE  H13S 2130   2.018   5.761  15.532 -2.5899 -2.5009 -0.7835
   17DOPE  C214 2131   2.055   5.844  15.343  0.2193  0.3121 -0.1170
   17DOPE  H14R 2132   2.086   5.745  15.302 -0.0684 -0.1660  0.7981
   17DOPE  H14S 2133   2.144   5.903  15.374  0.5462  0.9384 -2.1086
   17DOPE  C215 2134   1.984   5.926  15.231 -0.1915  1.5013  0.7925
   17DOPE  H15R 2135   1.978   6.027  15.277 -0.7492  1.9857 -0.3059
   17DOPE  H15S 2136   1.880   5.892  15.209  0.5890  0.0368 -0.9290
   17DOPE  C216 2137   2.074   5.957  15.112  0.3506  0.3574 -0.7568
   17DOPE  H16R 2138   2.082   5.869  15.046  1.4340  0.4861 -0.8104
   17DOPE  H16S 2139   2.178   5.978  15.143  0.8825 -2.6095 -0.3274
   17DOPE  C217 2140   2.019   6.073  15.027  0.1295  1.5043  0.3432
   17DOPE  H17R 2141   2.015   6.169  15.083  0.1511  0.6067  1.9397
   17DOPE  H17S 2142   1.916   6.036  15.002 -0.5673  1.8227  2.5599
   17DOPE  C218 2143   2.093   6.100  14.894  0.6557  0.2177 -0.4639
   17DOPE  H18R 2144   2.043   6.171  14.825 -2.8167 -1.6918 -0.1147
   17DOPE  H18S 2145   2.093   6.005  14.836 -1.9757  0.3480 -0.8077
   17DOPE  H18T 2146   2.197   6.124  14.927  0.9348 -1.7468  0.2159
   17DOPE   C33 2147   2.523   6.293  16.161 -0.4115 -0.1118  0.2910
   17DOPE   H3X 2148   2.631   6.297  16.138  0.0674  0.4631  2.4379
   17DOPE   H3Y 2149   2.510   6.392  16.210  0.6168  1.0625 -1.7162
   17DOPE   C34 2150   2.449   6.283  16.026 -0.7454  0.4124  0.1118
   17DOPE   H4X 2151   2.491   6.192  15.978  2.5530  0.9168  1.7430
   17DOPE   H4Y 2152   2.339   6.271  16.040 -0.5626 -0.8648  0.6023
   17DOPE   C35 2153   2.476   6.399  15.927  0.5771 -0.1571 -0.2959
   17DOPE   H5X 2154   2.584   6.415  15.904  0.3159  3.6680  0.4600
   17DOPE   H5Y 2155   2.447   6.495  15.975  1.4733  0.0497 -0.1424
   17DOPE   C36 2156   2.410   6.392  15.787 -0.2277 -0.2639 -1.0944
   17DOPE   H6X 2157   2.303   6.382  15.814  0.4976 -0.3254  2.1662
   17DOPE   H6Y 2158   2.442   6.297  15.739  0.5082 -0.0108 -1.1143
   17DOPE   C37 2159   2.439   6.500  15.679 -0.5518 -0.0334 -0.0193
   17DOPE   H7X 2160   2.417   6.482  15.572  1.8876 -1.6556 -0.3207
   17DOPE   H7Y 2161   2.383   6.593  15.705  0.8466  1.2441 -1.3686
   17DOPE   C38 2162   2.589   6.543  15.677 -0.1703  0.3458  0.1265
   17DOPE   H8X 2163   2.645   6.449  15.663 -1.6975 -1.1651  3.0933
   17DOPE   H8Y 2164   2.613   6.572  15.782 -1.7871 -1.7769  1.1499
   17DOPE   C39 2165   2.631   6.647  15.571 -0.6883  0.4215  0.0693
   17DOPE   H9X 2166   2.612   6.750  15.604 -1.4688 -0.2837  1.9497
   17DOPE  C310 2167   2.703   6.619  15.464 -0.4742  0.1271  0.5638
   17DOPE  H10X 2168   2.731   6.697  15.391  0.6035 -0.5054  0.2855
   17DOPE  C311 2169   2.752   6.490  15.416  0.4971 -0.9495  0.1772
   17DOPE  H11X 2170   2.859   6.482  15.447  0.9188  1.6677 -0.3717
   17DOPE  H11Y 2171   2.701   6.410  15.474 -0.1925  0.0430  0.9779
   17DOPE  C312 2172   2.743   6.454  15.271  0.3231 -0.0457  0.3261
   17DOPE  H12X 2173   2.796   6.529  15.208  0.6114 -0.3320  0.2251
   17DOPE  H12Y 2174   2.640   6.455  15.229  1.2884  0.2865 -2.2042
   17DOPE  C313 2175   2.800   6.310  15.253 -0.2408 -0.6241  0.6362
   17DOPE  H13X 2176   2.908   6.321  15.276 -0.0609 -0.9886 -0.0126
   17DOPE  H13Y 2177   2.756   6.233  15.321  1.3681 -1.2238  1.0566
   17DOPE  C314 2178   2.798   6.266  15.101  0.2984 -0.0585  0.3992
   17DOPE  H14X 2179   2.776   6.347  15.028  0.6773 -1.7848 -1.7663
   17DOPE  H14Y 2180   2.713   6.193  15.095 -1.0494  1.4785  0.0929
   17DOPE  C315 2181   2.934   6.208  15.041 -0.6493 -0.0982 -0.4513
   17DOPE  H15X 2182   2.903   6.159  14.947 -3.5828 -1.9440  1.2874
   17DOPE  H15Y 2183   2.969   6.128  15.110 -2.9983 -0.4585  0.4509
   17DOPE  C316 2184   3.052   6.305  15.018 -0.8613 -1.3516 -0.6146
   17DOPE  H16X 2185   3.140   6.239  14.998 -0.1443  0.0716 -2.4677
   17DOPE  H16Y 2186   3.064   6.368  15.108 -2.1268 -0.5963 -0.9622
   17DOPE  C317 2187   3.033   6.401  14.901 -0.5160 -0.3653 -0.0127
   17DOPE  H17X 2188   2.924   6.410  14.884 -0.1709  0.0277 -2.2623
   17DOPE  H17Y 2189   3.071   6.501  14.930  1.6765 -1.0533 -0.3640
   17DOPE  C318 2190   3.113   6.360  14.781 -0.7998 -0.7318 -0.0235
   17DOPE  H18X 2191   3.086   6.267  14.727  1.5367 -0.0664 -2.5729
   17DOPE  H18Y 2192   3.102   6.448  14.713  1.4023 -0.6665 -0.3647
   17DOPE  H18Z 2193   3.223   6.348  14.786 -0.4580 -0.0172 -3.2177
   18DOPE     N 2194   0.208   4.500  17.101  0.2927 -0.3883  0.1300
   18DOPE   HN1 2195   0.262   4.415  17.077  1.6072  0.6454 -0.7098
   18DOPE   HN2 2196   0.162   4.547  17.020 -2.9234 -0.1395  1.9458
   18DOPE   HN3 2197   0.265   4.571  17.151 -0.4170 -1.2027  2.1794
   18DOPE   C12 2198   0.088   4.453  17.177 -0.3617  0.3455  0.3294
   18DOPE  H12A 2199   0.025   4.542  17.199 -1.4872  0.1121 -1.7377
   18DOPE  H12B 2200   0.119   4.392  17.265  1.0992 -0.1781 -0.5105
   18DOPE   C11 2201   0.016   4.347  17.089 -0.0361  0.6606  0.3890
   18DOPE  H11A 2202  -0.004   4.391  16.989 -0.5132 -0.1147  0.1328
   18DOPE  H11B 2203  -0.080   4.312  17.133  0.8128 -1.8847  0.3992
   18DOPE     P 2204   0.078   4.153  16.935 -0.3094 -0.2730  0.1107
   18DOPE   O13 2205  -0.066   4.138  16.917 -0.3211 -0.1241 -1.0399
   18DOPE   O14 2206   0.159   4.031  16.949 -0.1597 -0.3254  0.0636
   18DOPE   O11 2207   0.135   4.259  16.827 -0.2967  0.2362 -0.4812
   18DOPE   O12 2208   0.101   4.231  17.068 -0.0828 -0.3277 -0.3196
   18DOPE    C1 2209   0.266   4.277  16.797 -0.3662 -0.3423 -0.2915
   18DOPE    HA 2210   0.330   4.203  16.850  0.3026  0.7069  0.3957
   18DOPE    HB 2211   0.316   4.370  16.829  0.3281  0.3294 -3.0620
   18DOPE    C2 2212   0.293   4.275  16.643 -0.1534  0.0341 -0.4392
   18DOPE    HS 2213   0.399   4.302  16.621 -0.0959  0.5677  0.4411
   18DOPE   O21 2214   0.218   4.376  16.575  0.6197 -0.0037 -0.1760
   18DOPE   C21 2215   0.258   4.506  16.593  1.3598  0.4142  0.3260
   18DOPE   O22 2216   0.347   4.539  16.670 -0.4973  0.0157  0.1651
   18DOPE   C22 2217   0.178   4.597  16.509 -0.3843 -0.0506 -0.2053
   18DOPE   H2R 2218   0.173   4.696  16.559  1.1618  0.9568 -1.9213
   18DOPE   H2S 2219   0.077   4.551  16.505 -0.9003  1.0654 -0.4426
   18DOPE    C3 2220   0.262   4.136  16.575 -0.2016  0.4930 -0.1499
   18DOPE    HX 2221   0.161   4.099  16.603 -0.6093  0.4684 -1.6100
   18DOPE    HY 2222   0.324   4.060  16.629 -0.4928 -0.5129 -1.1900
   18DOPE   O31 2223   0.300   4.120  16.434  0.2364 -0.2662 -0.3219
   18DOPE   C31 2224   0.196   4.119  16.350 -0.3533 -0.2354 -0.2325
   18DOPE   O32 2225   0.081   4.138  16.382 -0.3259 -0.0609 -0.2998
   18DOPE   C32 2226   0.242   4.090  16.213 -0.2293 -0.3168  0.0263
   18DOPE   H2X 2227   0.281   4.185  16.171 -2.0462  0.2296 -0.5144
   18DOPE   H2Y 2228   0.323   4.015  16.223  1.6027  1.2840 -1.8278
   18DOPE   C23 2229   0.229   4.612  16.370 -0.3453  0.1454 -0.0984
   18DOPE   H3R 2230   0.327   4.666  16.370 -0.0253 -0.4212 -0.4980
   18DOPE   H3S 2231   0.165   4.690  16.326 -0.3410  1.1108  1.5145
   18DOPE   C24 2232   0.232   4.492  16.285  1.1323 -0.9098 -0.5089
   18DOPE   H4R 2233   0.136   4.436  16.286  0.3211  0.4567 -0.7646
   18DOPE   H4S 2234   0.312   4.419  16.311  1.9803 -0.3799 -1.5641
   18DOPE   C25 2235   0.260   4.528  16.139  0.1411  0.4070  0.3418
   18DOPE   H5R 2236   0.356   4.582  16.155  2.1676 -2.6095 -0.8251
   18DOPE   H5S 2237   0.191   4.602  16.092 -1.1429 -0.8601  0.1800
   18DOPE   C26 2238   0.294   4.412  16.044 -0.2541  0.2429  0.9762
   18DOPE   H6R 2239   0.205   4.350  16.019 -0.3649  1.1913 -1.2016
   18DOPE   H6S 2240   0.376   4.351  16.088  0.4308  0.2282 -0.2728
   18DOPE   C27 2241   0.345   4.463  15.902  0.3237 -0.4748 -0.1821
   18DOPE   H7R 2242   0.447   4.501  15.924  1.2290 -1.3301 -2.5940
   18DOPE   H7S 2243   0.268   4.531  15.860 -1.2354 -3.5896 -2.8164
   18DOPE   C28 2244   0.352   4.348  15.798 -0.4399  0.4379  0.2431
   18DOPE   H8R 2245   0.256   4.293  15.789  0.9042 -1.9462 -0.6061
   18DOPE   H8S 2246   0.417   4.274  15.849 -1.5472  0.2082  1.3533
   18DOPE   C29 2247   0.426   4.392  15.670 -0.1499 -0.2688  0.6493
   18DOPE   H9R 2248   0.514   4.459  15.671 -0.0211 -0.4422  1.5553
   18DOPE  C210 2249   0.395   4.341  15.549 -0.4433 -0.3003  0.3938
   18DOPE  H10R 2250   0.429   4.389  15.457 -1.0994 -0.5618  0.0008
   18DOPE  C211 2251   0.297   4.234  15.512 -0.2779  0.6953  0.2756
   18DOPE  H11R 2252   0.254   4.263  15.414  1.4056  1.4694 -0.2758
   18DOPE  H11S 2253   0.209   4.206  15.574 -0.7181 -1.8720 -1.3618
   18DOPE  C212 2254   0.366   4.097  15.497 -0.3609  0.5521  0.3181
   18DOPE  H12R 2255   0.284   4.026  15.477 -1.5205  1.9258  0.0616
   18DOPE  H12S 2256   0.407   4.073  15.598 -2.1673 -0.6231  0.8207
   18DOPE  C213 2257   0.449   4.080  15.370 -0.9408 -0.1343 -0.2428
   18DOPE  H13R 2258   0.529   4.156  15.378 -1.9100  0.7758  1.0523
   18DOPE  H13S 2259   0.384   4.100  15.282 -2.5446 -2.0767  0.4205
   18DOPE  C214 2260   0.501   3.939  15.357 -0.0773 -0.3498 -1.0187
   18DOPE  H14R 2261   0.418   3.867  15.378  0.1916  0.2177  2.4230
   18DOPE  H14S 2262   0.562   3.909  15.445  0.3223 -1.9964 -1.8078
   18DOPE  C215 2263   0.586   3.901  15.233  0.6962  0.3561 -0.1380
   18DOPE  H15R 2264   0.551   3.800  15.202  0.8033 -0.1191  1.2500
   18DOPE  H15S 2265   0.697   3.902  15.246  0.8869  1.4453 -1.6255
   18DOPE  C216 2266   0.570   3.988  15.103  0.1791  0.0370 -0.1710
   18DOPE  H16R 2267   0.602   4.092  15.124 -1.1538  0.4190  0.0587
   18DOPE  H16S 2268   0.462   3.995  15.076  0.0281  2.8926  0.8614
   18DOPE  C217 2269   0.655   3.932  14.990 -0.1659  0.1740  0.9060
   18DOPE  H17R 2270   0.642   3.822  14.982  0.2163  0.1267  0.9357
   18DOPE  H17S 2271   0.762   3.961  15.003 -0.2924  0.4901  1.2521
   18DOPE  C218 2272   0.631   3.986  14.847  0.2775  0.7822 -0.4723
   18DOPE  H18R 2273   0.660   4.093  14.855  0.3319  0.7833 -0.6872
   18DOPE  H18S 2274   0.528   3.957  14.819  1.5516 -2.7704 -2.1635
   18DOPE  H18T 2275   0.708   3.943  14.779 -0.8788  0.9327 -1.9013
   18DOPE   C33 2276   0.140   4.027  16.112  0.6039  0.5184 -0.0267
   18DOPE   H3X 2277   0.058   4.100  16.097  0.5492  0.6810  0.9820
   18DOPE   H3Y 2278   0.095   3.933  16.150 -0.3087  0.8435 -0.2709
   18DOPE   C34 2279   0.204   4.003  15.975 -0.2532 -0.1207  0.6440
   18DOPE   H4X 2280   0.235   4.093  15.918 -0.4433 -0.7976 -0.5646
   18DOPE   H4Y 2281   0.295   3.941  15.992  0.5770  1.4659  2.3046
   18DOPE   C35 2282   0.101   3.928  15.885 -0.4967 -0.0955  0.2869
   18DOPE   H5X 2283   0.006   3.986  15.883  0.7209  1.9585 -0.3392
   18DOPE   H5Y 2284   0.095   3.824  15.925  1.2529 -0.5453 -0.5261
   18DOPE   C36 2285   0.151   3.913  15.744  0.0166  0.2657  0.0736
   18DOPE   H6X 2286   0.259   3.890  15.735 -0.1448 -0.2102 -0.7270
   18DOPE   H6Y 2287   0.125   4.006  15.689  0.1158  0.5143  0.4423
   18DOPE   C37 2288   0.077   3.801  15.675 -0.2438  0.2119 -0.6453
   18DOPE   H7X 2289   0.096   3.706  15.728 -0.2744  1.0303  0.9039
   18DOPE   H7Y 2290  -0.030   3.824  15.694  0.2091  0.7696  1.5257
   18DOPE   C38 2291   0.117   3.788  15.529 -0.0238  0.0608 -0.5738
   18DOPE   H8X 2292   0.226   3.770  15.518 -0.3354 -1.1156 -2.0146
   18DOPE   H8Y 2293   0.102   3.881  15.470 -0.5492  0.4390  0.1387
   18DOPE   C39 2294   0.028   3.693  15.456  0.4435  0.3034 -0.1577
   18DOPE   H9X 2295  -0.073   3.679  15.499  0.7648 -4.5180 -0.5237
   18DOPE  C310 2296   0.066   3.619  15.356  0.5305 -0.1006  0.9890
   18DOPE  H10X 2297  -0.001   3.556  15.295  1.0865  0.1946  0.0557
   18DOPE  C311 2298   0.208   3.620  15.302 -0.2001  0.1316  0.2888
   18DOPE  H11X 2299   0.251   3.720  15.325 -0.4034  0.1223  0.7263
   18DOPE  H11Y 2300   0.264   3.546  15.362  0.0172  1.0346  1.2348
   18DOPE  C312 2301   0.222   3.597  15.151  0.3367  0.1525 -0.1104
   18DOPE  H12X 2302   0.153   3.660  15.090 -0.5334  0.3480  1.0334
   18DOPE  H12Y 2303   0.216   3.488  15.130 -1.8343  0.4737 -1.6089
   18DOPE  C313 2304   0.366   3.638  15.104  0.4354  0.2215 -0.2446
   18DOPE  H13X 2305   0.384   3.748  15.111 -0.1129  0.3436 -0.7563
   18DOPE  H13Y 2306   0.442   3.592  15.171  0.7672  0.1326 -0.6836
   18DOPE  C314 2307   0.399   3.582  14.962  0.3554  0.5803 -0.7027
   18DOPE  H14X 2308   0.371   3.474  14.970 -0.5004  0.8845  0.8096
   18DOPE  H14Y 2309   0.506   3.600  14.939  1.0212  0.7976  2.1218
   18DOPE  C315 2310   0.317   3.643  14.844 -0.4199  1.0458 -0.5644
   18DOPE  H15X 2311   0.322   3.754  14.845  0.3140  1.0203 -0.7889
   18DOPE  H15Y 2312   0.213   3.605  14.845  0.2817 -1.0599  1.1257
   18DOPE  C316 2313   0.369   3.594  14.711 -0.4214 -0.2755 -0.2096
   18DOPE  H16X 2314   0.355   3.484  14.700  0.5094 -0.4592  0.3166
   18DOPE  H16Y 2315   0.472   3.635  14.709 -0.6475  0.2801 -0.6155
   18DOPE  C317 2316   0.296   3.660  14.601 -0.0320 -0.3851  0.3395
   18DOPE  H17X 2317   0.317   3.613  14.503  2.1533  0.3398  0.4038
   18DOPE  H17Y 2318   0.189   3.642  14.624  0.2470 -0.2674  1.8428
   18DOPE  C318 2319   0.319   3.810  14.580 -0.6847  0.2695 -0.1237
   18DOPE  H18X 2320   0.426   3.828  14.558  0.0904 -3.4745 -0.0017
   18DOPE  H18Y 2321   0.270   3.852  14.489 -1.9737 -0.2361  0.3120
   18DOPE  H18Z 2322   0.287   3.863  14.672 -0.3778 -0.9821  0.7287
   19DOPE     N 2323   7.274   4.420  17.171  1.2170 -0.2557 -0.0846
   19DOPE   HN1 2324   7.352   4.461  17.227  0.2249 -0.7296  1.7286
   19DOPE   HN2 2325   7.226   4.342  17.221 -0.6053 -0.4407 -1.9620
   19DOPE   HN3 2326   7.311   4.392  17.078  2.8183  5.1355 -1.4744
   19DOPE   C12 2327   7.172   4.521  17.127  0.3487  0.2730 -0.1036
   19DOPE  H12A 2328   7.213   4.623  17.132 -1.1604  0.8701  3.6558
   19DOPE  H12B 2329   7.082   4.524  17.193  1.4957  0.2577  1.5121
   19DOPE   C11 2330   7.122   4.475  16.983 -0.3875 -0.3151 -0.2610
   19DOPE  H11A 2331   7.077   4.562  16.931  1.5749 -0.7032 -2.8218
   19DOPE  H11B 2332   7.051   4.391  17.001 -1.1666 -0.0069 -1.6902
   19DOPE     P 2333   7.269   4.457  16.760 -0.1480 -0.1790  0.1422
   19DOPE   O13 2334   7.400   4.394  16.736  0.7460  0.3905  0.5225
   19DOPE   O14 2335   7.272   4.603  16.751 -0.0964 -0.4931 -0.0244
   19DOPE   O11 2336   7.157   4.398  16.653 -0.9153 -0.3951 -0.2730
   19DOPE   O12 2337   7.227   4.412  16.910 -0.1660  0.0365  0.5549
   19DOPE    C1 2338   7.093   4.279  16.696  0.7723  0.1087  0.0326
   19DOPE    HA 2339   7.064   4.285  16.803  2.4122  1.6600  0.4403
   19DOPE    HB 2340   7.156   4.189  16.686  0.8406 -0.1807  2.6005
   19DOPE    C2 2341   6.959   4.259  16.609 -0.0481 -0.0552 -0.0071
   19DOPE    HS 2342   6.912   4.162  16.637  0.3005 -0.8453 -2.0201
   19DOPE   O21 2343   6.991   4.260  16.471 -0.0386 -0.2442 -0.5784
   19DOPE   C21 2344   6.917   4.182  16.397  1.1130  0.1730  0.2656
   19DOPE   O22 2345   6.822   4.116  16.436  0.0810  0.3998 -0.4586
   19DOPE   C22 2346   6.958   4.187  16.247 -0.6541  0.3352  0.5922
   19DOPE   H2R 2347   6.975   4.081  16.218 -0.6163  0.8386 -1.3404
   19DOPE   H2S 2348   7.056   4.240  16.244  0.3868 -1.2712  2.8607
   19DOPE    C3 2349   6.857   4.381  16.638  0.2693 -0.1909  0.3266
   19DOPE    HX 2350   6.912   4.475  16.617  0.9558 -0.8966 -1.2785
   19DOPE    HY 2351   6.838   4.377  16.748 -2.6112  1.4435 -0.0215
   19DOPE   O31 2352   6.726   4.371  16.576  0.1739 -0.0309 -0.1679
   19DOPE   C31 2353   6.642   4.273  16.617  0.3447  0.1714 -0.6328
   19DOPE   O32 2354   6.662   4.207  16.719 -0.1076  0.0577  0.0177
   19DOPE   C32 2355   6.517   4.263  16.523 -0.4073 -0.6198 -0.1781
   19DOPE   H2X 2356   6.526   4.326  16.431  0.9784 -1.4210 -0.6210
   19DOPE   H2Y 2357   6.517   4.155  16.497 -0.2577 -0.6453 -0.0720
   19DOPE   C23 2358   6.855   4.261  16.157 -0.7915  0.4791  0.3675
   19DOPE   H3R 2359   6.916   4.296  16.071  1.4788  0.4956  1.8959
   19DOPE   H3S 2360   6.810   4.351  16.202 -0.1986  2.2934 -2.4043
   19DOPE   C24 2361   6.743   4.161  16.123  0.2821  0.7980  0.0569
   19DOPE   H4R 2362   6.699   4.133  16.221  1.0348  1.6298  0.6426
   19DOPE   H4S 2363   6.788   4.067  16.084 -0.8455  0.3375 -0.1902
   19DOPE   C25 2364   6.644   4.216  16.026 -0.3017  0.3083 -0.2768
   19DOPE   H5R 2365   6.633   4.326  16.021 -3.8557  0.0603 -0.4907
   19DOPE   H5S 2366   6.544   4.179  16.057  0.3242 -2.1039 -0.9095
   19DOPE   C26 2367   6.666   4.161  15.888  0.0405 -0.0277 -0.1505
   19DOPE   H6R 2368   6.687   4.053  15.899  0.6903  0.2162  1.2251
   19DOPE   H6S 2369   6.749   4.220  15.844  0.4610 -0.6379 -0.1691
   19DOPE   C27 2370   6.539   4.171  15.800 -0.3455 -0.0695 -0.4627
   19DOPE   H7R 2371   6.479   4.263  15.817 -1.0001 -0.6690  0.5621
   19DOPE   H7S 2372   6.461   4.097  15.829 -0.4705  0.7737  1.4508
   19DOPE   C28 2373   6.563   4.163  15.652  0.6127  0.2182  0.4852
   19DOPE   H8R 2374   6.458   4.169  15.616  0.3691  1.7727  1.3679
   19DOPE   H8S 2375   6.598   4.060  15.627 -2.7226 -1.3854  1.7416
   19DOPE   C29 2376   6.638   4.273  15.587  0.5469 -0.3613 -1.3215
   19DOPE   H9R 2377   6.695   4.332  15.661 -0.9479  0.2612 -0.6413
   19DOPE  C210 2378   6.668   4.285  15.456 -0.8073 -0.3585 -0.1318
   19DOPE  H10R 2379   6.740   4.365  15.435 -1.3848  0.4327  0.8102
   19DOPE  C211 2380   6.640   4.193  15.343  0.4779 -1.2928 -0.5700
   19DOPE  H11R 2381   6.582   4.248  15.266 -1.4838 -1.2443  0.8535
   19DOPE  H11S 2382   6.567   4.112  15.365  0.4411 -1.5872 -1.7521
   19DOPE  C212 2383   6.762   4.117  15.278  0.1437 -0.4489 -0.3218
   19DOPE  H12R 2384   6.799   4.045  15.354 -1.6734 -0.6017  0.4692
   19DOPE  H12S 2385   6.845   4.189  15.259 -0.0251 -0.0159  0.5235
   19DOPE  C213 2386   6.714   4.053  15.145 -0.0256  0.0434  0.0486
   19DOPE  H13R 2387   6.715   4.117  15.054 -0.1999 -2.2827 -1.6741
   19DOPE  H13S 2388   6.613   4.007  15.154  0.5226 -0.9811  1.2572
   19DOPE  C214 2389   6.803   3.929  15.117  0.4219 -0.0015  0.5800
   19DOPE  H14R 2390   6.801   3.870  15.211 -5.1332 -1.0811  0.1431
   19DOPE  H14S 2391   6.904   3.957  15.080 -0.1347 -2.2167 -3.1231
   19DOPE  C215 2392   6.753   3.841  14.998  0.4807  0.0952 -0.1985
   19DOPE  H15R 2393   6.734   3.922  14.925 -2.7843  0.5722  1.0176
   19DOPE  H15S 2394   6.660   3.783  15.012 -0.1025  0.7146 -1.4055
   19DOPE  C216 2395   6.866   3.743  14.953  0.0732 -0.3996  0.4181
   19DOPE  H16R 2396   6.881   3.658  15.022  0.4431 -0.8462 -0.1967
   19DOPE  H16S 2397   6.965   3.790  14.935  1.2895 -3.3018 -1.1726
   19DOPE  C217 2398   6.833   3.683  14.817 -0.7569  0.0174  0.2034
   19DOPE  H17R 2399   6.737   3.628  14.828 -0.5536 -0.7193 -1.3713
   19DOPE  H17S 2400   6.915   3.614  14.789  0.8107  1.6223  0.5867
   19DOPE  C218 2401   6.805   3.777  14.696  0.4415 -0.2131 -0.9443
   19DOPE  H18R 2402   6.817   3.720  14.601 -0.5420  0.3265 -1.4029
   19DOPE  H18S 2403   6.877   3.861  14.703 -0.6482  0.5919  1.8412
   19DOPE  H18T 2404   6.703   3.818  14.709  0.4973 -0.7750  2.0306
   19DOPE   C33 2405   6.380   4.293  16.595 -0.2721  0.6333 -1.2660
   19DOPE   H3X 2406   6.381   4.397  16.634 -0.7294  0.7998 -1.6744
   19DOPE   H3Y 2407   6.384   4.234  16.688  1.9505 -1.3926 -2.5369
   19DOPE   C34 2408   6.258   4.276  16.515  0.1610 -0.6186  0.0628
   19DOPE   H4X 2409   6.207   4.181  16.542  0.5663 -0.8979 -0.1475
   19DOPE   H4Y 2410   6.191   4.364  16.526  0.3293 -0.5394  0.4783
   19DOPE   C35 2411   6.283   4.263  16.360  0.0342  0.0890 -0.2038
   19DOPE   H5X 2412   6.351   4.181  16.328  0.9468  0.5223  0.5810
   19DOPE   H5Y 2413   6.333   4.358  16.332 -0.5543 -0.3711 -3.2858
   19DOPE   C36 2414   6.153   4.244  16.270 -0.1441 -1.1049 -0.5317
   19DOPE   H6X 2415   6.082   4.324  16.296 -0.2097 -1.1112 -0.6855
   19DOPE   H6Y 2416   6.106   4.151  16.309 -0.3789 -0.3141  1.1146
   19DOPE   C37 2417   6.180   4.230  16.120  0.1876 -0.6886  0.0124
   19DOPE   H7X 2418   6.232   4.325  16.098 -1.0847  0.1015  0.2862
   19DOPE   H7Y 2419   6.249   4.144  16.106 -1.5140 -1.7352 -2.6907
   19DOPE   C38 2420   6.067   4.209  16.024 -0.2721  1.1719 -0.4585
   19DOPE   H8X 2421   5.995   4.127  16.046  0.5547  0.2947 -0.9771
   19DOPE   H8Y 2422   6.122   4.179  15.933 -2.7982 -0.9683 -1.3993
   19DOPE   C39 2423   5.998   4.342  15.994 -0.1852 -0.1715 -0.3020
   19DOPE   H9X 2424   5.896   4.354  16.034 -0.3584  1.7069 -1.2178
   19DOPE  C310 2425   6.047   4.433  15.905  0.1872  0.5156 -0.1017
   19DOPE  H10X 2426   5.984   4.522  15.889 -0.7025 -0.1546 -0.4531
   19DOPE  C311 2427   6.169   4.427  15.822 -0.0462 -0.3732  0.4877
   19DOPE  H11X 2428   6.234   4.517  15.824  1.3921 -1.2042 -2.6287
   19DOPE  H11Y 2429   6.241   4.347  15.850 -1.6060 -2.2016 -0.5029
   19DOPE  C312 2430   6.133   4.384  15.675  0.1773 -0.0123  0.6785
   19DOPE  H12X 2431   6.062   4.298  15.675 -0.0159  0.1170  2.0129
   19DOPE  H12Y 2432   6.233   4.363  15.632 -0.5522 -2.5152  0.0430
   19DOPE  C313 2433   6.058   4.489  15.586 -0.6631  1.0891 -0.3488
   19DOPE  H13X 2434   5.954   4.512  15.615 -1.3112 -0.3159 -1.4661
   19DOPE  H13Y 2435   6.122   4.579  15.599 -0.5616  0.9348  0.2603
   19DOPE  C314 2436   6.041   4.444  15.440  0.0803 -0.1337 -0.2766
   19DOPE  H14X 2437   5.954   4.375  15.442 -0.6917  0.8358  0.0853
   19DOPE  H14Y 2438   6.131   4.384  15.413 -1.0806 -1.4546 -1.4066
   19DOPE  C315 2439   5.999   4.555  15.349 -0.3269 -0.2149  0.0326
   19DOPE  H15X 2440   5.999   4.504  15.251 -0.0776 -1.2997  0.5790
   19DOPE  H15Y 2441   6.073   4.637  15.335 -0.8012  0.0088 -1.3200
   19DOPE  C316 2442   5.855   4.599  15.373  0.4243 -0.7613  0.3279
   19DOPE  H16X 2443   5.838   4.618  15.482 -1.6887 -2.2258  0.3021
   19DOPE  H16Y 2444   5.783   4.521  15.342 -0.5668  0.5928 -0.9352
   19DOPE  C317 2445   5.816   4.728  15.301  0.0334 -0.1453 -0.1043
   19DOPE  H17X 2446   5.740   4.788  15.356  0.5887  1.6032 -1.1530
   19DOPE  H17Y 2447   5.906   4.793  15.295 -0.3280  0.5654  1.6118
   19DOPE  C318 2448   5.761   4.707  15.164 -0.0204 -0.2042  0.5394
   19DOPE  H18X 2449   5.666   4.652  15.176 -1.1165  1.9147  2.3280
   19DOPE  H18Y 2450   5.739   4.805  15.115 -0.8939 -1.0496 -0.8275
   19DOPE  H18Z 2451   5.838   4.652  15.105 -1.6792 -1.6570 -0.3793
   20DOPE     N 2452   5.296   6.753  16.888  1.3582 -0.3845 -0.1326
   20DOPE   HN1 2453   5.389   6.784  16.851  0.8639  0.7558 -0.4496
   20DOPE   HN2 2454   5.313   6.696  16.974  1.2367  1.0549  0.8764
   20DOPE   HN3 2455   5.248   6.689  16.821  0.9802 -0.2602  0.0227
   20DOPE   C12 2456   5.205   6.863  16.939 -0.0444  0.4578  0.5569
   20DOPE  H12A 2457   5.250   6.903  17.033  1.3802 -0.7217  0.4249
   20DOPE  H12B 2458   5.106   6.827  16.973 -0.6026  2.4204  1.0937
   20DOPE   C11 2459   5.209   6.966  16.832 -0.5672  0.2402 -0.4544
   20DOPE  H11A 2460   5.151   7.050  16.875  0.8216 -0.0178  2.0683
   20DOPE  H11B 2461   5.154   6.928  16.743 -1.4674 -1.5204  0.8026
   20DOPE     P 2462   5.416   7.126  16.858 -0.8220  0.2287 -0.3176
   20DOPE   O13 2463   5.557   7.094  16.836  0.3393 -0.5122  0.0997
   20DOPE   O14 2464   5.391   7.151  17.007  0.9756  0.0869 -0.4529
   20DOPE   O11 2465   5.372   7.259  16.784  0.3989 -0.1887  0.3434
   20DOPE   O12 2466   5.342   7.006  16.795  0.3950 -0.1573 -0.2304
   20DOPE    C1 2467   5.295   7.259  16.663  0.0545 -0.7633  0.5222
   20DOPE    HA 2468   5.257   7.361  16.639  0.7938 -0.2105  1.6187
   20DOPE    HB 2469   5.210   7.188  16.670 -2.0342  1.3736 -1.3299
   20DOPE    C2 2470   5.375   7.211  16.537  0.9387 -0.0381  0.2059
   20DOPE    HS 2471   5.389   7.101  16.539 -0.1131 -0.2024 -0.8339
   20DOPE   O21 2472   5.494   7.282  16.521  0.0982 -0.2137  0.5750
   20DOPE   C21 2473   5.590   7.210  16.454  1.0921  0.0940 -0.1482
   20DOPE   O22 2474   5.579   7.090  16.430 -0.4341  0.4460 -0.5939
   20DOPE   C22 2475   5.701   7.309  16.416 -0.1482 -0.1499  0.4835
   20DOPE   H2R 2476   5.796   7.254  16.397 -0.8455 -0.5360 -2.2853
   20DOPE   H2S 2477   5.723   7.369  16.507 -0.8710  1.3955 -0.3319
   20DOPE    C3 2478   5.289   7.250  16.413  0.6237  0.2111  0.1483
   20DOPE    HX 2479   5.274   7.360  16.412  0.1932  0.2305  2.7277
   20DOPE    HY 2480   5.187   7.208  16.427  0.3363  0.3360 -1.3521
   20DOPE   O31 2481   5.336   7.201  16.285 -0.6239 -0.7308 -0.3549
   20DOPE   C31 2482   5.317   7.081  16.255 -0.0251  0.7130  0.3332
   20DOPE   O32 2483   5.275   6.992  16.326 -0.2196  0.1014 -0.0053
   20DOPE   C32 2484   5.357   7.065  16.107 -0.3491 -0.7079  0.5194
   20DOPE   H2X 2485   5.465   7.048  16.125 -0.2470 -0.7171 -0.0988
   20DOPE   H2Y 2486   5.301   6.975  16.073 -1.2253  1.4025 -4.5104
   20DOPE   C23 2487   5.679   7.402  16.296  0.0189 -0.9324  0.3474
   20DOPE   H3R 2488   5.749   7.488  16.295  0.0635 -0.9709  0.0958
   20DOPE   H3S 2489   5.572   7.433  16.293  0.7074  1.9359  1.5716
   20DOPE   C24 2490   5.700   7.320  16.166 -0.3494 -0.3389 -0.1513
   20DOPE   H4R 2491   5.615   7.250  16.150 -0.5572 -0.2736  0.6125
   20DOPE   H4S 2492   5.792   7.257  16.175 -1.5523 -1.9505  1.7814
   20DOPE   C25 2493   5.709   7.409  16.045 -0.1566  0.2062  0.0131
   20DOPE   H5R 2494   5.798   7.472  16.066  0.7045 -0.5966 -1.1174
   20DOPE   H5S 2495   5.617   7.470  16.032 -2.4115 -2.2872  2.8350
   20DOPE   C26 2496   5.745   7.331  15.910 -0.2027  0.3896 -0.7772
   20DOPE   H6R 2497   5.668   7.254  15.888 -0.0645  0.4947 -1.6417
   20DOPE   H6S 2498   5.847   7.287  15.918 -0.7487 -0.8732 -0.4905
   20DOPE   C27 2499   5.757   7.430  15.790  0.0028  1.0640  0.0625
   20DOPE   H7R 2500   5.787   7.373  15.699 -2.5464 -0.1559 -0.0952
   20DOPE   H7S 2501   5.846   7.494  15.808  0.7063 -0.2287  1.4344
   20DOPE   C28 2502   5.632   7.513  15.764  0.0769  0.4027 -0.0562
   20DOPE   H8R 2503   5.647   7.580  15.677 -2.1818 -0.6864 -1.3819
   20DOPE   H8S 2504   5.626   7.576  15.855  0.0089  0.4075 -0.0644
   20DOPE   C29 2505   5.508   7.428  15.743 -0.4140 -0.2063  0.3779
   20DOPE   H9R 2506   5.456   7.401  15.837  0.0646  1.4620  1.1679
   20DOPE  C210 2507   5.467   7.380  15.625  0.0531 -0.1200  0.1137
   20DOPE  H10R 2508   5.374   7.322  15.612  0.5979 -0.9095 -0.4109
   20DOPE  C211 2509   5.534   7.393  15.488  0.1302 -0.4185 -0.7417
   20DOPE  H11R 2510   5.537   7.297  15.431  2.0053 -0.1040 -1.2496
   20DOPE  H11S 2511   5.641   7.422  15.492 -0.6200  3.0842 -2.3252
   20DOPE  C212 2512   5.479   7.496  15.388 -0.3166  0.3233  0.0753
   20DOPE  H12R 2513   5.378   7.463  15.353 -0.0120 -0.9105  0.3091
   20DOPE  H12S 2514   5.541   7.491  15.296  1.1355 -0.3188  1.0497
   20DOPE  C213 2515   5.467   7.636  15.442  0.1329  0.2503  0.5150
   20DOPE  H13R 2516   5.571   7.670  15.464  0.2436  0.0068  0.3798
   20DOPE  H13S 2517   5.419   7.633  15.541  0.5050  0.6989  0.7123
   20DOPE  C214 2518   5.396   7.720  15.342 -0.5013  0.0244  0.1135
   20DOPE  H14R 2519   5.335   7.806  15.377 -1.1593 -0.4561  0.1848
   20DOPE  H14S 2520   5.313   7.660  15.297 -0.2425 -1.6774  1.8084
   20DOPE  C215 2521   5.482   7.751  15.217 -0.5780  0.4996 -0.3104
   20DOPE  H15R 2522   5.511   7.660  15.161 -1.6552 -0.4255  0.5819
   20DOPE  H15S 2523   5.579   7.796  15.249  0.3566 -1.5146 -0.1608
   20DOPE  C216 2524   5.408   7.854  15.127 -0.0315  0.9343 -0.4169
   20DOPE  H16R 2525   5.377   7.945  15.183 -0.0188 -0.0008  1.1542
   20DOPE  H16S 2526   5.308   7.824  15.089 -0.4149  4.2829 -2.4883
   20DOPE  C217 2527   5.470   7.892  14.998  0.3740 -0.3565 -0.6806
   20DOPE  H17R 2528   5.504   7.802  14.943  2.5267 -1.2569  1.9233
   20DOPE  H17S 2529   5.562   7.951  15.021  0.3845 -0.2464 -1.0065
   20DOPE  C218 2530   5.388   7.975  14.900 -0.0931  0.7896 -0.4583
   20DOPE  H18R 2531   5.449   8.007  14.813  0.8642  0.8419  0.2121
   20DOPE  H18S 2532   5.362   8.067  14.955  2.7135  0.5555  1.4616
   20DOPE  H18T 2533   5.299   7.917  14.868 -0.4717  0.1256  1.6666
   20DOPE   C33 2534   5.334   7.170  15.996 -0.0989 -0.3424  0.0706
   20DOPE   H3X 2535   5.364   7.133  15.896  2.4643 -2.1436  1.3751
   20DOPE   H3Y 2536   5.400   7.257  16.015 -0.6404  0.2850 -0.8510
   20DOPE   C34 2537   5.177   7.220  15.992 -0.0149  0.5652 -0.3216
   20DOPE   H4X 2538   5.130   7.126  15.954  2.4199  0.1272 -2.5318
   20DOPE   H4Y 2539   5.142   7.237  16.096  0.6052 -1.4395  0.2711
   20DOPE   C35 2540   5.151   7.334  15.900 -0.6924 -0.0634 -0.4512
   20DOPE   H5X 2541   5.235   7.407  15.901 -0.1872 -0.3998 -4.2255
   20DOPE   H5Y 2542   5.069   7.393  15.946  0.7024  0.4132  1.5638
   20DOPE   C36 2543   5.109   7.301  15.755  0.6874 -0.2158  0.1608
   20DOPE   H6X 2544   5.009   7.257  15.771  0.5357 -0.4262 -1.2712
   20DOPE   H6Y 2545   5.169   7.221  15.708  1.9461  1.5977 -1.5083
   20DOPE   C37 2546   5.094   7.423  15.659  0.2165 -0.0289  0.3254
   20DOPE   H7X 2547   5.015   7.488  15.704  0.5829 -0.6202  1.8793
   20DOPE   H7Y 2548   5.192   7.474  15.661  1.0969 -1.6002 -0.7142
   20DOPE   C38 2549   5.063   7.376  15.519  0.3985  0.0814  0.5180
   20DOPE   H8X 2550   4.977   7.307  15.530  0.6674 -0.8789 -2.4471
   20DOPE   H8Y 2551   5.149   7.318  15.480  1.1917  1.3096  0.4081
   20DOPE   C39 2552   5.041   7.484  15.414 -0.7916  0.1390 -0.9031
   20DOPE   H9X 2553   5.090   7.579  15.441 -1.1308 -0.2759  1.3550
   20DOPE  C310 2554   4.967   7.490  15.300 -0.4984 -1.1521 -0.0166
   20DOPE  H10X 2555   4.981   7.580  15.238  2.4365  0.3990  2.6057
   20DOPE  C311 2556   4.885   7.380  15.240  0.2466  0.4724  0.2764
   20DOPE  H11X 2557   4.930   7.279  15.239 -1.9160 -0.5864  1.3453
   20DOPE  H11Y 2558   4.784   7.371  15.286 -0.2458  3.3803 -0.0416
   20DOPE  C312 2559   4.865   7.430  15.089 -0.8173 -0.0402  0.1418
   20DOPE  H12X 2560   4.822   7.342  15.038 -4.7104  2.3912 -1.2579
   20DOPE  H12Y 2561   4.962   7.454  15.040 -1.6948 -1.8081 -2.6733
   20DOPE  C313 2562   4.763   7.542  15.069 -0.5574  0.3136  0.3526
   20DOPE  H13X 2563   4.688   7.546  15.151 -0.8238  2.1092  0.0756
   20DOPE  H13Y 2564   4.811   7.642  15.077 -1.6724  0.7605  1.9824
   20DOPE  C314 2565   4.703   7.549  14.935 -0.6011  0.8766 -0.0631
   20DOPE  H14X 2566   4.638   7.459  14.926  0.3473  0.2139 -0.3988
   20DOPE  H14Y 2567   4.771   7.541  14.848 -0.5027 -3.6819  0.1595
   20DOPE  C315 2568   4.616   7.677  14.928 -0.2810 -0.8972 -0.0713
   20DOPE  H15X 2569   4.677   7.769  14.920 -1.3887  0.3397  3.5174
   20DOPE  H15Y 2570   4.553   7.687  15.019  1.5842  0.9794  1.0946
   20DOPE  C316 2571   4.537   7.678  14.797  0.6392 -0.7494  0.1486
   20DOPE  H16X 2572   4.468   7.590  14.795 -0.2399 -0.2438  3.1892
   20DOPE  H16Y 2573   4.604   7.679  14.709  0.8431 -1.6081  0.2838
   20DOPE  C317 2574   4.454   7.808  14.781  0.0507 -0.5484  0.2412
   20DOPE  H17X 2575   4.387   7.795  14.868  0.6650 -3.0110  0.4266
   20DOPE  H17Y 2576   4.520   7.896  14.802  0.5682 -0.8386 -0.1359
   20DOPE  C318 2577   4.369   7.822  14.648  0.0427  0.3665 -0.2353
   20DOPE  H18X 2578   4.302   7.736  14.628 -0.7956  0.8897  0.2457
   20DOPE  H18Y 2579   4.314   7.918  14.656  0.1278  0.2638  2.4001
   20DOPE  H18Z 2580   4.442   7.844  14.566  0.0917  0.2267 -0.2279
   21DOPE     N 2581   2.802   6.321  16.937 -0.7591 -0.5351  0.9167
   21DOPE   HN1 2582   2.833   6.290  16.843  0.3173  0.4441  0.9328
   21DOPE   HN2 2583   2.874   6.291  17.005  0.1156 -2.0508 -0.6307
   21DOPE   HN3 2584   2.714   6.270  16.957 -0.9471  0.0536  1.6532
   21DOPE   C12 2585   2.789   6.478  16.941  0.0075  1.0086  0.0758
   21DOPE  H12A 2586   2.738   6.518  16.851 -1.4758  2.3235  1.4366
   21DOPE  H12B 2587   2.891   6.520  16.951 -0.1769  1.3910  0.3457
   21DOPE   C11 2588   2.700   6.522  17.058 -0.1545 -0.1352 -0.3428
   21DOPE  H11A 2589   2.727   6.482  17.158 -1.2481 -0.2668 -0.0839
   21DOPE  H11B 2590   2.598   6.484  17.036 -0.8970  2.1072 -1.0472
   21DOPE     P 2591   2.628   6.772  16.989  0.4657  0.1712 -0.3271
   21DOPE   O13 2592   2.626   6.910  17.047  0.2288 -0.0703  0.4508
   21DOPE   O14 2593   2.495   6.715  16.958 -0.1873  0.7065 -0.2049
   21DOPE   O11 2594   2.719   6.767  16.860  0.4850 -0.0430 -0.1533
   21DOPE   O12 2595   2.705   6.662  17.072 -0.4200  0.2948 -1.1370
   21DOPE    C1 2596   2.848   6.829  16.867  0.5733  0.0124  1.1263
   21DOPE    HA 2597   2.917   6.760  16.920  1.2700  0.2307  0.5203
   21DOPE    HB 2598   2.842   6.926  16.921  0.6376  1.3704 -1.1705
   21DOPE    C2 2599   2.905   6.875  16.723  0.0556  0.2492 -0.1747
   21DOPE    HS 2600   2.879   6.983  16.718  1.0864  0.6659  2.1451
   21DOPE   O21 2601   2.841   6.799  16.622 -0.0874 -0.7000  0.5997
   21DOPE   C21 2602   2.736   6.853  16.570 -0.0271 -0.0100  0.9304
   21DOPE   O22 2603   2.674   6.954  16.609 -0.1908  0.6872  0.3090
   21DOPE   C22 2604   2.695   6.780  16.437  0.1446 -0.3108 -1.0163
   21DOPE   H2R 2605   2.695   6.670  16.454  1.5390 -0.3191 -0.9350
   21DOPE   H2S 2606   2.759   6.798  16.348  0.3463  0.8341 -0.6557
   21DOPE    C3 2607   3.055   6.853  16.699 -0.1120  0.2743 -0.7611
   21DOPE    HX 2608   3.076   6.745  16.707 -1.3372  0.0580 -0.1616
   21DOPE    HY 2609   3.111   6.897  16.784 -1.5024  0.6091  0.0075
   21DOPE   O31 2610   3.098   6.917  16.581  1.0708 -0.0598 -0.0223
   21DOPE   C31 2611   3.096   7.044  16.578 -0.5352 -0.6584 -0.5139
   21DOPE   O32 2612   3.075   7.119  16.674  0.0884  0.0318  0.2040
   21DOPE   C32 2613   3.137   7.087  16.435 -0.3644 -0.4173  0.8720
   21DOPE   H2X 2614   3.149   7.197  16.437  0.0586 -0.4703  1.6570
   21DOPE   H2Y 2615   3.233   7.036  16.413  0.6432  2.2177 -1.3068
   21DOPE   C23 2616   2.548   6.826  16.391 -0.2343 -0.3931  0.2406
   21DOPE   H3R 2617   2.550   6.936  16.381  2.1352 -0.4892 -1.1485
   21DOPE   H3S 2618   2.479   6.791  16.472  0.4982 -0.3522  0.8949
   21DOPE   C24 2619   2.503   6.768  16.255 -0.1217 -0.1207  0.0742
   21DOPE   H4R 2620   2.394   6.789  16.249 -0.6309 -2.6489 -0.7875
   21DOPE   H4S 2621   2.513   6.659  16.235  3.3958  0.4034 -1.9311
   21DOPE   C25 2622   2.560   6.849  16.138 -0.8073  0.2663 -0.4697
   21DOPE   H5R 2623   2.668   6.826  16.126 -1.3819 -4.2444  0.8865
   21DOPE   H5S 2624   2.544   6.954  16.169 -1.9423 -0.3909  1.3561
   21DOPE   C26 2625   2.474   6.821  16.014  0.1130  0.1683 -0.0421
   21DOPE   H6R 2626   2.376   6.864  16.045  0.0712 -0.6100  0.9536
   21DOPE   H6S 2627   2.462   6.712  15.998 -1.2557  0.2761  0.1227
   21DOPE   C27 2628   2.515   6.897  15.895 -0.4191 -0.8422  0.4161
   21DOPE   H7R 2629   2.593   6.835  15.845 -3.0095 -2.8940 -1.4016
   21DOPE   H7S 2630   2.551   7.000  15.915 -0.5235 -0.7389  0.0772
   21DOPE   C28 2631   2.425   6.903  15.772  0.2032  0.1742 -0.2262
   21DOPE   H8R 2632   2.408   6.795  15.748  2.0926 -0.0073 -0.8887
   21DOPE   H8S 2633   2.483   6.935  15.683  0.3605 -0.4599 -0.3582
   21DOPE   C29 2634   2.295   6.979  15.786 -0.3031  0.3458  0.0842
   21DOPE   H9R 2635   2.209   6.928  15.831 -0.2860 -0.4773 -0.7859
   21DOPE  C210 2636   2.285   7.106  15.745 -0.4214  0.2255 -0.3051
   21DOPE  H10R 2637   2.189   7.156  15.765  0.0453  0.2865  1.9581
   21DOPE  C211 2638   2.396   7.182  15.677  0.7061  0.0935 -0.0315
   21DOPE  H11R 2639   2.441   7.117  15.600 -2.9234 -0.9292 -1.4941
   21DOPE  H11S 2640   2.475   7.213  15.749  0.6342 -1.9782  0.9938
   21DOPE  C212 2641   2.361   7.308  15.601  0.4623 -0.3188  0.8212
   21DOPE  H12R 2642   2.454   7.365  15.581 -0.8375  1.4457 -0.5521
   21DOPE  H12S 2643   2.292   7.374  15.657 -2.9041 -2.4312 -0.4917
   21DOPE  C213 2644   2.294   7.264  15.470  0.1472 -0.3492 -0.2402
   21DOPE  H13R 2645   2.198   7.215  15.497 -0.6171  2.0382  1.8774
   21DOPE  H13S 2646   2.360   7.199  15.409 -0.0490 -0.2038 -0.6122
   21DOPE  C214 2647   2.256   7.387  15.384 -0.2305 -0.0517  0.8882
   21DOPE  H14R 2648   2.246   7.364  15.276  0.0590  1.8448  0.4218
   21DOPE  H14S 2649   2.330   7.469  15.394 -0.0484 -0.2437  1.1560
   21DOPE  C215 2650   2.121   7.457  15.420  0.4055 -0.0439 -0.0398
   21DOPE  H15R 2651   2.129   7.478  15.529  1.7944  0.0282 -0.1306
   21DOPE  H15S 2652   2.040   7.382  15.412  0.1876  0.1399  0.4362
   21DOPE  C216 2653   2.077   7.581  15.343 -0.7161 -0.6405  0.1001
   21DOPE  H16R 2654   2.073   7.560  15.234 -0.1739  0.6516 -0.1890
   21DOPE  H16S 2655   2.167   7.646  15.352 -0.9685 -0.2248 -0.2961
   21DOPE  C217 2656   1.938   7.629  15.387  0.8237 -0.1606  0.6704
   21DOPE  H17R 2657   1.932   7.640  15.497 -0.2017  0.6069  0.5540
   21DOPE  H17S 2658   1.860   7.553  15.364  3.1540 -2.4839 -0.0722
   21DOPE  C218 2659   1.893   7.758  15.322  0.9004 -0.5159  0.2905
   21DOPE  H18R 2660   1.966   7.840  15.341 -0.0016 -0.1759  2.5457
   21DOPE  H18S 2661   1.793   7.786  15.360  0.6388 -0.8916 -0.1126
   21DOPE  H18T 2662   1.885   7.759  15.211 -0.5464  0.5755  0.3728
   21DOPE   C33 2663   3.025   7.050  16.341 -0.3553 -0.3725  0.0723
   21DOPE   H3X 2664   2.929   7.099  16.369  1.2600  1.9836  1.7994
   21DOPE   H3Y 2665   3.023   6.939  16.328 -0.9263 -0.7549  2.8414
   21DOPE   C34 2666   3.049   7.105  16.203  0.0686 -0.3657 -0.5867
   21DOPE   H4X 2667   3.054   7.216  16.199  1.4009 -0.4117 -0.5203
   21DOPE   H4Y 2668   3.140   7.068  16.150  0.8350 -0.2918  0.6316
   21DOPE   C35 2669   2.926   7.064  16.118 -0.1205 -0.2982 -0.3175
   21DOPE   H5X 2670   2.828   7.083  16.166 -1.9694 -1.6264 -3.3003
   21DOPE   H5Y 2671   2.934   6.957  16.092 -2.4608 -1.3051  2.5101
   21DOPE   C36 2672   2.926   7.141  15.984  0.0118 -0.7716 -0.0617
   21DOPE   H6X 2673   3.026   7.140  15.936 -0.5390 -2.0772 -1.2425
   21DOPE   H6Y 2674   2.904   7.248  16.006  0.2248 -0.4529 -1.3219
   21DOPE   C37 2675   2.819   7.079  15.889 -0.4105  0.2082 -0.4436
   21DOPE   H7X 2676   2.809   6.972  15.919 -1.1493  0.6851  1.0702
   21DOPE   H7Y 2677   2.721   7.124  15.916 -1.0788 -1.4974  0.1307
   21DOPE   C38 2678   2.850   7.096  15.742 -0.3528 -0.0189  1.0117
   21DOPE   H8X 2679   2.777   7.037  15.682  1.7051 -1.9228  0.2146
   21DOPE   H8Y 2680   2.953   7.060  15.720 -1.0442 -0.9300 -1.0624
   21DOPE   C39 2681   2.846   7.250  15.709  0.2368 -0.1030 -0.2013
   21DOPE   H9X 2682   2.749   7.290  15.741 -0.7635 -1.0339 -1.9240
   21DOPE  C310 2683   2.947   7.328  15.660  0.1581 -0.6413 -0.5026
   21DOPE  H10X 2684   2.924   7.435  15.650  0.9826 -0.4427 -0.4108
   21DOPE  C311 2685   3.089   7.291  15.620 -0.2184 -0.0072  0.1424
   21DOPE  H11X 2686   3.146   7.387  15.616 -2.0398  1.1933  1.3591
   21DOPE  H11Y 2687   3.142   7.222  15.689  0.9762  0.7673  0.0293
   21DOPE  C312 2688   3.099   7.232  15.478 -0.6897  0.5646 -0.2761
   21DOPE  H12X 2689   3.059   7.305  15.404  0.1996 -1.3291 -2.7675
   21DOPE  H12Y 2690   3.045   7.135  15.476 -1.2250  0.8141  1.0982
   21DOPE  C313 2691   3.244   7.225  15.433  0.0631 -0.0757 -0.8369
   21DOPE  H13X 2692   3.294   7.323  15.448  0.6310 -0.5966  0.8266
   21DOPE  H13Y 2693   3.293   7.145  15.493  0.6507  0.9398  0.0577
   21DOPE  C314 2694   3.268   7.172  15.292 -1.2623  0.2968 -0.4621
   21DOPE  H14X 2695   3.228   7.247  15.220 -1.2657  1.3955  0.6431
   21DOPE  H14Y 2696   3.225   7.070  15.280  1.0756 -0.6189 -1.7019
   21DOPE  C315 2697   3.419   7.144  15.264  0.2902 -0.0874 -0.0766
   21DOPE  H15X 2698   3.458   7.067  15.334 -0.5458 -1.3801 -0.9653
   21DOPE  H15Y 2699   3.470   7.241  15.274 -0.6286  0.5245 -1.1184
   21DOPE  C316 2700   3.439   7.105  15.118 -0.0440 -0.1218 -0.5336
   21DOPE  H16X 2701   3.452   7.193  15.052  1.4908 -0.2486 -0.4431
   21DOPE  H16Y 2702   3.350   7.055  15.076  1.2551 -1.4607 -1.7792
   21DOPE  C317 2703   3.552   6.997  15.092 -0.2780 -0.3126 -0.2267
   21DOPE  H17X 2704   3.566   6.984  14.983 -1.9133  1.3600 -0.6942
   21DOPE  H17Y 2705   3.649   7.041  15.125 -0.1336  1.1275 -2.3728
   21DOPE  C318 2706   3.525   6.863  15.153 -0.1570  1.0862 -0.0940
   21DOPE  H18X 2707   3.432   6.819  15.111  0.5748  0.0564 -0.6772
   21DOPE  H18Y 2708   3.601   6.794  15.112  1.0979  0.5301  2.8894
   21DOPE  H18Z 2709   3.518   6.856  15.264 -2.4473  2.1364 -0.1022
   22DOPE     N 2710   7.477   4.745  16.636 -0.0503 -0.1083  0.6526
   22DOPE   HN1 2711   7.464   4.748  16.533 -0.8862  2.3035  0.7664
   22DOPE   HN2 2712   7.547   4.671  16.656  1.5280  1.1183 -0.1012
   22DOPE   HN3 2713   7.391   4.713  16.685  1.1811 -2.7010  1.2858
   22DOPE   C12 2714   7.505   4.887  16.679 -0.0255  0.9533 -0.3089
   22DOPE  H12A 2715   7.420   4.947  16.640 -0.6297 -0.3232 -1.0103
   22DOPE  H12B 2716   7.604   4.917  16.639 -0.4682  0.9787 -1.4183
   22DOPE   C11 2717   7.510   4.882  16.837  0.0750  0.1980  0.0465
   22DOPE  H11A 2718   7.405   4.864  16.871  0.4310  0.9414  1.6465
   22DOPE  H11B 2719   7.529   4.986  16.873 -0.2014  0.9140 -1.7735
   22DOPE     P 2720   7.751   4.810  16.926  0.2011 -0.2043 -0.1736
   22DOPE   O13 2721   7.825   4.683  16.917 -0.2346  0.0929  0.8516
   22DOPE   O14 2722   7.751   4.885  17.056  0.5523 -0.0615  0.0399
   22DOPE   O11 2723   7.798   4.916  16.819 -0.3190 -0.1151  0.2332
   22DOPE   O12 2724   7.592   4.777  16.890  0.0889  1.0922  0.1606
   22DOPE    C1 2725   7.914   4.999  16.842  0.7198  0.4316  0.3572
   22DOPE    HA 2726   8.007   4.949  16.805  0.3330 -0.2043  0.2354
   22DOPE    HB 2727   7.919   5.026  16.950 -2.0747 -1.9606  1.2151
   22DOPE    C2 2728   7.908   5.126  16.757 -0.6550  0.1144 -0.0518
   22DOPE    HS 2729   7.810   5.173  16.778  0.3026  2.6947 -0.8784
   22DOPE   O21 2730   7.924   5.098  16.621 -0.4499 -0.1101  0.1541
   22DOPE   C21 2731   7.814   5.128  16.544 -0.7492 -0.7640  0.8594
   22DOPE   O22 2732   7.702   5.168  16.581 -0.3330  0.6035  0.2552
   22DOPE   C22 2733   7.853   5.101  16.395  0.2329  0.2846  0.1003
   22DOPE   H2R 2734   7.776   5.032  16.353  1.4987 -0.2366 -1.4432
   22DOPE   H2S 2735   7.949   5.046  16.386  0.5924  0.7928  0.7404
   22DOPE    C3 2736   8.016   5.235  16.788 -0.0417 -0.5392  0.4866
   22DOPE    HX 2737   8.120   5.197  16.780  0.1034  0.0353 -0.5988
   22DOPE    HY 2738   8.005   5.249  16.898 -0.0091  1.2051  0.2902
   22DOPE   O31 2739   8.001   5.363  16.718 -0.1470  0.7362 -0.1774
   22DOPE   C31 2740   7.894   5.444  16.749  0.7324  0.5680 -0.6845
   22DOPE   O32 2741   7.796   5.412  16.817 -0.3573 -0.0114  0.2681
   22DOPE   C32 2742   7.916   5.585  16.692 -1.0088 -0.5892 -0.3304
   22DOPE   H2X 2743   7.826   5.647  16.708  0.1614  1.5662 -1.6527
   22DOPE   H2Y 2744   7.991   5.639  16.755 -0.4973 -0.6012 -0.9149
   22DOPE   C23 2745   7.850   5.230  16.324  0.4305 -0.7265 -0.0098
   22DOPE   H3R 2746   7.926   5.302  16.361 -2.0123  0.6362  2.7790
   22DOPE   H3S 2747   7.758   5.293  16.324  2.7626  3.0517 -2.0754
   22DOPE   C24 2748   7.863   5.206  16.175 -0.2760 -0.0195  0.1851
   22DOPE   H4R 2749   7.965   5.164  16.157 -0.6890 -0.9613 -0.0474
   22DOPE   H4S 2750   7.860   5.307  16.130  2.5278  0.7073  1.4462
   22DOPE   C25 2751   7.751   5.112  16.115 -0.4555 -0.6645 -0.1060
   22DOPE   H5R 2752   7.665   5.152  16.173 -0.1891  0.0917 -0.2305
   22DOPE   H5S 2753   7.753   5.001  16.124 -0.0765 -0.5507  1.3610
   22DOPE   C26 2754   7.730   5.160  15.973 -0.9342  1.1666 -0.1071
   22DOPE   H6R 2755   7.699   5.266  15.961  0.3261  1.4246 -1.2809
   22DOPE   H6S 2756   7.645   5.106  15.926  0.2453 -0.3530 -0.5545
   22DOPE   C27 2757   7.863   5.132  15.890 -0.3409 -0.0566 -0.0712
   22DOPE   H7R 2758   7.886   5.024  15.900  2.3282  0.3205 -1.1596
   22DOPE   H7S 2759   7.944   5.187  15.944  0.2923  0.6848 -1.7218
   22DOPE   C28 2760   7.857   5.177  15.746  1.0227 -0.9619  0.6710
   22DOPE   H8R 2761   7.765   5.135  15.701  1.0744 -1.4194  0.9892
   22DOPE   H8S 2762   7.939   5.124  15.694  0.3449  0.4618 -2.0182
   22DOPE   C29 2763   7.869   5.334  15.720 -0.5614 -0.0084 -0.2534
   22DOPE   H9R 2764   7.972   5.371  15.725 -0.5678  0.0015 -0.1910
   22DOPE  C210 2765   7.783   5.422  15.656 -0.0725  0.9461  0.1703
   22DOPE  H10R 2766   7.803   5.530  15.657  0.3960  0.8584  0.9451
   22DOPE  C211 2767   7.651   5.375  15.596  0.1780 -0.5036  0.3265
   22DOPE  H11R 2768   7.567   5.434  15.637  0.3730  0.7082 -0.9241
   22DOPE  H11S 2769   7.625   5.268  15.606  0.8543 -0.7793 -0.6676
   22DOPE  C212 2770   7.653   5.401  15.440 -0.4915  0.4483  0.1771
   22DOPE  H12R 2771   7.719   5.319  15.402 -0.9774  0.1307  0.0177
   22DOPE  H12S 2772   7.707   5.491  15.404  0.0008  0.0927  0.0105
   22DOPE  C213 2773   7.515   5.403  15.376  0.2663 -0.3564  0.5184
   22DOPE  H13R 2774   7.456   5.491  15.409  0.1205 -0.1709 -0.2105
   22DOPE  H13S 2775   7.451   5.315  15.398  0.0136 -1.7722 -4.5443
   22DOPE  C214 2776   7.527   5.402  15.225  0.3920  0.1413  0.0901
   22DOPE  H14R 2777   7.587   5.492  15.198  0.0239 -0.0655 -1.4859
   22DOPE  H14S 2778   7.427   5.422  15.181 -0.0581 -0.8541  0.6388
   22DOPE  C215 2779   7.591   5.282  15.163 -0.4252  0.3036  0.3921
   22DOPE  H15R 2780   7.693   5.257  15.199 -0.2041  1.8182  0.8807
   22DOPE  H15S 2781   7.590   5.300  15.053  0.6940  1.1624  0.5140
   22DOPE  C216 2782   7.504   5.154  15.187  0.0616  0.0166 -0.6028
   22DOPE  H16R 2783   7.403   5.159  15.141  0.3318  0.3377 -1.1737
   22DOPE  H16S 2784   7.492   5.134  15.295 -0.1265 -2.6042 -1.0385
   22DOPE  C217 2785   7.564   5.016  15.147 -0.2366  0.0039  0.1176
   22DOPE  H17R 2786   7.496   4.939  15.190  1.6413 -1.9721 -0.3003
   22DOPE  H17S 2787   7.665   5.002  15.190 -0.4733 -0.3377  0.5772
   22DOPE  C218 2788   7.579   4.987  14.995 -0.6916 -0.1756 -0.3732
   22DOPE  H18R 2789   7.594   4.877  14.984 -2.5575 -0.7278  1.6787
   22DOPE  H18S 2790   7.657   5.058  14.960  0.1317 -0.2922  1.1155
   22DOPE  H18T 2791   7.487   5.013  14.940 -1.2698 -1.7377 -0.2155
   22DOPE   C33 2792   7.966   5.628  16.549 -0.1648 -0.4614 -0.1797
   22DOPE   H3X 2793   8.054   5.566  16.520 -0.7720 -1.0028 -0.8955
   22DOPE   H3Y 2794   7.987   5.737  16.558 -2.2962 -0.1586  2.9788
   22DOPE   C34 2795   7.864   5.610  16.435 -0.2154 -0.8840  0.4416
   22DOPE   H4X 2796   7.849   5.500  16.443  0.7899 -1.0545  0.0955
   22DOPE   H4Y 2797   7.766   5.657  16.459 -1.0235 -1.4282 -1.6164
   22DOPE   C35 2798   7.897   5.645  16.293  0.0798  0.3089 -0.0534
   22DOPE   H5X 2799   7.986   5.588  16.259  1.0449  0.2231  2.3976
   22DOPE   H5Y 2800   7.928   5.751  16.279 -1.2179  0.4134 -2.8401
   22DOPE   C36 2801   7.781   5.616  16.197  0.9563  0.6107  0.4836
   22DOPE   H6X 2802   7.703   5.689  16.228  1.2533  1.0923  0.1207
   22DOPE   H6Y 2803   7.741   5.514  16.218  0.5960  0.2344 -1.7574
   22DOPE   C37 2804   7.820   5.633  16.054 -0.3126 -0.5990  0.4863
   22DOPE   H7X 2805   7.883   5.723  16.034 -0.8672  1.0402  4.9725
   22DOPE   H7Y 2806   7.889   5.551  16.029  0.1596  0.1083 -0.6020
   22DOPE   C38 2807   7.706   5.625  15.957 -0.2672 -0.4757 -0.2442
   22DOPE   H8X 2808   7.652   5.530  15.975 -0.3005 -0.6273 -1.1308
   22DOPE   H8Y 2809   7.740   5.618  15.852 -1.4665  2.9820 -1.0040
   22DOPE   C39 2810   7.597   5.735  15.964 -0.8336 -0.3948 -0.4198
   22DOPE   H9X 2811   7.637   5.836  15.944  0.5768  0.3738  4.8244
   22DOPE  C310 2812   7.475   5.719  16.019  0.0968 -0.6719  0.6507
   22DOPE  H10X 2813   7.406   5.803  16.007 -1.0207 -1.6018  0.3850
   22DOPE  C311 2814   7.417   5.597  16.080 -0.2838  0.0200  0.3334
   22DOPE  H11X 2815   7.472   5.540  16.158 -0.9582 -2.8111 -1.1343
   22DOPE  H11Y 2816   7.332   5.639  16.138 -0.1032  1.4604 -0.4131
   22DOPE  C312 2817   7.365   5.491  15.978  0.3502 -0.2417  0.4116
   22DOPE  H12X 2818   7.445   5.447  15.914  0.8867  0.7550  0.3730
   22DOPE  H12Y 2819   7.291   5.537  15.908  1.3025 -1.4542 -1.4822
   22DOPE  C313 2820   7.282   5.387  16.048  0.2256 -0.6380  0.3187
   22DOPE  H13X 2821   7.344   5.332  16.122  3.2044  0.8524 -0.8820
   22DOPE  H13Y 2822   7.189   5.429  16.090  2.0048  0.6551  3.2999
   22DOPE  C314 2823   7.217   5.277  15.966  0.3031  0.1667 -1.2337
   22DOPE  H14X 2824   7.162   5.317  15.878  1.1984  1.7382 -1.1079
   22DOPE  H14Y 2825   7.143   5.232  16.036  0.8566 -0.0860 -0.8031
   22DOPE  C315 2826   7.305   5.161  15.925  0.2249  0.9736 -0.5809
   22DOPE  H15X 2827   7.254   5.064  15.945  1.3681  0.8510  2.0959
   22DOPE  H15Y 2828   7.389   5.161  15.997 -1.7062  1.6222  1.8076
   22DOPE  C316 2829   7.346   5.168  15.777  0.4213  0.2234 -0.3066
   22DOPE  H16X 2830   7.407   5.259  15.761  4.4018 -1.9158  1.2753
   22DOPE  H16Y 2831   7.254   5.184  15.717 -0.0396  0.5136  0.4754
   22DOPE  C317 2832   7.418   5.041  15.735  0.2480  0.3618 -0.1751
   22DOPE  H17X 2833   7.510   5.022  15.794  1.5623  2.3381 -1.4661
   22DOPE  H17Y 2834   7.354   4.955  15.764 -0.5975  0.8420 -0.5741
   22DOPE  C318 2835   7.453   5.028  15.589 -0.2392  0.2149 -0.0896
   22DOPE  H18X 2836   7.508   5.116  15.550  0.0485 -0.2996 -0.8701
   22DOPE  H18Y 2837   7.506   4.936  15.559 -0.1148  0.6247 -1.1561
   22DOPE  H18Z 2838   7.362   5.022  15.525  0.0854  0.8961 -0.6301
   23DOPE     N 2839   4.383   7.199  16.550  0.6771 -0.0305  0.0326
   23DOPE   HN1 2840   4.439   7.113  16.568  1.1510 -0.1920 -1.9230
   23DOPE   HN2 2841   4.301   7.207  16.614  0.2084 -2.1743 -0.2194
   23DOPE   HN3 2842   4.340   7.172  16.459  0.0253 -1.0759  0.6240
   23DOPE   C12 2843   4.473   7.317  16.536  0.4196 -0.1249  0.8662
   23DOPE  H12A 2844   4.418   7.404  16.495  3.5019  0.3003 -3.0113
   23DOPE  H12B 2845   4.554   7.293  16.463 -0.3273 -0.7590  0.2231
   23DOPE   C11 2846   4.526   7.364  16.673  0.2036  0.5063 -0.7314
   23DOPE  H11A 2847   4.595   7.450  16.660  0.0246  1.4263  3.2566
   23DOPE  H11B 2848   4.597   7.295  16.723  1.1984  1.7817 -0.3566
   23DOPE     P 2849   4.336   7.527  16.764  0.3028  0.0282  0.3014
   23DOPE   O13 2850   4.292   7.547  16.898  0.3123 -0.1638 -0.6055
   23DOPE   O14 2851   4.234   7.510  16.657  0.1974  0.1509 -0.4958
   23DOPE   O11 2852   4.446   7.635  16.731  0.5553  0.2621  0.2235
   23DOPE   O12 2853   4.421   7.395  16.759 -0.2746 -0.6017 -0.4944
   23DOPE    C1 2854   4.405   7.763  16.679  0.7925 -0.0993 -0.7338
   23DOPE    HA 2855   4.399   7.840  16.760 -0.8144  1.6652 -2.4486
   23DOPE    HB 2856   4.296   7.769  16.661 -0.2515  3.6794  4.3895
   23DOPE    C2 2857   4.479   7.818  16.556 -0.1646 -0.2188  0.3311
   23DOPE    HS 2858   4.436   7.918  16.532  1.4863  0.3127 -0.5674
   23DOPE   O21 2859   4.458   7.734  16.439 -0.0538 -0.2543 -0.0067
   23DOPE   C21 2860   4.331   7.723  16.404 -0.2414 -0.3489  0.8154
   23DOPE   O22 2861   4.235   7.788  16.442 -0.5421  0.3235 -0.8461
   23DOPE   C22 2862   4.314   7.620  16.287  0.4947  0.4346  1.0362
   23DOPE   H2R 2863   4.207   7.592  16.289 -0.1909  2.8134  0.3397
   23DOPE   H2S 2864   4.372   7.529  16.312 -0.2295 -0.1331  0.6706
   23DOPE    C3 2865   4.626   7.843  16.586 -1.1038  0.2430  0.4954
   23DOPE    HX 2866   4.673   7.747  16.614  2.2363  1.0714 -1.6957
   23DOPE    HY 2867   4.649   7.911  16.671 -1.7403 -0.2445  1.0631
   23DOPE   O31 2868   4.683   7.893  16.457 -0.7390  0.7242 -0.7901
   23DOPE   C31 2869   4.813   7.868  16.450 -0.1414  0.9856  0.4572
   23DOPE   O32 2870   4.892   7.838  16.535  0.1304  0.6139  0.2875
   23DOPE   C32 2871   4.856   7.877  16.299 -0.2382 -0.2399 -0.8431
   23DOPE   H2X 2872   4.887   7.979  16.268 -0.3975 -0.2846 -1.1615
   23DOPE   H2Y 2873   4.946   7.813  16.289  0.9382  1.3180 -0.5190
   23DOPE   C23 2874   4.364   7.684  16.153 -0.2613 -0.5492 -0.4475
   23DOPE   H3R 2875   4.472   7.709  16.160 -0.5864  1.0633 -0.8049
   23DOPE   H3S 2876   4.306   7.779  16.145  0.4168 -0.3160 -3.4751
   23DOPE   C24 2877   4.339   7.604  16.034  0.2425  0.5510  0.2763
   23DOPE   H4R 2878   4.244   7.546  16.038 -0.0833  1.0478 -0.1724
   23DOPE   H4S 2879   4.424   7.531  16.036  1.4087  1.6660 -2.8150
   23DOPE   C25 2880   4.349   7.701  15.911  0.2315 -0.2863 -0.6284
   23DOPE   H5R 2881   4.385   7.653  15.818  3.1835 -2.1945  1.3359
   23DOPE   H5S 2882   4.421   7.783  15.934 -1.1022  0.1699  2.4291
   23DOPE   C26 2883   4.211   7.752  15.869  0.4626 -0.1601  0.0268
   23DOPE   H6R 2884   4.159   7.776  15.965  0.6398 -2.8975  0.9003
   23DOPE   H6S 2885   4.165   7.663  15.821  2.8002 -1.2774 -0.2537
   23DOPE   C27 2886   4.212   7.879  15.780  0.4133 -0.4538  0.3771
   23DOPE   H7R 2887   4.287   7.867  15.699 -1.7646 -0.0184 -1.8140
   23DOPE   H7S 2888   4.232   7.967  15.846 -0.2466 -0.0321  0.0282
   23DOPE   C28 2889   4.067   7.897  15.716  0.1415  0.1340 -0.5095
   23DOPE   H8R 2890   4.003   7.913  15.806  1.0879 -1.4207  0.4841
   23DOPE   H8S 2891   4.028   7.803  15.670 -0.6091  0.1018  0.1771
   23DOPE   C29 2892   4.058   8.011  15.617 -0.0726 -1.0128  0.2893
   23DOPE   H9R 2893   4.151   8.067  15.596  0.3740 -2.2912 -1.3816
   23DOPE  C210 2894   3.940   8.063  15.566 -0.6057  0.1880  0.1715
   23DOPE  H10R 2895   3.952   8.146  15.495 -1.5992  1.9390  1.9466
   23DOPE  C211 2896   3.798   8.012  15.595 -0.6198 -0.2635  0.6181
   23DOPE  H11R 2897   3.731   8.094  15.630 -2.3037  0.2251 -3.2873
   23DOPE  H11S 2898   3.800   7.949  15.686  0.9102  0.4061  1.0960
   23DOPE  C212 2899   3.718   7.951  15.479 -0.1927  0.3743  0.3251
   23DOPE  H12R 2900   3.766   7.874  15.416 -0.0596 -0.8198  1.8174
   23DOPE  H12S 2901   3.686   8.035  15.414 -0.3398 -0.1484 -0.2819
   23DOPE  C213 2902   3.592   7.879  15.526  0.4982 -0.6438  0.0025
   23DOPE  H13R 2903   3.531   7.964  15.562  3.9807  1.4483  1.5886
   23DOPE  H13S 2904   3.598   7.803  15.607 -0.4320 -1.9825 -1.1315
   23DOPE  C214 2905   3.510   7.815  15.411  0.7368 -0.0923 -0.3068
   23DOPE  H14R 2906   3.579   7.738  15.371  2.2869  0.2429  1.5678
   23DOPE  H14S 2907   3.488   7.890  15.332  2.1154  0.4401 -0.2055
   23DOPE  C215 2908   3.385   7.747  15.461 -0.6202  0.8034  0.2796
   23DOPE  H15R 2909   3.314   7.827  15.494 -0.2481  1.0880  0.4045
   23DOPE  H15S 2910   3.409   7.680  15.546 -0.2456 -0.0399 -0.4821
   23DOPE  C216 2911   3.323   7.672  15.342  0.1134 -0.4117 -0.1876
   23DOPE  H16R 2912   3.397   7.596  15.309  1.7725  1.2540 -0.4991
   23DOPE  H16S 2913   3.314   7.741  15.256 -0.3163  2.1114  1.7728
   23DOPE  C217 2914   3.184   7.618  15.356 -0.1765  0.8445  0.1621
   23DOPE  H17R 2915   3.117   7.704  15.380 -0.7804 -0.1280  2.1276
   23DOPE  H17S 2916   3.188   7.558  15.449  0.2173  1.7813  0.7673
   23DOPE  C218 2917   3.141   7.545  15.234  0.8383  0.7992  0.2162
   23DOPE  H18R 2918   3.152   7.434  15.232 -0.6134  0.6286  0.4775
   23DOPE  H18S 2919   3.187   7.577  15.138 -0.0754 -3.0919 -1.7560
   23DOPE  H18T 2920   3.031   7.559  15.225  0.7008  0.0958  0.7431
   23DOPE   C33 2921   4.748   7.828  16.197  0.4421 -0.8243  0.0345
   23DOPE   H3X 2922   4.682   7.917  16.187 -0.5252 -1.6417 -1.1670
   23DOPE   H3Y 2923   4.682   7.744  16.226 -0.0339 -0.3416  0.3633
   23DOPE   C34 2924   4.814   7.789  16.065 -0.5249 -0.3147  0.3799
   23DOPE   H4X 2925   4.864   7.883  16.034  1.8234 -1.4936  0.3249
   23DOPE   H4Y 2926   4.903   7.722  16.071  0.9744  1.5478  0.0509
   23DOPE   C35 2927   4.709   7.737  15.969 -0.0310  0.3871  0.4830
   23DOPE   H5X 2928   4.655   7.825  15.928 -0.0095 -0.3658 -1.2471
   23DOPE   H5Y 2929   4.646   7.659  16.018  2.3604 -1.0806  1.3996
   23DOPE   C36 2930   4.781   7.674  15.848  1.1477  0.2061  0.4929
   23DOPE   H6X 2931   4.845   7.588  15.876 -1.3222 -1.8731  0.1072
   23DOPE   H6Y 2932   4.842   7.750  15.795 -0.3525  0.8463 -0.3750
   23DOPE   C37 2933   4.686   7.631  15.733 -0.5247 -0.8983 -0.5130
   23DOPE   H7X 2934   4.616   7.558  15.779 -0.0486 -1.9227 -1.3624
   23DOPE   H7Y 2935   4.631   7.719  15.693  1.0430 -0.0309 -0.8265
   23DOPE   C38 2936   4.750   7.554  15.618  0.1634  0.0695 -0.2647
   23DOPE   H8X 2937   4.790   7.462  15.665 -0.9060 -0.6217 -0.6561
   23DOPE   H8Y 2938   4.844   7.605  15.587  0.1640  0.1174 -0.1823
   23DOPE   C39 2939   4.658   7.522  15.504  0.2262  0.8728  0.6727
   23DOPE   H9X 2940   4.610   7.424  15.496 -0.3369  1.2339 -0.6044
   23DOPE  C310 2941   4.631   7.613  15.407 -0.9540 -0.5558  0.4629
   23DOPE  H10X 2942   4.563   7.587  15.325 -0.9220  1.9398 -0.4315
   23DOPE  C311 2943   4.687   7.753  15.407 -0.8759 -0.1389  0.6894
   23DOPE  H11X 2944   4.759   7.773  15.489  2.5079 -1.1452 -1.8365
   23DOPE  H11Y 2945   4.762   7.773  15.327 -0.9571  0.3841  0.7376
   23DOPE  C312 2946   4.585   7.872  15.410  0.2938  1.3420 -0.0060
   23DOPE  H12X 2947   4.638   7.969  15.420 -0.4795  1.6121  1.7713
   23DOPE  H12Y 2948   4.518   7.861  15.497 -0.3121  1.3444 -0.4644
   23DOPE  C313 2949   4.511   7.904  15.275 -0.2316  0.7673  0.1617
   23DOPE  H13X 2950   4.594   7.940  15.210  0.2699  1.1556  0.9974
   23DOPE  H13Y 2951   4.456   7.814  15.241 -0.8890  0.2104  2.5132
   23DOPE  C314 2952   4.407   8.013  15.293 -0.7082  0.0301 -0.4787
   23DOPE  H14X 2953   4.454   8.096  15.350  1.0202  1.5761 -3.8590
   23DOPE  H14Y 2954   4.317   7.988  15.354 -1.4940  0.4793 -1.4167
   23DOPE  C315 2955   4.356   8.064  15.158 -0.1894 -0.3996 -1.0195
   23DOPE  H15X 2956   4.448   8.062  15.094  1.8556  0.3339  1.7089
   23DOPE  H15Y 2957   4.349   8.174  15.174  4.1762 -0.2438  1.5292
   23DOPE  C316 2958   4.230   7.997  15.104 -0.2853  0.3188  0.1222
   23DOPE  H16X 2959   4.155   8.021  15.182 -0.8911 -0.6988 -0.1306
   23DOPE  H16Y 2960   4.251   7.888  15.102 -0.5723  0.2504  0.5794
   23DOPE  C317 2961   4.179   8.031  14.964  0.6622  0.3407 -0.0528
   23DOPE  H17X 2962   4.266   8.026  14.895  0.2063  1.8019 -0.7719
   23DOPE  H17Y 2963   4.098   7.966  14.924 -0.1364  0.4867  1.2811
   23DOPE  C318 2964   4.127   8.179  14.950  0.3392 -0.1595 -0.1363
   23DOPE  H18X 2965   4.181   8.231  15.032  3.3738 -3.0791 -0.0625
   23DOPE  H18Y 2966   4.164   8.219  14.853  0.3406  0.3684  0.0806
   23DOPE  H18Z 2967   4.017   8.189  14.962  0.0989  1.7149 -3.0246
   24DOPE     N 2968   5.725   6.907  16.919 -0.2775  0.2537 -0.5709
   24DOPE   HN1 2969   5.660   6.987  16.907 -0.9456 -0.1661  0.1710
   24DOPE   HN2 2970   5.668   6.847  16.982  1.6333 -0.8039  0.2674
   24DOPE   HN3 2971   5.813   6.931  16.969 -0.9085  1.3820  0.0239
   24DOPE   C12 2972   5.764   6.833  16.791  0.3131 -0.2603 -0.1248
   24DOPE  H12A 2973   5.844   6.764  16.824  1.8271  1.9969  1.2454
   24DOPE  H12B 2974   5.806   6.907  16.720  0.8931 -1.3411 -0.9335
   24DOPE   C11 2975   5.645   6.768  16.720 -0.4901  0.3778  0.3870
   24DOPE  H11A 2976   5.684   6.732  16.623 -0.6968  3.2161 -0.8393
   24DOPE  H11B 2977   5.577   6.852  16.694  0.1809  0.4785 -1.1416
   24DOPE     P 2978   5.606   6.531  16.816  0.1897 -0.1406 -0.0533
   24DOPE   O13 2979   5.485   6.448  16.802 -0.2569  0.2087 -0.2676
   24DOPE   O14 2980   5.689   6.513  16.939 -0.0842  0.0166  0.0695
   24DOPE   O11 2981   5.697   6.504  16.695 -0.5933 -0.1815 -0.0465
   24DOPE   O12 2982   5.569   6.684  16.811 -0.3553 -0.1456 -0.0803
   24DOPE    C1 2983   5.651   6.460  16.564  0.2294 -0.5557 -0.2279
   24DOPE    HA 2984   5.596   6.544  16.516 -0.0443 -0.9303 -0.5762
   24DOPE    HB 2985   5.582   6.375  16.587 -0.3562  0.0216  0.2218
   24DOPE    C2 2986   5.758   6.413  16.464 -0.0794  0.0173 -0.2554
   24DOPE    HS 2987   5.702   6.385  16.373  1.0903 -1.9134 -0.4304
   24DOPE   O21 2988   5.852   6.315  16.520 -0.3593  0.5637  0.5650
   24DOPE   C21 2989   5.812   6.201  16.471  0.5718 -0.4676 -0.3239
   24DOPE   O22 2990   5.701   6.177  16.430 -0.5005 -0.0818  0.3826
   24DOPE   C22 2991   5.921   6.098  16.467 -0.5477 -0.1845 -0.2754
   24DOPE   H2R 2992   5.877   5.997  16.456 -0.7956 -0.2723  1.3956
   24DOPE   H2S 2993   5.967   6.102  16.568  0.9436  1.4381 -0.9498
   24DOPE    C3 2994   5.851   6.532  16.419 -0.9262  0.4171  0.5567
   24DOPE    HX 2995   5.931   6.533  16.496  1.6732  0.7483 -1.9793
   24DOPE    HY 2996   5.793   6.627  16.415  0.5530  1.3277 -0.0308
   24DOPE   O31 2997   5.927   6.507  16.292 -0.3045 -0.0814  0.2480
   24DOPE   C31 2998   5.859   6.506  16.178  0.2817  0.2621 -0.0387
   24DOPE   O32 2999   5.736   6.510  16.179  0.0358  0.2876  0.3632
   24DOPE   C32 3000   5.941   6.483  16.055  0.4884  0.1493 -0.0703
   24DOPE   H2X 3001   6.022   6.557  16.039 -0.8450  1.9442  1.1022
   24DOPE   H2Y 3002   5.995   6.387  16.069  0.8909  0.1007 -1.7152
   24DOPE   C23 3003   6.028   6.102  16.357 -0.3536 -0.6601  0.4679
   24DOPE   H3R 3004   6.085   6.006  16.361 -1.9954 -1.6309  2.0813
   24DOPE   H3S 3005   6.095   6.189  16.375 -1.4192 -0.1639  2.2817
   24DOPE   C24 3006   5.972   6.118  16.214 -0.7593  0.4431 -0.0704
   24DOPE   H4R 3007   5.954   6.227  16.204  1.3897  0.7916 -0.5934
   24DOPE   H4S 3008   5.877   6.061  16.223  0.0047 -0.5462  2.3984
   24DOPE   C25 3009   6.075   6.062  16.109 -0.6520 -0.5804 -0.1955
   24DOPE   H5R 3010   6.169   6.040  16.163 -1.6430 -3.5623  0.5136
   24DOPE   H5S 3011   6.091   6.145  16.037 -0.1812 -0.6787 -0.2066
   24DOPE   C26 3012   6.043   5.920  16.054 -0.1871 -0.0816  0.1421
   24DOPE   H6R 3013   6.025   5.854  16.142 -1.9266 -0.0293 -0.1439
   24DOPE   H6S 3014   6.137   5.879  16.011 -0.5893 -1.5109  0.5744
   24DOPE   C27 3015   5.935   5.923  15.949  0.0616  0.0853  0.0056
   24DOPE   H7R 3016   5.857   6.000  15.966 -0.2801  0.1418 -1.6300
   24DOPE   H7S 3017   5.883   5.827  15.931  1.2280 -0.3849 -1.0309
   24DOPE   C28 3018   5.986   5.968  15.810  1.2231 -0.3675 -0.1521
   24DOPE   H8R 3019   6.043   6.063  15.822  0.3309  0.1402  0.2344
   24DOPE   H8S 3020   5.893   5.993  15.755  0.1748 -0.2582  1.5836
   24DOPE   C29 3021   6.059   5.851  15.743 -0.3638  0.0529 -0.1799
   24DOPE   H9R 3022   6.159   5.823  15.779 -0.9906 -1.9663  0.0547
   24DOPE  C210 3023   6.018   5.785  15.634 -0.1406  0.3287  0.1946
   24DOPE  H10R 3024   6.085   5.700  15.613 -1.8513 -1.8209  2.7814
   24DOPE  C211 3025   5.897   5.803  15.547 -0.4059  0.0852 -0.8527
   24DOPE  H11R 3026   5.938   5.832  15.448 -0.1054  2.4837 -0.0888
   24DOPE  H11S 3027   5.836   5.892  15.572 -1.3812 -0.5598 -0.8759
   24DOPE  C212 3028   5.809   5.680  15.534  0.0770  0.0656 -0.5375
   24DOPE  H12R 3029   5.753   5.666  15.629 -1.1077 -1.6806 -1.4444
   24DOPE  H12S 3030   5.863   5.584  15.516  0.9354 -0.0932  2.3734
   24DOPE  C213 3031   5.708   5.706  15.422  0.1959 -0.2114 -0.0423
   24DOPE  H13R 3032   5.672   5.812  15.425  2.2635  0.5115  0.7684
   24DOPE  H13S 3033   5.618   5.641  15.416 -0.2212  0.3723 -0.2734
   24DOPE  C214 3034   5.762   5.687  15.279  0.0345  0.0857 -0.2748
   24DOPE  H14R 3035   5.848   5.753  15.254 -2.0607  2.5943 -1.2610
   24DOPE  H14S 3036   5.679   5.718  15.213  0.4110  1.0636 -0.2987
   24DOPE  C215 3037   5.798   5.547  15.235 -0.2784 -0.0758 -0.2758
   24DOPE  H15R 3038   5.715   5.481  15.268  1.9671 -1.8435  2.3137
   24DOPE  H15S 3039   5.893   5.524  15.288 -0.1814  0.5059 -0.1948
   24DOPE  C216 3040   5.849   5.527  15.089  0.2812  0.6003  0.0071
   24DOPE  H16R 3041   5.883   5.422  15.077 -0.0657  0.6387 -1.5022
   24DOPE  H16S 3042   5.928   5.604  15.071  0.3960  0.4840  0.0082
   24DOPE  C217 3043   5.733   5.554  14.991 -0.2358  0.2031  0.0077
   24DOPE  H17R 3044   5.714   5.663  14.989 -0.1686  0.2700  1.9816
   24DOPE  H17S 3045   5.648   5.493  15.028 -2.5091  2.1513 -1.6807
   24DOPE  C218 3046   5.769   5.499  14.849  0.4844 -0.2923  0.5878
   24DOPE  H18R 3047   5.870   5.541  14.826  0.3186  0.0734  0.5291
   24DOPE  H18S 3048   5.706   5.540  14.768  0.3203 -0.2432  0.7404
   24DOPE  H18T 3049   5.779   5.389  14.839 -0.9838 -0.4678  0.8062
   24DOPE   C33 3050   5.870   6.476  15.916  0.0061  0.7196 -0.2016
   24DOPE   H3X 3051   5.937   6.525  15.841 -1.8399  2.5151 -0.7670
   24DOPE   H3Y 3052   5.785   6.548  15.917  0.4338  1.2417  1.3825
   24DOPE   C34 3053   5.831   6.333  15.876  0.3906  0.3975  0.0579
   24DOPE   H4X 3054   5.920   6.268  15.890  0.4261 -0.2560 -2.5639
   24DOPE   H4Y 3055   5.749   6.297  15.941  1.8956 -0.0263  1.8088
   24DOPE   C35 3056   5.779   6.323  15.725  0.2756  0.0537  0.4030
   24DOPE   H5X 3057   5.711   6.407  15.701 -0.0408  0.0135  1.1448
   24DOPE   H5Y 3058   5.725   6.228  15.705 -1.1994  0.9963 -0.2471
   24DOPE   C36 3059   5.902   6.311  15.630 -0.3285 -0.0824 -0.1742
   24DOPE   H6X 3060   5.971   6.231  15.662  0.8052 -0.1750 -2.6356
   24DOPE   H6Y 3061   5.951   6.411  15.640 -2.9585  1.2815  0.1020
   24DOPE   C37 3062   5.867   6.290  15.486 -0.1150  0.3173 -0.6907
   24DOPE   H7X 3063   5.796   6.366  15.447 -0.1859  1.5667  1.6563
   24DOPE   H7Y 3064   5.951   6.289  15.414  2.5562 -1.3918  2.1942
   24DOPE   C38 3065   5.787   6.158  15.464  0.1607  0.5376  0.4984
   24DOPE   H8X 3066   5.689   6.175  15.513  0.2227  0.2539  0.7243
   24DOPE   H8Y 3067   5.844   6.071  15.504  1.3157  0.4503 -1.2164
   24DOPE   C39 3068   5.761   6.124  15.315 -1.0506 -0.4320  0.8730
   24DOPE   H9X 3069   5.845   6.119  15.245 -0.7532 -0.9322  1.2556
   24DOPE  C310 3070   5.646   6.077  15.260  0.3612 -0.0149 -0.3610
   24DOPE  H10X 3071   5.641   6.073  15.151 -0.1457  0.0588 -0.3445
   24DOPE  C311 3072   5.517   6.053  15.340  0.1541  0.6593  0.4274
   24DOPE  H11X 3073   5.480   5.948  15.344 -1.7142  1.3097  3.4051
   24DOPE  H11Y 3074   5.505   6.085  15.445  1.4021 -0.8061  1.0561
   24DOPE  C312 3075   5.398   6.119  15.259 -0.4889 -0.2929 -0.7853
   24DOPE  H12X 3076   5.370   6.056  15.172 -0.6376 -0.6546 -0.4809
   24DOPE  H12Y 3077   5.430   6.217  15.218 -0.5790  0.1831  0.2486
   24DOPE  C313 3078   5.271   6.135  15.342 -0.9929 -0.3249  0.2457
   24DOPE  H13X 3079   5.240   6.033  15.373  1.1351 -1.0719  0.0947
   24DOPE  H13Y 3080   5.305   6.187  15.434  1.0491  0.0754 -0.6737
   24DOPE  C314 3081   5.167   6.222  15.268 -0.2025 -0.3210  0.6573
   24DOPE  H14X 3082   5.219   6.317  15.243 -1.0784  0.6519  2.3657
   24DOPE  H14Y 3083   5.095   6.260  15.344 -0.5590  2.0183 -0.7585
   24DOPE  C315 3084   5.121   6.164  15.130 -0.4425 -0.6092  0.3615
   24DOPE  H15X 3085   5.082   6.060  15.143 -0.8337 -0.6981 -1.2898
   24DOPE  H15Y 3086   5.201   6.158  15.054 -0.3231 -1.6196  0.5478
   24DOPE  C316 3087   5.001   6.249  15.091 -0.6031 -0.1406  0.2008
   24DOPE  H16X 3088   4.930   6.270  15.173  0.6146  1.7202  0.8443
   24DOPE  H16Y 3089   4.937   6.212  15.008 -1.1462  1.6005 -0.2063
   24DOPE  C317 3090   5.039   6.386  15.024 -0.0047  0.2722 -1.0855
   24DOPE  H17X 3091   5.088   6.446  15.104 -1.8388 -1.2937  1.3465
   24DOPE  H17Y 3092   5.123   6.365  14.954 -0.2094 -3.2588 -0.4283
   24DOPE  C318 3093   4.928   6.468  14.964  0.5510  0.7788 -0.4310
   24DOPE  H18X 3094   4.865   6.416  14.888  0.9429 -2.3232  1.2138
   24DOPE  H18Y 3095   4.859   6.495  15.046 -0.7375  0.9124 -1.5239
   24DOPE  H18Z 3096   4.975   6.560  14.922  2.7039  0.6491  1.4876
   25DOPE     N 3097   7.439   6.102  17.135 -0.5632  0.1583  0.3331
   25DOPE   HN1 3098   7.450   6.167  17.055 -2.8906 -2.9164 -2.7979
   25DOPE   HN2 3099   7.368   6.147  17.196 -1.0174 -0.7529  0.4954
   25DOPE   HN3 3100   7.525   6.090  17.192 -0.7697  0.0148  0.6200
   25DOPE   C12 3101   7.400   5.966  17.086  0.3847 -0.0328  0.0631
   25DOPE  H12A 3102   7.478   5.909  17.029 -1.7030 -3.4305  0.3355
   25DOPE  H12B 3103   7.326   5.989  17.006 -3.6902 -0.6123  3.3490
   25DOPE   C11 3104   7.340   5.876  17.190 -0.4111 -0.6097  0.3190
   25DOPE  H11A 3105   7.258   5.923  17.248 -1.5781 -1.8476 -0.2468
   25DOPE  H11B 3106   7.416   5.839  17.262 -0.8056  0.0465  1.0749
   25DOPE     P 3107   7.147   5.745  17.076 -0.2685 -0.1207  0.0364
   25DOPE   O13 3108   7.109   5.868  16.996 -0.1163 -0.1829  0.4870
   25DOPE   O14 3109   7.063   5.714  17.191  0.4628  0.0674 -0.0281
   25DOPE   O11 3110   7.158   5.614  16.978  0.3474 -0.5345 -0.2699
   25DOPE   O12 3111   7.296   5.758  17.124  0.4502  1.0656 -0.0576
   25DOPE    C1 3112   7.264   5.585  16.893 -0.0026 -0.2430 -0.9058
   25DOPE    HA 3113   7.249   5.491  16.835 -0.8275 -0.4476 -0.3794
   25DOPE    HB 3114   7.364   5.583  16.942  0.5572 -1.4740 -2.0192
   25DOPE    C2 3115   7.265   5.696  16.779 -0.5976 -0.0816 -0.1278
   25DOPE    HS 3116   7.310   5.783  16.832  0.6096 -0.5709 -0.3226
   25DOPE   O21 3117   7.127   5.704  16.725  0.0029  0.2485  0.5457
   25DOPE   C21 3118   7.106   5.831  16.687 -0.3623 -0.0288 -0.4515
   25DOPE   O22 3119   7.189   5.920  16.688 -0.0961 -0.2538  0.4316
   25DOPE   C22 3120   6.976   5.862  16.635  0.1579  0.1263 -0.0972
   25DOPE   H2R 3121   6.954   5.970  16.636  1.4364  0.4153 -0.6774
   25DOPE   H2S 3122   6.896   5.810  16.692 -0.9464 -0.4944 -2.0862
   25DOPE    C3 3123   7.370   5.652  16.669 -0.0854 -0.2511 -0.4988
   25DOPE    HX 3124   7.327   5.560  16.625  0.3564 -1.0622  0.6991
   25DOPE    HY 3125   7.471   5.630  16.710 -0.5501 -0.4672  0.5707
   25DOPE   O31 3126   7.380   5.747  16.564  0.3821 -0.2872  0.9106
   25DOPE   C31 3127   7.481   5.836  16.566  1.0973  0.7487 -0.4422
   25DOPE   O32 3128   7.556   5.850  16.661  0.2682 -0.1346 -0.3437
   25DOPE   C32 3129   7.485   5.911  16.435 -0.0751 -0.4632  0.2911
   25DOPE   H2X 3130   7.513   5.834  16.359 -0.5357  1.0760 -1.4866
   25DOPE   H2Y 3131   7.379   5.941  16.422 -0.2993 -1.1213  0.5160
   25DOPE   C23 3132   6.963   5.804  16.490 -0.1860 -0.3273 -0.0871
   25DOPE   H3R 3133   6.859   5.811  16.451  0.3581 -0.4926 -1.6604
   25DOPE   H3S 3134   6.988   5.696  16.481  3.2087  0.4169 -0.8704
   25DOPE   C24 3135   7.048   5.886  16.389 -0.1844  0.5689 -0.2624
   25DOPE   H4R 3136   7.143   5.831  16.375  0.0186  0.7042  0.5811
   25DOPE   H4S 3137   7.068   5.991  16.417 -0.7384  0.5739  0.1421
   25DOPE   C25 3138   6.984   5.904  16.247  0.7655 -0.0151  0.8424
   25DOPE   H5R 3139   6.884   5.950  16.262  0.5713 -0.0027 -0.3740
   25DOPE   H5S 3140   6.980   5.803  16.201 -2.0683  0.6151 -0.5136
   25DOPE   C26 3141   7.074   5.979  16.157  0.3468 -0.8077  0.0751
   25DOPE   H6R 3142   7.176   5.936  16.162  0.4411 -0.6571 -0.4640
   25DOPE   H6S 3143   7.077   6.087  16.180 -1.9231 -1.0132  1.6531
   25DOPE   C27 3144   7.037   5.959  16.010  0.4834  0.9886  1.2412
   25DOPE   H7R 3145   6.928   5.966  15.995  0.3182 -1.9461  0.5212
   25DOPE   H7S 3146   7.057   5.853  15.983 -1.8590  0.7047  0.3883
   25DOPE   C28 3147   7.125   6.048  15.917  0.2398  0.2326 -0.1882
   25DOPE   H8R 3148   7.229   6.010  15.920  0.6563  1.3117 -0.6041
   25DOPE   H8S 3149   7.128   6.151  15.959 -0.4866 -0.2355  1.1045
   25DOPE   C29 3150   7.063   6.046  15.776  0.1585  0.0397 -0.9938
   25DOPE   H9R 3151   6.979   6.113  15.752 -0.1180 -0.2638 -0.8738
   25DOPE  C210 3152   7.106   5.964  15.682  0.0153  0.1147  0.3915
   25DOPE  H10R 3153   7.071   5.971  15.578  3.8919  0.2288 -1.0611
   25DOPE  C211 3154   7.221   5.869  15.678 -0.0028  0.4878 -0.1879
   25DOPE  H11R 3155   7.253   5.834  15.779 -2.2926 -1.0462  0.0854
   25DOPE  H11S 3156   7.312   5.920  15.640  0.7421  1.6492  2.8532
   25DOPE  C212 3157   7.215   5.727  15.612 -0.5291 -0.5183 -0.5229
   25DOPE  H12R 3158   7.313   5.674  15.620 -0.2873  0.1993  2.5516
   25DOPE  H12S 3159   7.186   5.735  15.505 -2.2405 -1.9253 -0.2017
   25DOPE  C213 3160   7.119   5.645  15.698  0.4306 -0.5998  0.2415
   25DOPE  H13R 3161   7.015   5.680  15.681 -0.1876 -1.8476  1.2500
   25DOPE  H13S 3162   7.148   5.638  15.805 -0.0441  0.4102  0.4460
   25DOPE  C214 3163   7.121   5.495  15.647 -0.1048 -0.6331  0.1086
   25DOPE  H14R 3164   7.034   5.444  15.693 -0.7695  0.9382  0.6740
   25DOPE  H14S 3165   7.213   5.442  15.678  0.1291 -0.3674 -0.1230
   25DOPE  C215 3166   7.138   5.478  15.498  0.3276 -0.8997  0.3115
   25DOPE  H15R 3167   7.234   5.518  15.458 -0.3616  1.1389  0.5497
   25DOPE  H15S 3168   7.057   5.532  15.445 -0.5316  0.7742  3.0805
   25DOPE  C216 3169   7.159   5.334  15.457  0.3215 -0.0501  0.0701
   25DOPE  H16R 3170   7.213   5.275  15.534  1.9189  2.8916  1.4081
   25DOPE  H16S 3171   7.218   5.329  15.363 -1.6772  0.2143 -1.2482
   25DOPE  C217 3172   7.025   5.266  15.424 -0.0186  0.6269  0.2307
   25DOPE  H17R 3173   6.956   5.350  15.402  0.4194  0.4008 -2.3083
   25DOPE  H17S 3174   6.993   5.228  15.524  3.3171  1.7001  1.8909
   25DOPE  C218 3175   7.030   5.165  15.310 -0.1120 -0.1124  0.7663
   25DOPE  H18R 3176   6.925   5.143  15.280 -0.0828 -0.2321  0.7514
   25DOPE  H18S 3177   7.087   5.075  15.342  0.2224 -0.6786 -1.3035
   25DOPE  H18T 3178   7.083   5.207  15.222 -0.7493 -0.2814  0.2905
   25DOPE   C33 3179   7.599   6.023  16.422 -0.7696  0.6193  0.0823
   25DOPE   H3X 3180   7.608   6.085  16.514 -2.3480 -1.8018  2.0102
   25DOPE   H3Y 3181   7.569   6.083  16.333  0.5550  1.9528  0.4917
   25DOPE   C34 3182   7.740   5.976  16.388 -0.3842 -1.0950  0.9397
   25DOPE   H4X 3183   7.793   5.922  16.469  0.4249  2.0475  2.6750
   25DOPE   H4Y 3184   7.725   5.909  16.301  1.2294  0.0993 -0.3214
   25DOPE   C35 3185   7.830   6.097  16.349 -0.0465  1.0066 -0.4200
   25DOPE   H5X 3186   7.938   6.074  16.351  0.2245  2.0692 -1.5392
   25DOPE   H5Y 3187   7.827   6.171  16.432 -0.6427  0.1743  0.3099
   25DOPE   C36 3188   7.799   6.181  16.220  0.2084  0.4378  1.0362
   25DOPE   H6X 3189   7.898   6.228  16.198 -0.1966 -0.4688 -3.7575
   25DOPE   H6Y 3190   7.716   6.252  16.243  1.6986  2.7126 -0.2341
   25DOPE   C37 3191   7.761   6.091  16.102 -0.4693 -0.1815  0.2993
   25DOPE   H7X 3192   7.856   6.037  16.081 -1.3131 -2.2295  1.5367
   25DOPE   H7Y 3193   7.687   6.013  16.125 -0.0543 -1.1971 -1.5719
   25DOPE   C38 3194   7.713   6.164  15.975 -0.4387 -0.2550  0.1500
   25DOPE   H8X 3195   7.739   6.100  15.889 -1.1288  0.0842 -0.3256
   25DOPE   H8Y 3196   7.763   6.262  15.963 -1.5279  0.4979  1.4152
   25DOPE   C39 3197   7.563   6.190  15.957 -0.4490 -0.1018  0.3714
   25DOPE   H9X 3198   7.511   6.231  16.044  3.0336  0.0633  2.5540
   25DOPE  C310 3199   7.493   6.179  15.842  0.9100  0.1119  0.2717
   25DOPE  H10X 3200   7.386   6.202  15.825  1.1373 -0.2647 -2.0636
   25DOPE  C311 3201   7.558   6.140  15.705  1.0015 -0.2329  0.6919
   25DOPE  H11X 3202   7.654   6.194  15.690 -0.0983  1.2071 -1.5822
   25DOPE  H11Y 3203   7.577   6.030  15.698  1.1888 -0.3102  2.0876
   25DOPE  C312 3204   7.479   6.186  15.578  0.4169 -0.3145 -0.1563
   25DOPE  H12X 3205   7.389   6.123  15.561  0.3581 -0.3557  0.2846
   25DOPE  H12Y 3206   7.549   6.167  15.494  2.1534  0.9123  0.9431
   25DOPE  C313 3207   7.439   6.333  15.577 -0.2881 -0.3510  0.2694
   25DOPE  H13X 3208   7.383   6.346  15.672 -1.0545 -2.8247  0.2215
   25DOPE  H13Y 3209   7.517   6.412  15.584 -0.9337  0.2868  0.2670
   25DOPE  C314 3210   7.349   6.376  15.457  0.0124  0.9335 -0.3390
   25DOPE  H14X 3211   7.359   6.302  15.374  0.7128  2.4714 -1.6649
   25DOPE  H14Y 3212   7.395   6.470  15.420 -0.1117  0.8237 -0.7823
   25DOPE  C315 3213   7.200   6.397  15.474 -0.3944  0.1995  0.1843
   25DOPE  H15X 3214   7.162   6.451  15.385  1.1285  2.9280  1.0828
   25DOPE  H15Y 3215   7.180   6.466  15.559 -1.1117 -0.2826  0.4135
   25DOPE  C316 3216   7.115   6.268  15.472  0.6088  0.2534 -0.5741
   25DOPE  H16X 3217   7.135   6.222  15.571  2.2947 -0.5455 -1.2431
   25DOPE  H16Y 3218   7.146   6.194  15.396 -2.1052  0.7907 -2.3362
   25DOPE  C317 3219   6.960   6.289  15.460  0.0236  0.4847  0.5111
   25DOPE  H17X 3220   6.926   6.332  15.557  1.2039 -0.5174  1.3979
   25DOPE  H17Y 3221   6.939   6.355  15.372  2.7648  0.0691 -0.5590
   25DOPE  C318 3222   6.872   6.162  15.444 -0.4854 -0.9226 -0.0233
   25DOPE  H18X 3223   6.766   6.185  15.422 -0.1279 -2.0197 -3.5498
   25DOPE  H18Y 3224   6.901   6.104  15.353  0.3241 -1.7974  0.7720
   25DOPE  H18Z 3225   6.895   6.106  15.537  2.6107  1.1713  0.6252
   26DOPE     N 3226   0.398   6.975  16.829  0.3013 -0.5878  0.3398
   26DOPE   HN1 3227   0.358   7.070  16.843  1.8327  0.0078  0.8222
   26DOPE   HN2 3228   0.331   6.924  16.767 -1.5003  2.9920 -0.9686
   26DOPE   HN3 3229   0.407   6.922  16.918  0.9434  1.9220  1.8644
   26DOPE   C12 3230   0.540   6.997  16.772 -0.4337 -0.0101 -0.7688
   26DOPE  H12A 3231   0.532   7.082  16.701 -0.1418  1.5145  0.9472
   26DOPE  H12B 3232   0.568   6.900  16.723  1.4207 -0.4888  1.0805
   26DOPE   C11 3233   0.646   7.020  16.877 -0.2071 -0.3135 -0.8976
   26DOPE  H11A 3234   0.612   7.106  16.940  0.5542 -0.4349 -0.3089
   26DOPE  H11B 3235   0.735   7.057  16.823 -0.0006 -0.1224 -0.4275
   26DOPE     P 3236   0.773   6.794  16.964  0.1822 -0.1938  0.1211
   26DOPE   O13 3237   0.747   6.679  16.877 -0.2453  0.1641  0.0531
   26DOPE   O14 3238   0.795   6.770  17.110  0.0955  0.6020 -0.0744
   26DOPE   O11 3239   0.889   6.878  16.903 -0.2376 -0.1820  0.1870
   26DOPE   O12 3240   0.658   6.900  16.954 -0.1189  0.2892  0.0461
   26DOPE    C1 3241   1.004   6.829  16.843 -0.6324 -0.9695 -0.0666
   26DOPE    HA 3242   1.016   6.722  16.870 -1.3478 -0.9024  0.5586
   26DOPE    HB 3243   1.095   6.877  16.886  0.6800 -1.5743 -2.0526
   26DOPE    C2 3244   0.992   6.866  16.694 -0.0970 -0.6725 -0.1108
   26DOPE    HS 3245   0.962   6.972  16.681 -0.7729 -0.5640  1.9828
   26DOPE   O21 3246   0.909   6.767  16.634 -0.3213  0.0189 -0.0561
   26DOPE   C21 3247   0.801   6.812  16.581 -0.5877  0.1560  0.1973
   26DOPE   O22 3248   0.770   6.930  16.575 -0.2312 -0.5461 -0.1794
   26DOPE   C22 3249   0.728   6.692  16.520  0.2764 -0.0378 -0.3522
   26DOPE   H2R 3250   0.619   6.690  16.542  0.4869  0.0599  0.7714
   26DOPE   H2S 3251   0.771   6.600  16.566  0.3864  1.6433  3.2792
   26DOPE    C3 3252   1.131   6.861  16.621 -0.0240 -1.1660 -0.3856
   26DOPE    HX 3253   1.164   6.757  16.642 -1.7633 -1.4806  1.0880
   26DOPE    HY 3254   1.199   6.924  16.683 -0.0005 -0.9893 -0.5938
   26DOPE   O31 3255   1.123   6.907  16.480  0.6704  0.8926 -0.1194
   26DOPE   C31 3256   1.157   7.038  16.462  0.3923  0.3517  0.7641
   26DOPE   O32 3257   1.170   7.118  16.552  0.0453  0.2733  0.4248
   26DOPE   C32 3258   1.149   7.070  16.309  0.3866  0.0388  0.5693
   26DOPE   H2X 3259   1.245   7.118  16.278 -0.2611  0.6877 -0.4861
   26DOPE   H2Y 3260   1.146   6.972  16.257 -1.8866 -0.8627  2.2445
   26DOPE   C23 3261   0.757   6.690  16.360  0.1856 -0.4789  0.4412
   26DOPE   H3R 3262   0.749   6.791  16.314  0.8502  0.1875  1.7571
   26DOPE   H3S 3263   0.676   6.639  16.303 -0.2588  0.3486  0.3005
   26DOPE   C24 3264   0.884   6.624  16.328 -0.0039 -0.1560 -0.3265
   26DOPE   H4R 3265   0.863   6.517  16.346 -2.8864 -0.1688 -2.9650
   26DOPE   H4S 3266   0.967   6.656  16.394 -0.8576  1.6812 -0.0538
   26DOPE   C25 3267   0.943   6.646  16.182  0.2990 -0.1275 -0.2640
   26DOPE   H5R 3268   1.030   6.582  16.157 -0.0294 -1.0863  0.9194
   26DOPE   H5S 3269   0.989   6.747  16.185  0.4598 -0.2087  0.0608
   26DOPE   C26 3270   0.844   6.630  16.057  0.9053 -0.2830  0.3063
   26DOPE   H6R 3271   0.895   6.675  15.970 -1.6619 -0.3151 -1.3254
   26DOPE   H6S 3272   0.749   6.681  16.086  1.4465  0.5263  0.6772
   26DOPE   C27 3273   0.800   6.478  16.044 -0.0965 -0.6700  0.2816
   26DOPE   H7R 3274   0.700   6.471  15.998  0.7132 -2.1488 -1.4163
   26DOPE   H7S 3275   0.816   6.429  16.143  0.6870  1.8423  1.4720
   26DOPE   C28 3276   0.888   6.406  15.942  0.0369 -0.5341 -0.2983
   26DOPE   H8R 3277   0.994   6.420  15.972 -0.2354  0.1618  0.3599
   26DOPE   H8S 3278   0.867   6.452  15.843  0.4481 -2.4815 -1.3465
   26DOPE   C29 3279   0.845   6.257  15.940 -1.0060 -0.6621  0.5338
   26DOPE   H9R 3280   0.880   6.202  16.029  0.9936 -0.1984  0.0773
   26DOPE  C210 3281   0.790   6.186  15.843  0.3888  0.1710 -0.6380
   26DOPE  H10R 3282   0.795   6.076  15.849  2.5434 -0.0463 -3.9438
   26DOPE  C211 3283   0.752   6.226  15.708 -0.5874  0.2139  0.3894
   26DOPE  H11R 3284   0.834   6.285  15.664 -0.9576 -0.8897 -1.9685
   26DOPE  H11S 3285   0.659   6.287  15.714  0.2122  1.4195  0.8249
   26DOPE  C212 3286   0.718   6.111  15.616  0.1655 -0.0267  0.1820
   26DOPE  H12R 3287   0.639   6.039  15.646  1.9060 -0.9732  2.7916
   26DOPE  H12S 3288   0.809   6.049  15.599 -0.0016 -0.1049 -0.4845
   26DOPE  C213 3289   0.667   6.157  15.471 -0.1250 -0.8411  0.0046
   26DOPE  H13R 3290   0.751   6.221  15.437  1.6870 -1.7868  2.3691
   26DOPE  H13S 3291   0.578   6.223  15.480  1.4326  1.5595 -1.1345
   26DOPE  C214 3292   0.645   6.029  15.389  0.0589  0.1158 -0.1212
   26DOPE  H14R 3293   0.547   5.990  15.425 -0.1150  0.3982 -0.2835
   26DOPE  H14S 3294   0.728   5.962  15.420 -0.3343  0.8943  2.8607
   26DOPE  C215 3295   0.647   6.043  15.239  0.5001  0.2627  0.1933
   26DOPE  H15R 3296   0.628   5.942  15.196  2.3679 -0.8198  1.7345
   26DOPE  H15S 3297   0.747   6.071  15.201  1.6875 -3.9493 -0.3434
   26DOPE  C216 3298   0.533   6.133  15.190 -0.1377  0.1304 -0.4808
   26DOPE  H16R 3299   0.544   6.226  15.249  2.2842 -0.7780  0.6385
   26DOPE  H16S 3300   0.439   6.084  15.222  0.3009  0.9063  2.2334
   26DOPE  C217 3301   0.533   6.167  15.038  0.7303 -0.0969  0.0134
   26DOPE  H17R 3302   0.533   6.069  14.986  2.6814 -1.0297  1.6408
   26DOPE  H17S 3303   0.634   6.208  15.015  1.2778 -1.0811  0.5846
   26DOPE  C218 3304   0.414   6.248  14.993 -0.6548  0.2731  0.4557
   26DOPE  H18R 3305   0.400   6.239  14.884 -0.6422  3.5852  0.0835
   26DOPE  H18S 3306   0.439   6.355  15.003  0.4674 -0.0103  0.7950
   26DOPE  H18T 3307   0.315   6.224  15.038 -0.3976  0.5589  1.2027
   26DOPE   C33 3308   1.032   7.156  16.245  0.7045  0.8608 -0.5523
   26DOPE   H3X 3309   1.051   7.256  16.290  1.1869  1.0397 -1.1368
   26DOPE   H3Y 3310   0.932   7.111  16.262 -0.1909  2.3677 -1.5885
   26DOPE   C34 3311   1.045   7.169  16.095  0.3216  0.8905  0.1841
   26DOPE   H4X 3312   0.957   7.227  16.058  0.1561  0.2495 -0.4432
   26DOPE   H4Y 3313   1.139   7.225  16.078  0.7881  0.0540 -0.0018
   26DOPE   C35 3314   1.042   7.033  16.012  0.4051  0.0878 -0.0164
   26DOPE   H5X 3315   0.971   6.958  16.052  1.0871 -1.0662 -0.9252
   26DOPE   H5Y 3316   1.141   6.990  16.038  0.0539 -0.4963  0.3935
   26DOPE   C36 3317   1.015   7.061  15.865  0.2026  0.7956  0.0855
   26DOPE   H6X 3318   1.081   7.149  15.849  0.2891  0.4669 -1.4973
   26DOPE   H6Y 3319   0.908   7.088  15.858 -0.0391 -0.3120 -0.9788
   26DOPE   C37 3320   1.051   6.940  15.774 -0.0411 -0.0108 -0.2329
   26DOPE   H7X 3321   1.159   6.938  15.746 -0.5818  0.0984 -2.5565
   26DOPE   H7Y 3322   1.022   6.840  15.812 -0.3420  1.0771  2.5748
   26DOPE   C38 3323   0.985   6.968  15.631  0.2248 -0.2572 -0.3697
   26DOPE   H8X 3324   1.021   7.072  15.617 -0.2554  0.1691  1.3359
   26DOPE   H8Y 3325   0.876   6.955  15.652  0.4905 -0.4544  0.9652
   26DOPE   C39 3326   1.035   6.885  15.518  0.4416  0.1431  0.0768
   26DOPE   H9X 3327   1.095   6.801  15.556  1.0639 -0.0817 -1.3365
   26DOPE  C310 3328   1.011   6.893  15.386  0.2972 -0.1123 -0.2655
   26DOPE  H10X 3329   1.063   6.828  15.314  1.2991 -0.0939  0.4242
   26DOPE  C311 3330   0.918   6.998  15.324  0.1952 -0.7567 -0.4618
   26DOPE  H11X 3331   0.813   6.971  15.304  0.5369 -0.5271 -2.8148
   26DOPE  H11Y 3332   0.927   7.087  15.390  0.1204 -1.9845  1.2977
   26DOPE  C312 3333   0.971   7.043  15.184  0.3734 -0.1894  0.8035
   26DOPE  H12X 3334   1.078   7.071  15.194 -0.0174  1.4715  0.5481
   26DOPE  H12Y 3335   0.922   7.140  15.160 -0.1610 -0.3363  1.2917
   26DOPE  C313 3336   0.942   6.942  15.076  0.1456 -1.1587 -0.4353
   26DOPE  H13X 3337   1.000   6.850  15.101  3.5282  0.8690 -0.2334
   26DOPE  H13Y 3338   0.836   6.910  15.078  0.1682 -1.2351  1.3268
   26DOPE  C314 3339   0.962   6.998  14.934 -0.6464 -0.2120 -0.0826
   26DOPE  H14X 3340   1.069   6.988  14.906 -0.2995 -2.6258  1.7428
   26DOPE  H14Y 3341   0.950   7.108  14.941 -1.3005 -0.3970  2.7695
   26DOPE  C315 3342   0.878   6.946  14.814 -0.0716  0.4110  0.4413
   26DOPE  H15X 3343   0.783   7.003  14.826 -0.2439  0.6342 -1.6631
   26DOPE  H15Y 3344   0.860   6.837  14.827  1.8713 -0.4077 -2.7623
   26DOPE  C316 3345   0.942   6.978  14.683 -0.2769 -0.7025  1.0946
   26DOPE  H16X 3346   1.036   6.919  14.680  0.9367  1.1644 -1.8515
   26DOPE  H16Y 3347   0.970   7.086  14.677 -1.1290 -0.3045  3.2276
   26DOPE  C317 3348   0.865   6.933  14.556 -0.1054 -0.1080 -0.0182
   26DOPE  H17X 3349   0.792   7.014  14.536  0.9067  0.7688 -0.2298
   26DOPE  H17Y 3350   0.934   6.931  14.470 -0.5453 -1.2255 -0.3611
   26DOPE  C318 3351   0.808   6.790  14.571 -0.6149 -0.8936 -1.1192
   26DOPE  H18X 3352   0.781   6.760  14.467 -1.9806  1.5555 -1.5569
   26DOPE  H18Y 3353   0.890   6.728  14.613  0.3334  0.1741 -1.3534
   26DOPE  H18Z 3354   0.729   6.794  14.648  0.8196  0.6407  0.3607
   27DOPE     N 3355   6.159   0.179  17.102 -0.0867  0.7406  0.6088
   27DOPE   HN1 3356   6.206   0.145  17.016  0.3149  0.8451  0.7829
   27DOPE   HN2 3357   6.099   0.105  17.145  0.2343  0.3054  0.3087
   27DOPE   HN3 3358   6.091   0.245  17.058 -1.0704 -1.1365 -0.8238
   27DOPE   C12 3359   6.258   0.237  17.195 -0.0068 -0.6942 -0.8082
   27DOPE  H12A 3360   6.302   0.157  17.258 -1.4625 -0.1020  1.0353
   27DOPE  H12B 3361   6.210   0.313  17.259 -0.1495 -0.1679 -1.5363
   27DOPE   C11 3362   6.381   0.294  17.115 -0.2285 -0.0127  0.0935
   27DOPE  H11A 3363   6.465   0.309  17.186 -0.6229  0.3445  0.4866
   27DOPE  H11B 3364   6.354   0.384  17.056  1.2663  0.0568 -0.5276
   27DOPE     P 3365   6.533   0.212  16.926  0.1677  0.1806 -0.2315
   27DOPE   O13 3366   6.558   0.088  16.848  0.3770 -0.2088  0.5485
   27DOPE   O14 3367   6.647   0.248  17.011 -0.0419 -0.3141 -0.0597
   27DOPE   O11 3368   6.510   0.340  16.838  0.0698 -0.1872  0.4489
   27DOPE   O12 3369   6.408   0.198  17.014 -0.1816  0.1229 -0.3419
   27DOPE    C1 3370   6.378   0.338  16.773 -0.0939 -0.3163  0.4678
   27DOPE    HA 3371   6.363   0.440  16.732  2.6802  0.2775  0.6912
   27DOPE    HB 3372   6.295   0.329  16.846  0.1689 -2.8469  0.5518
   27DOPE    C2 3373   6.351   0.247  16.640 -0.3036  0.1179  0.2305
   27DOPE    HS 3374   6.330   0.145  16.679 -0.3507 -0.1459 -0.4725
   27DOPE   O21 3375   6.467   0.255  16.558 -0.1401 -0.4338  0.3876
   27DOPE   C21 3376   6.497   0.154  16.484  1.0629 -0.3678 -0.4322
   27DOPE   O22 3377   6.438   0.045  16.485  0.3418 -0.7066  0.0735
   27DOPE   C22 3378   6.619   0.178  16.392 -0.3989 -0.3022  1.0262
   27DOPE   H2R 3379   6.645   0.082  16.343 -2.1215 -1.6500  2.6044
   27DOPE   H2S 3380   6.697   0.214  16.462 -0.2226  1.6851 -0.1157
   27DOPE    C3 3381   6.225   0.308  16.573  0.4619 -0.6937  0.3676
   27DOPE    HX 3382   6.239   0.414  16.543 -0.1987 -0.3796  1.1361
   27DOPE    HY 3383   6.138   0.300  16.641  2.1521 -1.0869  2.5769
   27DOPE   O31 3384   6.191   0.226  16.459 -0.7274  0.5521  0.4484
   27DOPE   C31 3385   6.135   0.103  16.476 -0.1363 -0.7829  0.3510
   27DOPE   O32 3386   6.100   0.054  16.579  0.7341  0.2058 -0.0654
   27DOPE   C32 3387   6.092   0.052  16.337 -0.0725  0.1374  0.0632
   27DOPE   H2X 3388   6.006   0.109  16.296  0.3799  0.5451 -0.3406
   27DOPE   H2Y 3389   6.176   0.079  16.270 -1.3269 -0.3556 -1.7979
   27DOPE   C23 3390   6.598   0.292  16.296  0.4860  0.1466 -0.3592
   27DOPE   H3R 3391   6.699   0.321  16.260  0.3708  0.0985 -0.7260
   27DOPE   H3S 3392   6.552   0.378  16.350  0.4863 -2.7938  4.9633
   27DOPE   C24 3393   6.482   0.276  16.196  0.0293  0.3712 -0.3284
   27DOPE   H4R 3394   6.455   0.374  16.152 -1.1102  1.1293  1.9005
   27DOPE   H4S 3395   6.385   0.270  16.251  1.2725  0.0857  1.9341
   27DOPE   C25 3396   6.502   0.163  16.098  0.0588 -0.1306 -0.1325
   27DOPE   H5R 3397   6.404   0.132  16.056 -0.4482  0.7700  0.3428
   27DOPE   H5S 3398   6.546   0.076  16.151 -0.7351 -1.0316 -0.9230
   27DOPE   C26 3399   6.596   0.210  15.988  0.0144 -0.0291 -0.1273
   27DOPE   H6R 3400   6.695   0.244  16.025  1.2570 -3.9283  0.5440
   27DOPE   H6S 3401   6.564   0.298  15.927 -1.5145 -0.7193 -0.3676
   27DOPE   C27 3402   6.613   0.094  15.884  0.0830 -0.2239 -0.6036
   27DOPE   H7R 3403   6.626   0.002  15.946  3.1507  0.5515  0.0552
   27DOPE   H7S 3404   6.699   0.116  15.818  0.6709  0.7119  0.4417
   27DOPE   C28 3405   6.490   0.067  15.795  0.1307 -0.9548 -0.1332
   27DOPE   H8R 3406   6.413   0.023  15.863 -0.8918  1.3513  0.3149
   27DOPE   H8S 3407   6.521  -0.015  15.727 -0.6700 -1.0539 -0.3963
   27DOPE   C29 3408   6.434   0.197  15.740  0.4707  0.2719 -0.5473
   27DOPE   H9R 3409   6.512   0.262  15.698  0.2653  1.6797  1.1303
   27DOPE  C210 3410   6.315   0.250  15.752 -0.0340 -0.2873 -0.6684
   27DOPE  H10R 3411   6.290   0.342  15.697 -0.2559 -0.0621 -0.1887
   27DOPE  C211 3412   6.203   0.194  15.829  0.1509 -0.1410  0.1395
   27DOPE  H11R 3413   6.178   0.262  15.913 -1.5930  1.3312 -1.4774
   27DOPE  H11S 3414   6.226   0.092  15.867  1.2361 -0.2698 -0.8420
   27DOPE  C212 3415   6.075   0.180  15.746 -0.0747  0.0676 -0.4632
   27DOPE  H12R 3416   6.041   0.280  15.712  0.0749  0.6335  0.9774
   27DOPE  H12S 3417   5.992   0.148  15.812  0.8261  0.4016  0.8854
   27DOPE  C213 3418   6.079   0.076  15.630 -0.6714 -0.2501  0.4040
   27DOPE  H13R 3419   6.101  -0.026  15.668 -1.8498  0.0810  2.1334
   27DOPE  H13S 3420   6.161   0.107  15.562 -1.2407  0.0017 -0.1727
   27DOPE  C214 3421   5.938   0.071  15.558 -0.1298 -0.8724 -0.5988
   27DOPE  H14R 3422   5.914   0.176  15.534  0.9283 -0.7115 -0.9912
   27DOPE  H14S 3423   5.870   0.038  15.640  0.7180 -1.1699 -0.0065
   27DOPE  C215 3424   5.943  -0.005  15.425 -0.1701  0.4220 -0.6598
   27DOPE  H15R 3425   5.999   0.063  15.357 -1.2693  0.9989 -1.0112
   27DOPE  H15S 3426   5.841   0.003  15.381 -0.3076  0.6875 -0.2942
   27DOPE  C216 3427   6.011  -0.145  15.431  0.3815 -0.0788 -0.0973
   27DOPE  H16R 3428   5.980  -0.195  15.525  0.2892 -1.0119 -0.6106
   27DOPE  H16S 3429   6.121  -0.138  15.421  0.2410 -0.3181 -2.1609
   27DOPE  C217 3430   5.964  -0.239  15.319 -0.1727 -0.1098  0.1528
   27DOPE  H17R 3431   5.993  -0.198  15.220 -1.7326 -0.4655 -0.4813
   27DOPE  H17S 3432   5.853  -0.236  15.307  0.1058  0.4959 -3.6273
   27DOPE  C218 3433   6.028  -0.372  15.348  0.6954  0.3744 -0.1700
   27DOPE  H18R 3434   6.135  -0.357  15.326  0.9872  1.1814  1.5938
   27DOPE  H18S 3435   5.987  -0.461  15.296  0.9328  0.7475 -1.0122
   27DOPE  H18T 3436   6.024  -0.399  15.455  1.9620 -0.7101 -0.3811
   27DOPE   C33 3437   6.072  -0.100  16.318  0.3959 -0.0132 -0.0297
   27DOPE   H3X 3438   5.972  -0.124  16.359  0.1304 -0.1735 -0.7594
   27DOPE   H3Y 3439   6.149  -0.148  16.383 -3.0613 -0.6433  4.0306
   27DOPE   C34 3440   6.083  -0.164  16.186  0.0337  0.2854 -0.1465
   27DOPE   H4X 3441   6.069  -0.271  16.209  1.2947  0.2038  0.2947
   27DOPE   H4Y 3442   6.008  -0.140  16.107 -0.7422 -2.4168 -0.3139
   27DOPE   C35 3443   6.219  -0.136  16.116 -0.2856 -0.3275 -0.1104
   27DOPE   H5X 3444   6.301  -0.123  16.189 -1.5476 -1.7165  1.6428
   27DOPE   H5Y 3445   6.206  -0.041  16.059 -2.3466 -0.9709 -0.8171
   27DOPE   C36 3446   6.258  -0.242  16.013 -0.0956 -0.1133  0.2763
   27DOPE   H6X 3447   6.275  -0.344  16.053 -1.0987  0.0536  1.1830
   27DOPE   H6Y 3448   6.356  -0.212  15.972 -0.2240  0.5209  0.4129
   27DOPE   C37 3449   6.139  -0.272  15.915 -0.2347 -0.7230 -0.4019
   27DOPE   H7X 3450   6.051  -0.331  15.949 -0.8423  1.2155  1.6494
   27DOPE   H7Y 3451   6.100  -0.176  15.875  2.7053  0.4400 -0.7780
   27DOPE   C38 3452   6.179  -0.362  15.793  0.1778  0.1839  0.2216
   27DOPE   H8X 3453   6.085  -0.387  15.738  1.6978 -1.9427 -1.5947
   27DOPE   H8Y 3454   6.219  -0.456  15.836  2.6378  1.1414  0.1941
   27DOPE   C39 3455   6.273  -0.283  15.697  0.0367  0.6225  0.5759
   27DOPE   H9X 3456   6.224  -0.191  15.662  0.0173  0.1481 -0.6966
   27DOPE  C310 3457   6.396  -0.319  15.654  0.2211  0.1294  0.4995
   27DOPE  H10X 3458   6.446  -0.249  15.585  0.6883  1.2565  1.9369
   27DOPE  C311 3459   6.460  -0.449  15.690  0.1824  0.3005 -0.1319
   27DOPE  H11X 3460   6.490  -0.455  15.797 -1.3717  1.3625  0.3948
   27DOPE  H11Y 3461   6.391  -0.531  15.663 -0.5171  0.2811  1.6194
   27DOPE  C312 3462   6.576  -0.489  15.599  0.0920  0.0362 -0.1615
   27DOPE  H12X 3463   6.619  -0.586  15.632  0.2987  0.0256 -0.4560
   27DOPE  H12Y 3464   6.659  -0.416  15.601  1.3196 -1.2912 -0.9196
   27DOPE  C313 3465   6.540  -0.518  15.455  0.2343 -0.5754  0.2322
   27DOPE  H13X 3466   6.461  -0.597  15.458 -1.1724  0.6888 -1.2493
   27DOPE  H13Y 3467   6.478  -0.437  15.410 -0.7173 -0.3559  1.8529
   27DOPE  C314 3468   6.658  -0.560  15.362  0.3185  0.3554 -0.4265
   27DOPE  H14X 3469   6.718  -0.625  15.429  0.0037  1.2587  0.7525
   27DOPE  H14Y 3470   6.711  -0.463  15.351  0.2306  0.5977  1.1204
   27DOPE  C315 3471   6.625  -0.625  15.230  0.3958  0.3922 -0.0215
   27DOPE  H15X 3472   6.557  -0.550  15.185 -0.4050 -0.1720  0.2194
   27DOPE  H15Y 3473   6.562  -0.717  15.237 -0.0413  0.7261  0.4940
   27DOPE  C316 3474   6.750  -0.659  15.153 -0.5101 -0.6407  0.0842
   27DOPE  H16X 3475   6.824  -0.711  15.218  1.0841 -0.7776 -1.7363
   27DOPE  H16Y 3476   6.807  -0.568  15.125  0.6417 -0.9076  1.4353
   27DOPE  C317 3477   6.721  -0.743  15.020  0.2322 -0.2718 -0.4514
   27DOPE  H17X 3478   6.693  -0.843  15.062  2.4877 -1.3839 -1.4337
   27DOPE  H17Y 3479   6.638  -0.692  14.965  0.3757  0.7841  0.2841
   27DOPE  C318 3480   6.844  -0.754  14.935  0.1595 -0.4933  0.3984
   27DOPE  H18X 3481   6.822  -0.799  14.836  0.1174  0.0338  0.1653
   27DOPE  H18Y 3482   6.878  -0.650  14.922  0.4342 -0.2992  2.2791
   27DOPE  H18Z 3483   6.924  -0.815  14.982  0.9935  0.3352  0.0704
   28DOPE     N 3484   0.041   7.442  17.040  0.3786 -0.1369 -0.3485
   28DOPE   HN1 3485   0.036   7.363  17.108 -1.2130 -0.5231 -0.8732
   28DOPE   HN2 3486   0.132   7.436  16.989  0.3418  0.1164 -0.4404
   28DOPE   HN3 3487   0.025   7.528  17.096 -2.8303 -0.0885 -1.1434
   28DOPE   C12 3488  -0.071   7.428  16.933 -0.1666 -0.4015 -0.1912
   28DOPE  H12A 3489  -0.061   7.525  16.878 -0.2059  0.1480  0.7549
   28DOPE  H12B 3490  -0.172   7.432  16.980 -0.6970 -1.9060 -1.1288
   28DOPE   C11 3491  -0.053   7.305  16.839  0.7360  0.0857  0.6304
   28DOPE  H11A 3492   0.046   7.320  16.789 -0.8396 -1.8347 -3.5589
   28DOPE  H11B 3493  -0.126   7.310  16.756  3.6470  0.0687 -2.1389
   28DOPE     P 3494   0.013   7.067  16.930  0.0253  0.1209  0.0036
   28DOPE   O13 3495  -0.020   6.989  17.049 -0.0581  0.3034  0.1182
   28DOPE   O14 3496   0.154   7.111  16.909 -0.6021 -0.3597 -0.7025
   28DOPE   O11 3497  -0.013   6.975  16.803  0.8345  0.0516 -0.5400
   28DOPE   O12 3498  -0.088   7.186  16.914 -0.6230 -0.2563  0.2949
   28DOPE    C1 3499  -0.149   6.930  16.788  0.0580 -0.1862 -0.3754
   28DOPE    HA 3500  -0.178   6.962  16.686 -1.5367 -3.2432 -1.0320
   28DOPE    HB 3501  -0.221   6.970  16.862 -2.5825 -3.8149 -0.6977
   28DOPE    C2 3502  -0.155   6.772  16.810  0.2126  0.6314  0.3711
   28DOPE    HS 3503  -0.123   6.757  16.915 -3.2742 -1.1887  1.3144
   28DOPE   O21 3504  -0.069   6.698  16.719 -0.0219 -0.0075  0.0149
   28DOPE   C21 3505  -0.054   6.573  16.761  0.2534  0.3417  0.0708
   28DOPE   O22 3506  -0.092   6.522  16.863 -0.5601 -0.2875 -0.3192
   28DOPE   C22 3507   0.021   6.498  16.649  0.0664 -0.9195  0.2313
   28DOPE   H2R 3508   0.048   6.397  16.689  2.0336 -0.4075  0.3113
   28DOPE   H2S 3509   0.103   6.558  16.605 -0.3972  0.0014  0.5884
   28DOPE    C3 3510  -0.301   6.724  16.799 -0.0481 -0.1391  0.2099
   28DOPE    HX 3511  -0.365   6.784  16.867 -1.0130 -0.6909 -0.1972
   28DOPE    HY 3512  -0.310   6.619  16.836  1.6432  0.5060  2.7335
   28DOPE   O31 3513  -0.351   6.718  16.664 -0.3369 -0.4215  0.0951
   28DOPE   C31 3514  -0.447   6.806  16.627  0.2224  0.6268 -0.0326
   28DOPE   O32 3515  -0.509   6.880  16.702 -0.2134  0.1134 -0.4622
   28DOPE   C32 3516  -0.485   6.774  16.479 -0.4104  0.5127  0.2031
   28DOPE   H2X 3517  -0.424   6.834  16.409 -2.7583  0.3617 -2.1527
   28DOPE   H2Y 3518  -0.465   6.666  16.462  0.8077  0.9853 -1.6264
   28DOPE   C23 3519  -0.089   6.477  16.537 -0.1119  0.1451 -0.7346
   28DOPE   H3R 3520  -0.157   6.565  16.529 -0.2761  0.2149  1.0519
   28DOPE   H3S 3521  -0.148   6.385  16.556  0.3754 -0.9899 -4.0962
   28DOPE   C24 3522  -0.039   6.476  16.388 -0.1053  0.4403 -0.9462
   28DOPE   H4R 3523  -0.107   6.406  16.334  0.0953 -2.1447  1.9234
   28DOPE   H4S 3524   0.063   6.435  16.369 -0.7292 -1.8736  0.3412
   28DOPE   C25 3525  -0.044   6.616  16.320 -0.4594  0.2201 -0.4558
   28DOPE   H5R 3526   0.019   6.682  16.385  0.3470 -0.7245 -0.2428
   28DOPE   H5S 3527  -0.148   6.654  16.317 -0.8611 -0.9090 -1.0748
   28DOPE   C26 3528  -0.001   6.610  16.172 -0.0135  0.2092  0.3289
   28DOPE   H6R 3529  -0.055   6.521  16.132 -0.9713  1.8159 -2.1791
   28DOPE   H6S 3530   0.108   6.591  16.170 -0.1347 -0.5229  0.0506
   28DOPE   C27 3531  -0.029   6.743  16.107 -0.2759 -0.2117 -0.8143
   28DOPE   H7R 3532   0.050   6.771  16.034  0.4799  0.6061  0.2850
   28DOPE   H7S 3533  -0.023   6.818  16.189  0.7516 -1.5008  0.3331
   28DOPE   C28 3534  -0.171   6.762  16.050  0.0661 -0.4754 -0.5908
   28DOPE   H8R 3535  -0.200   6.869  16.059  3.3752  0.4951 -0.0831
   28DOPE   H8S 3536  -0.243   6.710  16.117 -0.5447 -0.7980 -1.4792
   28DOPE   C29 3537  -0.192   6.722  15.906 -0.2114 -0.8733 -0.4552
   28DOPE   H9R 3538  -0.101   6.705  15.847 -1.0757  0.7509 -2.3465
   28DOPE  C210 3539  -0.304   6.694  15.846  0.4465 -0.2059 -0.3264
   28DOPE  H10R 3540  -0.299   6.655  15.743 -1.6993 -0.5767 -0.3209
   28DOPE  C211 3541  -0.445   6.688  15.902 -0.1045  0.2825 -0.8679
   28DOPE  H11R 3542  -0.509   6.762  15.849 -1.4766 -0.7956 -0.7792
   28DOPE  H11S 3543  -0.445   6.713  16.010  1.3859 -0.0828 -0.7602
   28DOPE  C212 3544  -0.516   6.559  15.881  0.0294 -0.6356  0.6918
   28DOPE  H12R 3545  -0.542   6.522  15.780 -1.4513 -3.5437  2.0104
   28DOPE  H12S 3546  -0.620   6.580  15.914 -0.0353  2.0334 -0.9108
   28DOPE  C213 3547  -0.457   6.440  15.959 -0.8530 -0.4503  0.0838
   28DOPE  H13R 3548  -0.348   6.433  15.942 -0.8775  1.5697 -1.2557
   28DOPE  H13S 3549  -0.506   6.350  15.914 -0.8154  0.7705 -2.5996
   28DOPE  C214 3550  -0.485   6.440  16.106  0.0844  0.0848  1.1686
   28DOPE  H14R 3551  -0.595   6.430  16.117 -0.0947  1.5250  0.9637
   28DOPE  H14S 3552  -0.461   6.542  16.145  2.7686  0.1237 -0.3204
   28DOPE  C215 3553  -0.404   6.343  16.181 -0.5687  0.7179  0.1386
   28DOPE  H15R 3554  -0.297   6.375  16.173 -0.2322 -0.1264  1.0404
   28DOPE  H15S 3555  -0.413   6.239  16.143 -1.5564  0.2637  1.5492
   28DOPE  C216 3556  -0.445   6.341  16.331  0.3914  0.3914 -0.3811
   28DOPE  H16R 3557  -0.556   6.351  16.330  0.3840  0.3182 -0.6603
   28DOPE  H16S 3558  -0.404   6.426  16.390  1.7917 -1.2298  1.0881
   28DOPE  C217 3559  -0.387   6.220  16.394 -0.8162 -0.4592  0.1075
   28DOPE  H17R 3560  -0.276   6.220  16.387 -0.7096  1.6259  1.0456
   28DOPE  H17S 3561  -0.418   6.124  16.349 -2.4747 -0.4006  1.0463
   28DOPE  C218 3562  -0.426   6.211  16.544  0.2948 -0.7544 -0.4416
   28DOPE  H18R 3563  -0.390   6.297  16.604 -0.4025 -0.5012 -0.3739
   28DOPE  H18S 3564  -0.381   6.120  16.589 -3.6017 -1.5092  2.4791
   28DOPE  H18T 3565  -0.535   6.193  16.558  0.2428  0.4803  0.9567
   28DOPE   C33 3566  -0.635   6.789  16.442 -0.3261 -0.7729  0.4915
   28DOPE   H3X 3567  -0.669   6.883  16.490  1.7099  1.0272 -1.3343
   28DOPE   H3Y 3568  -0.686   6.699  16.480  1.9500 -2.7174 -0.7898
   28DOPE   C34 3569  -0.664   6.810  16.286  0.3234 -0.2856  0.0808
   28DOPE   H4X 3570  -0.647   6.712  16.236 -0.0306 -0.2391 -0.1402
   28DOPE   H4Y 3571  -0.773   6.827  16.270  0.4875  0.4055 -0.3755
   28DOPE   C35 3572  -0.586   6.932  16.227  0.8559  0.4026 -0.3374
   28DOPE   H5X 3573  -0.478   6.907  16.233  2.0501  4.7003 -0.5280
   28DOPE   H5Y 3574  -0.613   7.020  16.289  0.3991  0.0586 -0.0441
   28DOPE   C36 3575  -0.621   6.967  16.084  1.1103 -0.4530 -0.1558
   28DOPE   H6X 3576  -0.640   6.886  16.010  2.7634 -0.5446 -0.5342
   28DOPE   H6Y 3577  -0.523   6.995  16.040 -0.0870  1.7377 -1.6084
   28DOPE   C37 3578  -0.732   7.064  16.082  0.1154 -0.4168 -0.0186
   28DOPE   H7X 3579  -0.824   7.019  16.124  0.7541 -1.7212  0.0334
   28DOPE   H7Y 3580  -0.707   7.159  16.135  0.0125 -0.5072  0.1924
   28DOPE   C38 3581  -0.761   7.094  15.937  0.6761  0.3213  0.4980
   28DOPE   H8X 3582  -0.782   7.001  15.880 -0.7073 -0.2048  1.8028
   28DOPE   H8Y 3583  -0.676   7.142  15.884 -0.8239  1.4557 -1.0259
   28DOPE   C39 3584  -0.879   7.190  15.935 -0.4848 -0.0180 -0.5487
   28DOPE   H9X 3585  -0.977   7.151  15.967 -1.8580  2.2819 -1.7260
   28DOPE  C310 3586  -0.873   7.320  15.894 -0.4461 -0.2699 -0.2373
   28DOPE  H10X 3587  -0.961   7.386  15.897 -0.6716 -0.5179 -1.1879
   28DOPE  C311 3588  -0.752   7.392  15.840 -0.0156  0.0321  0.1852
   28DOPE  H11X 3589  -0.662   7.349  15.890 -0.7438  1.1908  2.6877
   28DOPE  H11Y 3590  -0.741   7.375  15.731  1.2305 -1.9539  0.5744
   28DOPE  C312 3591  -0.758   7.548  15.861 -0.3962 -0.0929  0.3558
   28DOPE  H12X 3592  -0.834   7.594  15.794 -0.5989 -0.7006  0.1616
   28DOPE  H12Y 3593  -0.656   7.574  15.826  1.0459 -2.8238  2.1838
   28DOPE  C313 3594  -0.772   7.594  16.012  0.3477  0.6208 -0.3521
   28DOPE  H13X 3595  -0.874   7.575  16.052  0.5386 -2.3784 -1.0824
   28DOPE  H13Y 3596  -0.704   7.540  16.081  1.5262  4.3133  1.6247
   28DOPE  C314 3597  -0.735   7.739  16.021  0.1789 -0.4621  0.6123
   28DOPE  H14X 3598  -0.795   7.796  15.946  1.8760 -0.0413 -0.4801
   28DOPE  H14Y 3599  -0.633   7.753  15.980 -1.6207  2.3911 -3.6458
   28DOPE  C315 3600  -0.758   7.794  16.160  0.1424 -0.2801 -0.0354
   28DOPE  H15X 3601  -0.825   7.734  16.226  1.2711  0.2436  1.6698
   28DOPE  H15Y 3602  -0.807   7.893  16.148  1.6073  0.9054  2.7603
   28DOPE  C316 3603  -0.632   7.807  16.252 -0.7435  0.4294  0.0048
   28DOPE  H16X 3604  -0.561   7.857  16.183  1.4835 -1.1676  1.0158
   28DOPE  H16Y 3605  -0.591   7.706  16.274  1.9863  1.5244  0.3431
   28DOPE  C317 3606  -0.641   7.883  16.375 -0.0793 -0.0822  0.1906
   28DOPE  H17X 3607  -0.686   7.979  16.342  2.0367  0.7158 -0.4986
   28DOPE  H17Y 3608  -0.713   7.829  16.441  2.3311 -1.3501  1.9564
   28DOPE  C318 3609  -0.507   7.913  16.432  0.4355 -0.2247  0.2426
   28DOPE  H18X 3610  -0.437   7.838  16.388  0.5710 -0.5867  1.0401
   28DOPE  H18Y 3611  -0.484   8.014  16.393  0.1719  0.1685  1.0801
   28DOPE  H18Z 3612  -0.499   7.910  16.543  5.4491 -1.8533  0.0893
   29DOPE     N 3613   7.681   1.284  17.234  0.0765 -0.7209  0.1289
   29DOPE   HN1 3614   7.631   1.369  17.202  1.4870  1.1854  2.5329
   29DOPE   HN2 3615   7.746   1.329  17.303 -0.5846 -3.2891  2.6135
   29DOPE   HN3 3616   7.720   1.221  17.162 -0.2938 -1.0664  0.2324
   29DOPE   C12 3617   7.582   1.202  17.307  0.2980  0.8385 -0.0632
   29DOPE  H12A 3618   7.497   1.261  17.346 -0.7734 -1.4500  1.2417
   29DOPE  H12B 3619   7.631   1.144  17.388  1.3444  1.1480 -0.4590
   29DOPE   C11 3620   7.524   1.094  17.210 -0.0521 -0.1471 -0.4275
   29DOPE  H11A 3621   7.433   1.060  17.262  0.7958 -0.1154  1.1283
   29DOPE  H11B 3622   7.590   1.005  17.201 -1.3861 -1.2504  0.3170
   29DOPE     P 3623   7.580   1.137  16.957  0.5045 -0.0853  0.4018
   29DOPE   O13 3624   7.554   1.003  16.910  0.3755 -0.3992 -0.5925
   29DOPE   O14 3625   7.718   1.161  17.001  0.1955  0.0594  0.0042
   29DOPE   O11 3626   7.529   1.240  16.854  0.4905 -0.5522 -0.0512
   29DOPE   O12 3627   7.490   1.149  17.085  0.0742 -0.1451 -0.4446
   29DOPE    C1 3628   7.585   1.214  16.722 -0.5542 -0.3679 -0.0710
   29DOPE    HA 3629   7.694   1.191  16.725 -0.3225  0.7771  1.5069
   29DOPE    HB 3630   7.577   1.311  16.668  1.6062 -0.0316  0.1340
   29DOPE    C2 3631   7.510   1.102  16.642  0.2467 -0.5058  0.6125
   29DOPE    HS 3632   7.546   1.004  16.680 -0.5967 -1.2131 -0.3554
   29DOPE   O21 3633   7.560   1.122  16.512  0.5544  0.1230  0.0641
   29DOPE   C21 3634   7.542   1.016  16.434 -0.3219 -0.0243 -0.0033
   29DOPE   O22 3635   7.526   0.902  16.471 -0.2836  0.0292  0.0023
   29DOPE   C22 3636   7.544   1.060  16.289  0.5122  0.6672  0.3150
   29DOPE   H2R 3637   7.649   1.090  16.269  0.4280  0.6042 -0.2336
   29DOPE   H2S 3638   7.487   1.154  16.272 -1.1725 -0.4069 -0.2196
   29DOPE    C3 3639   7.354   1.120  16.660 -0.4704 -0.1289  0.3610
   29DOPE    HX 3640   7.340   1.230  16.650 -1.3836 -0.3241 -0.6045
   29DOPE    HY 3641   7.321   1.089  16.762 -1.3541  0.9293  0.4200
   29DOPE   O31 3642   7.278   1.057  16.548  0.1290 -0.5155 -0.4557
   29DOPE   C31 3643   7.177   0.971  16.581  0.1160  0.0841 -0.1591
   29DOPE   O32 3644   7.140   0.940  16.693 -0.4545  0.2514  0.7119
   29DOPE   C32 3645   7.120   0.916  16.452  0.0985 -0.4309  0.6382
   29DOPE   H2X 3646   7.013   0.944  16.463 -0.1732 -0.6017 -1.2677
   29DOPE   H2Y 3647   7.169   0.973  16.370  0.5913  1.0634  1.9022
   29DOPE   C23 3648   7.499   0.956  16.182 -0.0801 -0.0534  0.1800
   29DOPE   H3R 3649   7.394   0.926  16.203 -0.6921  0.0275 -2.4246
   29DOPE   H3S 3650   7.562   0.864  16.177  1.1647  0.8276 -3.2577
   29DOPE   C24 3651   7.497   1.013  16.037 -0.2167  0.2353  0.6139
   29DOPE   H4R 3652   7.597   1.052  16.009 -0.5650 -0.9587 -2.7060
   29DOPE   H4S 3653   7.424   1.096  16.029  0.7265  1.0519  0.3007
   29DOPE   C25 3654   7.467   0.911  15.930 -0.1356 -0.3061  0.1171
   29DOPE   H5R 3655   7.359   0.887  15.938 -0.3627 -0.9074 -3.3910
   29DOPE   H5S 3656   7.529   0.819  15.942 -1.4520 -1.1644  0.5498
   29DOPE   C26 3657   7.478   0.954  15.781  0.4066 -0.7015  0.3278
   29DOPE   H6R 3658   7.584   0.971  15.750 -0.3049 -0.6921 -2.3619
   29DOPE   H6S 3659   7.429   1.054  15.780  0.3811 -0.7098  0.6462
   29DOPE   C27 3660   7.421   0.852  15.695 -0.1617 -0.1762 -0.6428
   29DOPE   H7R 3661   7.321   0.819  15.731 -0.0399 -0.1835 -0.3110
   29DOPE   H7S 3662   7.475   0.757  15.712 -2.6425 -1.3238  1.3414
   29DOPE   C28 3663   7.422   0.888  15.546 -0.2586 -0.7745  0.2571
   29DOPE   H8R 3664   7.353   0.975  15.542  0.0155 -0.5851 -1.7794
   29DOPE   H8S 3665   7.374   0.800  15.497 -2.3879  0.4684 -0.0117
   29DOPE   C29 3666   7.560   0.914  15.498 -0.4412 -0.4777  0.2719
   29DOPE   H9R 3667   7.620   0.992  15.547  1.3432 -0.1966 -2.1883
   29DOPE  C210 3668   7.620   0.858  15.398  0.0903  0.2324 -0.0169
   29DOPE  H10R 3669   7.712   0.906  15.360 -0.9498  2.1397 -0.2655
   29DOPE  C211 3670   7.570   0.747  15.302 -0.2604 -0.0355 -0.2173
   29DOPE  H11R 3671   7.542   0.658  15.364 -1.1486  0.1087 -0.4046
   29DOPE  H11S 3672   7.661   0.723  15.242  1.1438  1.7619  1.0686
   29DOPE  C212 3673   7.462   0.780  15.199  0.4317 -0.4825 -0.3179
   29DOPE  H12R 3674   7.505   0.845  15.120  1.1699  1.1221  1.3456
   29DOPE  H12S 3675   7.395   0.853  15.249  0.1625 -1.6656  1.1464
   29DOPE  C213 3676   7.388   0.656  15.142 -0.2937 -1.0359  0.4932
   29DOPE  H13R 3677   7.463   0.586  15.099 -0.3712 -0.0074 -1.4171
   29DOPE  H13S 3678   7.322   0.686  15.058 -1.1008 -1.6977  0.8709
   29DOPE  C214 3679   7.305   0.587  15.251  0.4329 -0.3135  0.0701
   29DOPE  H14R 3680   7.239   0.660  15.302 -0.1313 -1.4144  0.9712
   29DOPE  H14S 3681   7.375   0.553  15.331  0.0543 -0.9955  0.1228
   29DOPE  C215 3682   7.217   0.465  15.197 -0.1994 -0.1998  0.4870
   29DOPE  H15R 3683   7.285   0.390  15.150  0.0011  0.6456 -0.5874
   29DOPE  H15S 3684   7.151   0.508  15.119 -0.3592  1.4379  1.4803
   29DOPE  C216 3685   7.134   0.410  15.310 -0.0304  0.3897 -0.2933
   29DOPE  H16R 3686   7.086   0.497  15.361  0.0590  0.2140  0.0879
   29DOPE  H16S 3687   7.205   0.360  15.378  0.0437 -1.6364 -1.7709
   29DOPE  C217 3688   7.024   0.316  15.269 -0.3824 -0.0520  0.1506
   29DOPE  H17R 3689   6.978   0.352  15.175  0.0898  0.8586  0.2569
   29DOPE  H17S 3690   6.942   0.319  15.344 -1.9145  2.0529 -1.4950
   29DOPE  C218 3691   7.070   0.170  15.253  0.2701  0.1510  0.3701
   29DOPE  H18R 3692   7.100   0.135  15.354 -0.0225  1.3958  0.9058
   29DOPE  H18S 3693   7.149   0.151  15.178 -1.0121 -2.3819 -0.4788
   29DOPE  H18T 3694   6.974   0.117  15.230 -0.5274  0.6655  2.3493
   29DOPE   C33 3695   7.152   0.767  16.444  0.2780  0.1542 -0.5667
   29DOPE   H3X 3696   7.077   0.711  16.505  1.0437 -1.1786 -0.8064
   29DOPE   H3Y 3697   7.253   0.744  16.483 -0.1201 -0.8104 -0.0698
   29DOPE   C34 3698   7.149   0.694  16.308  0.0369  0.0611  0.3233
   29DOPE   H4X 3699   7.186   0.763  16.229 -1.2015  0.6004  0.1932
   29DOPE   H4Y 3700   7.217   0.606  16.311 -1.0668 -0.8624 -0.6369
   29DOPE   C35 3701   7.010   0.649  16.265  0.2199  0.5086  0.1626
   29DOPE   H5X 3702   6.926   0.721  16.253 -2.5632 -2.3121  1.2937
   29DOPE   H5Y 3703   6.973   0.580  16.343  0.0995 -0.6312 -0.8724
   29DOPE   C36 3704   7.023   0.602  16.121  0.2656  0.4490  0.2630
   29DOPE   H6X 3705   7.094   0.517  16.124  0.4492  0.5978  0.1886
   29DOPE   H6Y 3706   7.076   0.673  16.053 -0.2825 -0.1707 -0.8468
   29DOPE   C37 3707   6.894   0.550  16.053  0.5281  0.0421  0.1831
   29DOPE   H7X 3708   6.927   0.479  15.974  0.3798  2.2815 -2.0371
   29DOPE   H7Y 3709   6.844   0.486  16.129  1.7121  0.5473  1.4085
   29DOPE   C38 3710   6.798   0.659  16.012 -0.2430  0.0409  0.2688
   29DOPE   H8X 3711   6.848   0.716  15.930  0.7315 -1.1694 -0.0174
   29DOPE   H8Y 3712   6.771   0.727  16.094  0.9292  0.0984  0.6282
   29DOPE   C39 3713   6.664   0.617  15.958  0.0720  0.1847  0.3080
   29DOPE   H9X 3714   6.601   0.567  16.033  1.8758 -1.9495  0.4912
   29DOPE  C310 3715   6.635   0.613  15.826 -1.1243  0.1056  0.0079
   29DOPE  H10X 3716   6.545   0.552  15.810 -1.5358  0.9121 -0.9007
   29DOPE  C311 3717   6.722   0.645  15.703 -0.1327  0.8615 -0.9423
   29DOPE  H11X 3718   6.702   0.745  15.660 -1.4040  1.0471  0.0365
   29DOPE  H11Y 3719   6.832   0.639  15.723 -0.2376  2.1655  0.2177
   29DOPE  C312 3720   6.692   0.557  15.579 -0.0798 -0.1700  0.6686
   29DOPE  H12X 3721   6.682   0.452  15.612  0.4154 -1.0176 -1.6519
   29DOPE  H12Y 3722   6.779   0.555  15.510 -1.0047  0.4777 -0.5643
   29DOPE  C313 3723   6.568   0.595  15.502  0.7717  0.1515 -0.1610
   29DOPE  H13X 3724   6.471   0.586  15.555  0.0328 -0.4167 -1.5342
   29DOPE  H13Y 3725   6.587   0.701  15.471  0.5758 -0.6885 -3.5700
   29DOPE  C314 3726   6.560   0.517  15.369 -0.1812 -0.3058  0.2462
   29DOPE  H14X 3727   6.521   0.416  15.393 -1.0864 -0.6147 -2.2274
   29DOPE  H14Y 3728   6.650   0.506  15.306 -0.5556 -3.3300  0.0731
   29DOPE  C315 3729   6.442   0.566  15.283  0.2896 -0.7934 -0.3698
   29DOPE  H15X 3730   6.467   0.649  15.213 -2.2977 -0.3429 -0.8770
   29DOPE  H15Y 3731   6.367   0.613  15.351  0.8125  0.6447 -0.7532
   29DOPE  C316 3732   6.374   0.463  15.202  0.0956  0.9260 -0.0220
   29DOPE  H16X 3733   6.269   0.498  15.190 -0.6662 -0.2975  2.3848
   29DOPE  H16Y 3734   6.370   0.371  15.264  0.9801  0.5501 -0.4957
   29DOPE  C317 3735   6.418   0.450  15.061  0.2490 -0.3351  0.4794
   29DOPE  H17X 3736   6.445   0.550  15.021 -1.8702 -0.0443 -0.3191
   29DOPE  H17Y 3737   6.515   0.396  15.055 -1.1230 -2.7558 -1.9570
   29DOPE  C318 3738   6.325   0.379  14.965  0.4362 -0.0003  0.2349
   29DOPE  H18X 3739   6.236   0.441  14.942  1.1927  0.6961 -0.9642
   29DOPE  H18Y 3740   6.370   0.368  14.864 -0.9175 -0.9261 -0.2875
   29DOPE  H18Z 3741   6.283   0.282  14.999 -1.8036  0.6519 -0.4937
   30DOPE     N 3742   0.695   7.422  17.054 -0.5947  0.2992  0.6203
   30DOPE   HN1 3743   0.601   7.384  17.031 -0.5926  0.5447  0.2064
   30DOPE   HN2 3744   0.764   7.386  16.986 -1.4833 -0.4303  0.0810
   30DOPE   HN3 3745   0.720   7.384  17.148 -0.1088  0.3824  0.5268
   30DOPE   C12 3746   0.681   7.570  17.042  1.2415  0.0664 -0.1066
   30DOPE  H12A 3747   0.783   7.607  17.018  1.5169  2.1255  3.4974
   30DOPE  H12B 3748   0.649   7.605  17.142  0.6891 -3.7951  1.2279
   30DOPE   C11 3749   0.594   7.621  16.927  0.9487  0.0211  0.1683
   30DOPE  H11A 3750   0.638   7.599  16.828  0.5860 -0.4474  0.1065
   30DOPE  H11B 3751   0.616   7.730  16.933  1.7174 -0.1849  1.4007
   30DOPE     P 3752   0.396   7.459  16.881  0.1277 -0.2272  0.1692
   30DOPE   O13 3753   0.248   7.460  16.893 -0.1150 -0.1430 -0.1467
   30DOPE   O14 3754   0.459   7.336  16.938  0.1723 -0.1856  0.0451
   30DOPE   O11 3755   0.444   7.479  16.731 -0.3777 -0.2029  0.0461
   30DOPE   O12 3756   0.460   7.588  16.948  0.4012  0.4771 -0.0321
   30DOPE    C1 3757   0.350   7.496  16.622  0.1514  0.4444 -0.9347
   30DOPE    HA 3758   0.418   7.539  16.545 -1.2307  3.2730 -0.7248
   30DOPE    HB 3759   0.282   7.579  16.653  1.7217  1.3939  0.1344
   30DOPE    C2 3760   0.276   7.366  16.573  0.5549 -0.4495  0.3935
   30DOPE    HS 3761   0.228   7.315  16.659 -0.0415  0.7990  0.8159
   30DOPE   O21 3762   0.375   7.273  16.518 -0.0210  0.2075  0.2024
   30DOPE   C21 3763   0.339   7.148  16.494  0.2352  0.8495 -0.2348
   30DOPE   O22 3764   0.236   7.097  16.535  0.2127 -0.4249  0.4267
   30DOPE   C22 3765   0.457   7.082  16.423  0.1183  0.0235  0.2260
   30DOPE   H2R 3766   0.551   7.096  16.480  2.1272  0.4895 -2.9225
   30DOPE   H2S 3767   0.464   7.139  16.328 -0.7837  1.3982  0.9593
   30DOPE    C3 3768   0.159   7.402  16.471 -0.5835  0.3201  0.3608
   30DOPE    HX 3769   0.084   7.463  16.526 -1.3150  0.4718 -0.7715
   30DOPE    HY 3770   0.104   7.309  16.449  1.5969 -0.8139 -0.5776
   30DOPE   O31 3771   0.220   7.466  16.354 -0.1864 -0.3290  1.0559
   30DOPE   C31 3772   0.230   7.394  16.243  0.3136 -0.2725  0.7986
   30DOPE   O32 3773   0.179   7.282  16.229 -0.7587 -0.3695 -0.2046
   30DOPE   C32 3774   0.314   7.472  16.144 -0.2416  0.5828 -0.1054
   30DOPE   H2X 3775   0.277   7.577  16.141 -1.6580  0.0607 -1.5497
   30DOPE   H2Y 3776   0.411   7.478  16.198  0.5068 -0.7165 -1.2616
   30DOPE   C23 3777   0.438   6.928  16.410 -0.5782 -1.2632 -0.4595
   30DOPE   H3R 3778   0.408   6.883  16.508  2.8545 -1.1613  0.7837
   30DOPE   H3S 3779   0.538   6.891  16.377  0.2097  0.3217  0.0304
   30DOPE   C24 3780   0.343   6.870  16.306  0.0571 -0.2252  0.4799
   30DOPE   H4R 3781   0.240   6.909  16.322  0.6652  1.4418  0.5275
   30DOPE   H4S 3782   0.344   6.759  16.317  0.8076 -0.1010  1.8530
   30DOPE   C25 3783   0.365   6.918  16.160 -0.1473 -0.2113 -0.0181
   30DOPE   H5R 3784   0.361   7.029  16.154 -2.2898 -0.2161  0.4607
   30DOPE   H5S 3785   0.276   6.881  16.104 -0.8359  0.0325  0.8818
   30DOPE   C26 3786   0.490   6.861  16.099 -0.7993  0.2843 -0.1814
   30DOPE   H6R 3787   0.484   6.750  16.109  2.6307  0.1780  2.1839
   30DOPE   H6S 3788   0.587   6.894  16.142  0.1209  2.0033 -3.2738
   30DOPE   C27 3789   0.487   6.902  15.952 -0.3871 -0.0387  0.7918
   30DOPE   H7R 3790   0.491   7.013  15.947 -2.1516  0.0014 -1.0466
   30DOPE   H7S 3791   0.385   6.882  15.914 -1.1624  1.9587  1.6819
   30DOPE   C28 3792   0.592   6.828  15.862  0.5067 -0.6588 -0.2781
   30DOPE   H8R 3793   0.587   6.720  15.884  0.6010 -0.9979 -1.8195
   30DOPE   H8S 3794   0.691   6.860  15.900  1.2571 -3.0556 -0.0833
   30DOPE   C29 3795   0.575   6.845  15.715  0.1465  0.0462 -0.1642
   30DOPE   H9R 3796   0.535   6.944  15.685 -0.7728 -0.0190  0.7896
   30DOPE  C210 3797   0.581   6.757  15.613  0.5070  0.3224  0.1855
   30DOPE  H10R 3798   0.553   6.804  15.518 -0.4843  0.5308  0.5757
   30DOPE  C211 3799   0.612   6.607  15.627  0.0156 -0.4489 -0.1841
   30DOPE  H11R 3800   0.537   6.550  15.686 -1.1455  1.0972 -0.1304
   30DOPE  H11S 3801   0.715   6.592  15.666  0.4918  0.9689 -0.8255
   30DOPE  C212 3802   0.612   6.540  15.478  0.7007  0.0769 -0.1359
   30DOPE  H12R 3803   0.506   6.557  15.451  0.6128 -0.5032 -0.1793
   30DOPE  H12S 3804   0.636   6.431  15.480  1.6972  0.2814  1.9106
   30DOPE  C213 3805   0.712   6.601  15.369  0.7313  0.9563 -0.3538
   30DOPE  H13R 3806   0.812   6.567  15.402 -0.0437 -2.6275 -1.2741
   30DOPE  H13S 3807   0.707   6.712  15.362 -0.4444  0.8836 -0.8904
   30DOPE  C214 3808   0.710   6.526  15.238 -0.2971 -0.0594  0.0235
   30DOPE  H14R 3809   0.617   6.553  15.184  0.8323  2.9255 -0.6624
   30DOPE  H14S 3810   0.718   6.416  15.239 -0.4254 -0.0643  0.8648
   30DOPE  C215 3811   0.841   6.554  15.157 -0.0875  0.3385 -0.2205
   30DOPE  H15R 3812   0.913   6.488  15.210 -1.6075 -1.2036  0.0038
   30DOPE  H15S 3813   0.867   6.660  15.175 -0.5614  0.1149  2.0255
   30DOPE  C216 3814   0.835   6.516  15.006  0.1389 -0.0681 -0.2167
   30DOPE  H16R 3815   0.738   6.555  14.968 -0.4719 -0.0916  1.2447
   30DOPE  H16S 3816   0.823   6.406  14.994  1.0681 -0.3657  1.1996
   30DOPE  C217 3817   0.961   6.560  14.932  0.5966  0.0535  0.6769
   30DOPE  H17R 3818   0.971   6.671  14.929 -0.2011  0.1078 -0.2912
   30DOPE  H17S 3819   0.952   6.532  14.825  0.2162  0.2765  0.6493
   30DOPE  C218 3820   1.086   6.494  14.984 -0.6474  0.3433 -0.2954
   30DOPE  H18R 3821   1.084   6.383  14.996 -2.7463  0.3109 -0.4655
   30DOPE  H18S 3822   1.101   6.522  15.091  0.7244 -0.3383 -0.2882
   30DOPE  H18T 3823   1.178   6.519  14.928 -0.8330  2.0749  0.1208
   30DOPE   C33 3824   0.326   7.416  16.007 -0.0216  0.2375 -0.1638
   30DOPE   H3X 3825   0.349   7.308  16.017  0.4341  0.5494  2.9528
   30DOPE   H3Y 3826   0.412   7.462  15.952  0.4312 -2.9018 -2.3473
   30DOPE   C34 3827   0.198   7.424  15.921  0.8567 -0.0266 -0.2305
   30DOPE   H4X 3828   0.109   7.380  15.971  0.4893  1.7018  0.7187
   30DOPE   H4Y 3829   0.190   7.534  15.909 -1.8878 -0.0746  0.4449
   30DOPE   C35 3830   0.214   7.358  15.784  0.1009 -0.6270  0.8686
   30DOPE   H5X 3831   0.309   7.394  15.739  0.8414 -0.6388  2.3346
   30DOPE   H5Y 3832   0.132   7.394  15.719  1.1876  1.8684  0.7653
   30DOPE   C36 3833   0.209   7.204  15.788 -0.1295  0.8629  0.3230
   30DOPE   H6X 3834   0.125   7.163  15.847  0.6577 -0.3018  0.6708
   30DOPE   H6Y 3835   0.299   7.167  15.841  1.2159  0.7294 -1.9238
   30DOPE   C37 3836   0.213   7.149  15.646  0.1172  0.6528  1.0277
   30DOPE   H7X 3837   0.133   7.179  15.575  0.5924  0.9023  0.5979
   30DOPE   H7Y 3838   0.309   7.187  15.606 -0.4819 -1.6262 -3.1145
   30DOPE   C38 3839   0.211   6.996  15.644  0.1111 -0.4420  0.6456
   30DOPE   H8X 3840   0.117   6.968  15.696 -0.4191  0.3157  0.1172
   30DOPE   H8Y 3841   0.299   6.951  15.694 -0.1686 -2.9705 -0.9185
   30DOPE   C39 3842   0.221   6.936  15.505 -0.0094 -0.8124  0.7015
   30DOPE   H9X 3843   0.310   6.960  15.445 -0.3551 -1.4753 -0.0838
   30DOPE  C310 3844   0.127   6.871  15.434 -0.6932 -0.0477 -0.2441
   30DOPE  H10X 3845   0.156   6.827  15.338 -0.2127  2.0983 -1.1450
   30DOPE  C311 3846  -0.010   6.836  15.484 -0.1629 -0.2373 -0.1411
   30DOPE  H11X 3847   0.001   6.771  15.574 -0.5216  0.7847  0.6491
   30DOPE  H11Y 3848  -0.074   6.921  15.515 -2.3415 -0.8940 -2.5109
   30DOPE  C312 3849  -0.097   6.745  15.385  0.0842 -0.4948 -0.5205
   30DOPE  H12X 3850  -0.178   6.697  15.445  0.2199 -2.1097 -1.5885
   30DOPE  H12Y 3851  -0.036   6.668  15.335  0.4581 -0.2059 -0.5139
   30DOPE  C313 3852  -0.174   6.841  15.286 -0.2486  0.5176 -0.3748
   30DOPE  H13X 3853  -0.244   6.896  15.354  0.0391  0.8659 -0.3594
   30DOPE  H13Y 3854  -0.094   6.909  15.250  1.8222 -0.2251  2.4358
   30DOPE  C314 3855  -0.258   6.773  15.170  0.6401 -0.0803  0.3957
   30DOPE  H14X 3856  -0.340   6.712  15.215  0.1004  0.2070 -0.1764
   30DOPE  H14Y 3857  -0.187   6.717  15.106  0.0739 -1.2777  0.7817
   30DOPE  C315 3858  -0.346   6.872  15.092  0.3065 -0.1593 -0.6019
   30DOPE  H15X 3859  -0.273   6.931  15.032  1.3339  0.9736  1.6617
   30DOPE  H15Y 3860  -0.394   6.948  15.156 -1.2001 -0.6644 -1.0814
   30DOPE  C316 3861  -0.437   6.805  14.988 -0.0041 -0.2694  0.0595
   30DOPE  H16X 3862  -0.539   6.775  15.022 -0.9215  0.8985 -1.5098
   30DOPE  H16Y 3863  -0.378   6.724  14.940 -1.4755 -1.0930 -0.4320
   30DOPE  C317 3864  -0.471   6.910  14.877 -0.6999 -0.3822 -0.7589
   30DOPE  H17X 3865  -0.525   6.994  14.924  0.4401  0.5790 -1.1041
   30DOPE  H17Y 3866  -0.381   6.959  14.834  0.2862 -1.8913 -0.5161
   30DOPE  C318 3867  -0.543   6.840  14.755  0.2113  0.2547 -0.2468
   30DOPE  H18X 3868  -0.635   6.787  14.789  0.9204 -0.3041  0.8479
   30DOPE  H18Y 3869  -0.546   6.908  14.667 -1.3677 -0.4225 -0.7444
   30DOPE  H18Z 3870  -0.474   6.760  14.722 -1.9286 -1.3184 -1.1214
   31DOPE     N 3871   2.893   3.221  12.640  0.8403 -0.2265  0.5120
   31DOPE   HN1 3872   2.822   3.278  12.690  1.3486  0.4029  0.5345
   31DOPE   HN2 3873   2.988   3.260  12.655  0.8324  0.7805 -1.6298
   31DOPE   HN3 3874   2.862   3.230  12.541 -0.1083 -2.1251  0.5971
   31DOPE   C12 3875   2.889   3.081  12.688  0.2329  0.0613 -0.7266
   31DOPE  H12A 3876   2.907   3.009  12.605  3.8493  2.0843 -1.9130
   31DOPE  H12B 3877   2.789   3.073  12.735  1.2345 -0.7176  1.3548
   31DOPE   C11 3878   2.979   3.049  12.804 -0.3798 -0.8498 -0.6336
   31DOPE  H11A 3879   3.085   3.068  12.776  0.8927 -1.0076  3.4906
   31DOPE  H11B 3880   2.985   2.938  12.814 -0.0454 -0.6562  1.9139
   31DOPE     P 3881   2.842   3.045  13.025  0.3392 -0.4790 -0.0887
   31DOPE   O13 3882   2.740   2.975  12.944  0.2638 -0.5287  0.0930
   31DOPE   O14 3883   2.802   3.155  13.121 -0.1733  0.5228 -0.1254
   31DOPE   O11 3884   2.941   2.939  13.085 -0.3589  0.0853  0.1275
   31DOPE   O12 3885   2.941   3.118  12.926 -0.0737  0.2616  0.4230
   31DOPE    C1 3886   2.871   2.824  13.148 -0.3653 -0.0393 -0.2214
   31DOPE    HA 3887   2.951   2.748  13.158  0.0925  0.7151  3.0341
   31DOPE    HB 3888   2.792   2.778  13.085 -0.4690  0.3572 -0.3882
   31DOPE    C2 3889   2.825   2.840  13.298 -0.2360  0.0404 -0.2597
   31DOPE    HS 3890   2.757   2.928  13.293  0.1045  0.3262  0.1152
   31DOPE   O21 3891   2.942   2.863  13.387  0.1003  0.4520 -0.4937
   31DOPE   C21 3892   2.930   2.946  13.486  0.4638  0.6618  0.3385
   31DOPE   O22 3893   2.833   3.011  13.508  0.1177 -0.7771 -0.0459
   31DOPE   C22 3894   3.048   2.934  13.575  0.5598  0.0526 -0.0890
   31DOPE   H2R 3895   3.131   2.965  13.507  0.4269 -0.4027 -0.4654
   31DOPE   H2S 3896   3.060   2.830  13.612 -0.8801 -0.0315  0.1662
   31DOPE    C3 3897   2.744   2.724  13.368 -0.2412  0.4285  0.0676
   31DOPE    HX 3898   2.796   2.627  13.361 -3.1740 -1.1866 -1.1288
   31DOPE    HY 3899   2.651   2.714  13.308  0.1909  1.0386 -0.7253
   31DOPE   O31 3900   2.720   2.747  13.509  0.1838  0.2687 -0.2099
   31DOPE   C31 3901   2.611   2.813  13.540  0.3281  0.2325 -0.0539
   31DOPE   O32 3902   2.529   2.854  13.461  0.2464 -0.0145 -0.1774
   31DOPE   C32 3903   2.615   2.840  13.687 -0.7277 -0.2198  0.1788
   31DOPE   H2X 3904   2.590   2.740  13.728  0.0408  0.4679  2.4605
   31DOPE   H2Y 3905   2.715   2.868  13.725 -0.9200 -0.5900  0.9799
   31DOPE   C23 3906   3.039   3.048  13.685 -0.0485  0.6693  0.4811
   31DOPE   H3R 3907   3.129   3.041  13.750  2.3441  0.0282 -2.6772
   31DOPE   H3S 3908   2.948   3.038  13.748 -1.1053  1.5252 -0.8534
   31DOPE   C24 3909   3.064   3.185  13.629 -0.0255  0.7728  0.2573
   31DOPE   H4R 3910   2.994   3.196  13.544 -0.4800 -1.9694  0.1962
   31DOPE   H4S 3911   3.167   3.187  13.587  0.1985 -1.6963  0.5801
   31DOPE   C25 3912   3.038   3.283  13.747  0.1668 -0.6443 -0.2398
   31DOPE   H5R 3913   3.121   3.287  13.820  0.1003  0.3675 -0.1995
   31DOPE   H5S 3914   2.947   3.254  13.803 -0.4490  2.3683  0.4970
   31DOPE   C26 3915   3.013   3.431  13.707 -0.9203  0.4749 -0.5280
   31DOPE   H6R 3916   2.908   3.431  13.672 -0.5274  0.6727 -1.7346
   31DOPE   H6S 3917   3.075   3.462  13.620  0.3787 -1.6290 -0.4332
   31DOPE   C27 3918   3.045   3.529  13.822  0.6326 -0.3707  0.0275
   31DOPE   H7R 3919   3.147   3.497  13.852  1.2768  1.3569 -0.1822
   31DOPE   H7S 3920   2.966   3.517  13.899 -0.2373  0.0013 -0.7850
   31DOPE   C28 3921   3.053   3.677  13.777 -0.4254 -0.3610 -0.4027
   31DOPE   H8R 3922   3.142   3.686  13.711  0.9959  1.0636  1.5907
   31DOPE   H8S 3923   3.084   3.732  13.868  0.5522  1.0353 -1.5416
   31DOPE   C29 3924   2.917   3.713  13.730 -0.9122 -0.1917  0.1104
   31DOPE   H9R 3925   2.896   3.675  13.629  0.4199  2.8873 -1.4570
   31DOPE  C210 3926   2.824   3.794  13.785  0.2869  0.8528  0.2242
   31DOPE  H10R 3927   2.725   3.801  13.737  1.0986  1.2149 -1.4642
   31DOPE  C211 3928   2.826   3.875  13.918  0.6119  0.3529 -0.0747
   31DOPE  H11R 3929   2.776   3.973  13.902  0.8216  0.4689 -0.0213
   31DOPE  H11S 3930   2.934   3.891  13.942  0.5964  0.7115 -0.2318
   31DOPE  C212 3931   2.774   3.798  14.041 -0.2078 -0.4505  0.2341
   31DOPE  H12R 3932   2.816   3.695  14.039  0.9665  0.0083  0.1197
   31DOPE  H12S 3933   2.663   3.792  14.042 -0.1496 -1.9840  0.3285
   31DOPE  C213 3934   2.811   3.874  14.172 -0.2907  0.2535 -0.0059
   31DOPE  H13R 3935   2.751   3.968  14.182 -1.0761 -0.3846  1.7615
   31DOPE  H13S 3936   2.916   3.909  14.162 -1.3607  3.6760 -0.4753
   31DOPE  C214 3937   2.800   3.790  14.307 -0.7602  0.1962  0.6544
   31DOPE  H14R 3938   2.707   3.819  14.360 -2.3432 -3.0649 -0.0780
   31DOPE  H14S 3939   2.879   3.814  14.382  0.8092 -1.7941 -0.2636
   31DOPE  C215 3940   2.805   3.641  14.297 -0.7133  0.6373  0.0798
   31DOPE  H15R 3941   2.894   3.608  14.240 -0.7727  0.0236  0.3359
   31DOPE  H15S 3942   2.715   3.608  14.241 -0.4683 -0.3350  0.2422
   31DOPE  C216 3943   2.778   3.563  14.422 -0.8205  0.5381 -0.6493
   31DOPE  H16R 3944   2.852   3.572  14.505 -1.1003 -1.0386 -0.1992
   31DOPE  H16S 3945   2.786   3.455  14.398 -2.1674  0.6278 -1.5966
   31DOPE  C217 3946   2.635   3.593  14.480 -0.2545 -0.2579  0.7815
   31DOPE  H17R 3947   2.559   3.600  14.400  0.7939  0.4254 -0.1780
   31DOPE  H17S 3948   2.631   3.697  14.518  0.7895  0.8749 -1.9663
   31DOPE  C218 3949   2.593   3.485  14.574 -0.2643  0.0902  0.0218
   31DOPE  H18R 3950   2.633   3.486  14.678  4.2482 -1.5812 -1.4462
   31DOPE  H18S 3951   2.610   3.385  14.529 -4.1228  0.2838 -2.2960
   31DOPE  H18T 3952   2.483   3.496  14.582 -0.2845  0.2733 -0.4626
   31DOPE   C33 3953   2.510   2.934  13.752 -0.5499 -0.0479  1.0389
   31DOPE   H3X 3954   2.405   2.903  13.733 -0.6638  1.0352 -0.3197
   31DOPE   H3Y 3955   2.519   3.037  13.710 -2.0422 -0.1313  0.4600
   31DOPE   C34 3956   2.538   2.952  13.905  0.1444 -0.1714  0.3107
   31DOPE   H4X 3957   2.636   2.997  13.930  0.4676  0.6928 -2.2572
   31DOPE   H4Y 3958   2.469   3.034  13.935 -0.5993 -0.4260 -0.6472
   31DOPE   C35 3959   2.506   2.826  13.993  0.4549 -0.3374 -0.6058
   31DOPE   H5X 3960   2.535   2.738  13.931  0.2061 -1.9562  1.4687
   31DOPE   H5Y 3961   2.397   2.831  14.012  0.9274  0.2297  2.2933
   31DOPE   C36 3962   2.586   2.817  14.118 -0.0519 -0.9437  0.1144
   31DOPE   H6X 3963   2.566   2.908  14.179 -0.1885 -1.5548  0.9972
   31DOPE   H6Y 3964   2.695   2.821  14.096  0.0506  1.7367  0.7306
   31DOPE   C37 3965   2.561   2.701  14.213 -0.1437 -0.1408  0.6046
   31DOPE   H7X 3966   2.452   2.698  14.235 -0.0671 -1.4519  0.8573
   31DOPE   H7Y 3967   2.585   2.608  14.157 -1.9752  1.3793 -3.0842
   31DOPE   C38 3968   2.639   2.706  14.337  0.0094 -0.1404  0.6704
   31DOPE   H8X 3969   2.642   2.810  14.376 -0.8413  1.2096 -2.4978
   31DOPE   H8Y 3970   2.746   2.679  14.324 -0.2146 -0.2388 -1.3021
   31DOPE   C39 3971   2.573   2.608  14.434  0.2437 -0.2204 -0.2613
   31DOPE   H9X 3972   2.590   2.499  14.436 -3.7676 -1.0062  1.2019
   31DOPE  C310 3973   2.480   2.652  14.516  0.5408 -0.1450 -0.4052
   31DOPE  H10X 3974   2.441   2.593  14.601  1.7526  2.7024  2.3435
   31DOPE  C311 3975   2.417   2.790  14.540 -0.4248  0.0113  1.0193
   31DOPE  H11X 3976   2.481   2.874  14.506 -4.0104  2.4887 -0.2895
   31DOPE  H11Y 3977   2.324   2.790  14.478 -1.0875 -2.0335  1.9392
   31DOPE  C312 3978   2.380   2.812  14.685  0.8576  0.1713  0.0005
   31DOPE  H12X 3979   2.473   2.796  14.744  1.2151  1.0317 -0.3158
   31DOPE  H12Y 3980   2.304   2.735  14.711 -0.2101  1.5721  1.1825
   31DOPE  C313 3981   2.304   2.955  14.702 -0.0808  0.7458 -0.3240
   31DOPE  H13X 3982   2.390   3.021  14.679  1.5283 -0.9041  0.6958
   31DOPE  H13Y 3983   2.234   2.963  14.616 -1.0899  0.9927  0.4978
   31DOPE  C314 3984   2.234   2.986  14.836  0.1148 -0.4435  0.5714
   31DOPE  H14X 3985   2.318   2.979  14.909  0.8605 -0.0703 -0.2358
   31DOPE  H14Y 3986   2.167   2.900  14.858  0.0848 -0.6816 -0.4121
   31DOPE  C315 3987   2.175   3.123  14.850  0.2858  0.3879 -0.1793
   31DOPE  H15X 3988   2.117   3.116  14.945 -0.2532  2.6687 -0.2683
   31DOPE  H15Y 3989   2.095   3.129  14.773 -1.2071 -0.8844  1.1958
   31DOPE  C316 3990   2.282   3.235  14.861 -1.1283 -0.1199  0.4502
   31DOPE  H16X 3991   2.337   3.241  14.764 -2.1027  2.2235 -0.0115
   31DOPE  H16Y 3992   2.341   3.207  14.951  2.6852 -0.9381 -2.0743
   31DOPE  C317 3993   2.220   3.368  14.879 -0.0998  0.9786  0.2278
   31DOPE  H17X 3994   2.153   3.374  14.790  0.2808 -2.0932 -0.3560
   31DOPE  H17Y 3995   2.164   3.377  14.975 -1.2919 -0.4174 -0.2918
   31DOPE  C318 3996   2.317   3.485  14.877 -0.1035 -0.3521  0.5140
   31DOPE  H18X 3997   2.364   3.492  14.776  1.3441  0.3562  1.2168
   31DOPE  H18Y 3998   2.285   3.587  14.904  1.6243  0.9374 -1.9163
   31DOPE  H18Z 3999   2.405   3.456  14.938  2.0026 -0.2765 -2.2582
   32DOPE     N 4000   5.941   3.840  12.507  0.2170 -0.2073  0.1099
   32DOPE   HN1 4001   6.038   3.818  12.536  0.1355 -0.9458 -0.1750
   32DOPE   HN2 4002   5.888   3.751  12.503  1.5513 -1.0183 -0.0442
   32DOPE   HN3 4003   5.948   3.874  12.409  1.2188 -0.5521  0.0532
   32DOPE   C12 4004   5.874   3.941  12.593 -0.2721  0.0465 -0.7483
   32DOPE  H12A 4005   5.771   3.904  12.614 -0.2373  1.8055  3.3441
   32DOPE  H12B 4006   5.850   4.032  12.534 -4.6490 -1.1428 -1.1375
   32DOPE   C11 4007   5.956   3.956  12.723 -0.0130  0.1511 -0.7527
   32DOPE  H11A 4008   5.883   4.011  12.786  0.0400 -0.0219 -0.5389
   32DOPE  H11B 4009   6.036   4.032  12.713 -0.0427  0.3535  0.4002
   32DOPE     P 4010   6.042   3.837  12.937 -0.2088 -0.1729  0.3572
   32DOPE   O13 4011   6.026   3.972  12.998  0.3219 -0.1956  0.4264
   32DOPE   O14 4012   6.177   3.779  12.965  0.0115  0.0693  0.5730
   32DOPE   O11 4013   5.930   3.745  13.005 -0.3820 -0.6291  0.3852
   32DOPE   O12 4014   6.013   3.833  12.781  0.2741 -0.3318 -0.1058
   32DOPE    C1 4015   5.833   3.684  12.930  0.2564 -0.4742 -0.4582
   32DOPE    HA 4016   5.881   3.594  12.886  1.9485  1.5017 -2.9162
   32DOPE    HB 4017   5.791   3.745  12.848 -1.3719  0.3868  0.9541
   32DOPE    C2 4018   5.706   3.648  13.012 -0.3053  0.2598  0.2689
   32DOPE    HS 4019   5.654   3.746  13.020  0.0300  0.3955  0.8554
   32DOPE   O21 4020   5.740   3.601  13.142 -0.6016  0.0273 -0.1049
   32DOPE   C21 4021   5.735   3.690  13.245 -0.4789 -0.3619 -0.1589
   32DOPE   O22 4022   5.703   3.806  13.237 -0.0790  0.4294 -0.0886
   32DOPE   C22 4023   5.770   3.610  13.369 -0.2497  0.3682 -0.6448
   32DOPE   H2R 4024   5.872   3.636  13.406 -1.2735  1.7749  1.3699
   32DOPE   H2S 4025   5.776   3.501  13.346  0.4191  0.1470  0.5228
   32DOPE    C3 4026   5.624   3.533  12.936 -0.8894 -0.3193  0.9742
   32DOPE    HX 4027   5.695   3.448  12.950  0.7476  0.6959 -0.7537
   32DOPE    HY 4028   5.617   3.554  12.827 -3.0175 -2.4788  0.6017
   32DOPE   O31 4029   5.491   3.508  12.986 -0.1221  0.0922 -0.0170
   32DOPE   C31 4030   5.474   3.428  13.091  0.2189 -0.0275  0.2922
   32DOPE   O32 4031   5.565   3.373  13.150  0.0913  0.1170  0.0564
   32DOPE   C32 4032   5.323   3.447  13.135 -0.5240 -0.4289  0.0319
   32DOPE   H2X 4033   5.299   3.555  13.148 -1.7792 -0.5871 -0.7621
   32DOPE   H2Y 4034   5.262   3.408  13.051 -0.1958 -1.9126  0.4603
   32DOPE   C23 4035   5.673   3.631  13.487  0.4188  0.4904 -0.8990
   32DOPE   H3R 4036   5.580   3.580  13.453  0.9636 -0.1874 -1.4124
   32DOPE   H3S 4037   5.643   3.738  13.496 -1.3411 -0.0637  0.4323
   32DOPE   C24 4038   5.707   3.561  13.620 -0.4219  0.3169 -1.1552
   32DOPE   H4R 4039   5.789   3.625  13.659 -0.1021 -1.0063  0.4230
   32DOPE   H4S 4040   5.754   3.461  13.609  0.7562  0.3812  2.1275
   32DOPE   C25 4041   5.594   3.547  13.720  0.1953 -0.0958  0.2506
   32DOPE   H5R 4042   5.537   3.462  13.677  2.4738  0.4308 -4.3466
   32DOPE   H5S 4043   5.525   3.634  13.719 -1.8684 -1.6342 -0.2934
   32DOPE   C26 4044   5.646   3.515  13.864  0.1385 -0.0982 -0.0022
   32DOPE   H6R 4045   5.733   3.578  13.892 -0.4416  0.5998  0.2610
   32DOPE   H6S 4046   5.683   3.411  13.855  0.6200  0.2384 -2.8772
   32DOPE   C27 4047   5.532   3.516  13.965 -0.2943 -0.1338  0.4854
   32DOPE   H7R 4048   5.450   3.443  13.952 -1.2118  0.6343  1.7456
   32DOPE   H7S 4049   5.482   3.615  13.963 -0.0981 -0.0295 -1.4056
   32DOPE   C28 4050   5.579   3.495  14.116  0.1112  0.0527  0.0510
   32DOPE   H8R 4051   5.629   3.396  14.120  2.0079  1.0035  1.5971
   32DOPE   H8S 4052   5.478   3.498  14.162 -1.1829  1.5088 -2.6436
   32DOPE   C29 4053   5.668   3.597  14.165  0.1461  0.3020 -0.3430
   32DOPE   H9R 4054   5.716   3.664  14.093 -0.4937 -0.1276 -1.1812
   32DOPE  C210 4055   5.698   3.608  14.296  0.0119 -0.4322 -0.0778
   32DOPE  H10R 4056   5.783   3.675  14.318  0.1411  0.1528 -2.1601
   32DOPE  C211 4057   5.649   3.515  14.406  0.0700 -0.4211 -0.0671
   32DOPE  H11R 4058   5.738   3.489  14.467 -0.1317  0.6086  0.6933
   32DOPE  H11S 4059   5.602   3.424  14.363  1.1387 -0.4558 -1.2302
   32DOPE  C212 4060   5.563   3.578  14.513 -0.4644  0.3737 -0.3216
   32DOPE  H12R 4061   5.606   3.681  14.521 -1.2653  0.5851  2.4105
   32DOPE  H12S 4062   5.584   3.539  14.615  0.3217  1.3233 -0.0996
   32DOPE  C213 4063   5.410   3.584  14.474 -0.8899  0.0147 -0.0086
   32DOPE  H13R 4064   5.404   3.620  14.369  2.2007 -1.1624 -0.7049
   32DOPE  H13S 4065   5.361   3.651  14.547 -0.3119 -0.4527  0.8333
   32DOPE  C214 4066   5.337   3.448  14.481 -0.0473  0.2571  0.5412
   32DOPE  H14R 4067   5.392   3.369  14.425 -1.4659  0.1284 -0.7655
   32DOPE  H14S 4068   5.240   3.471  14.432  0.6889  3.4354  0.3433
   32DOPE  C215 4069   5.319   3.397  14.623  0.5669  0.1772 -0.0110
   32DOPE  H15R 4070   5.253   3.472  14.672  0.3504  1.1120 -1.6397
   32DOPE  H15S 4071   5.419   3.399  14.673  0.3454 -1.3381  0.5212
   32DOPE  C216 4072   5.258   3.262  14.634 -0.0621  0.1718 -0.0219
   32DOPE  H16R 4073   5.253   3.230  14.741 -2.7704 -0.8037 -0.3587
   32DOPE  H16S 4074   5.323   3.193  14.576 -1.1992 -0.6538 -0.3500
   32DOPE  C217 4075   5.109   3.243  14.587  0.9383 -0.7406  0.5887
   32DOPE  H17R 4076   5.106   3.262  14.478  0.2973 -0.4329  0.6581
   32DOPE  H17S 4077   5.051   3.317  14.646 -0.1706  0.3519 -1.7443
   32DOPE  C218 4078   5.070   3.104  14.624  0.5031  0.2377 -0.2691
   32DOPE  H18R 4079   4.962   3.090  14.605 -0.1768  0.2587  3.0633
   32DOPE  H18S 4080   5.075   3.089  14.734 -0.1972  1.5156 -0.0466
   32DOPE  H18T 4081   5.119   3.021  14.569  0.2915 -0.1992  0.2013
   32DOPE   C33 4082   5.289   3.375  13.272  0.1665 -0.6903 -0.2724
   32DOPE   H3X 4083   5.352   3.283  13.280 -0.4027 -0.9639  1.6008
   32DOPE   H3Y 4084   5.188   3.339  13.245  0.4494 -1.2752 -0.5701
   32DOPE   C34 4085   5.289   3.472  13.392 -0.5377 -0.0001 -0.3690
   32DOPE   H4X 4086   5.393   3.487  13.429 -0.4133  3.4496 -1.7177
   32DOPE   H4Y 4087   5.262   3.577  13.369  2.0755  0.9879  0.6301
   32DOPE   C35 4088   5.195   3.435  13.512 -0.5389 -0.5276  0.4621
   32DOPE   H5X 4089   5.254   3.345  13.539  0.3735 -0.4779 -1.2357
   32DOPE   H5Y 4090   5.095   3.399  13.480 -1.5749  0.2541  2.6021
   32DOPE   C36 4091   5.191   3.550  13.610 -1.1569 -0.0903  0.0645
   32DOPE   H6X 4092   5.152   3.641  13.559 -0.3482  0.8590  1.0977
   32DOPE   H6Y 4093   5.283   3.572  13.668 -1.9885  0.0402  1.3802
   32DOPE   C37 4094   5.095   3.521  13.717  0.5225  0.1803 -0.0595
   32DOPE   H7X 4095   4.997   3.507  13.668  0.4087 -1.4957  0.5848
   32DOPE   H7Y 4096   5.115   3.420  13.760 -3.2160 -1.4129 -1.6721
   32DOPE   C38 4097   5.078   3.624  13.832 -0.6329  0.4096  0.0859
   32DOPE   H8X 4098   4.981   3.617  13.884 -0.7383 -0.3665 -0.2009
   32DOPE   H8Y 4099   5.075   3.720  13.776 -0.0647  0.7505  0.6200
   32DOPE   C39 4100   5.197   3.625  13.929 -0.0277 -0.0010 -0.0897
   32DOPE   H9X 4101   5.295   3.636  13.879  0.6690 -1.5763  0.8387
   32DOPE  C310 4102   5.192   3.597  14.061  0.2782 -0.5122 -0.3431
   32DOPE  H10X 4103   5.285   3.574  14.114  0.9892  0.0981 -1.2846
   32DOPE  C311 4104   5.069   3.568  14.141  0.1833  0.3623  0.0824
   32DOPE  H11X 4105   4.975   3.603  14.092  0.4929  3.3808  1.4368
   32DOPE  H11Y 4106   5.068   3.459  14.162  2.6647  0.3998  0.6646
   32DOPE  C312 4107   5.081   3.651  14.262 -0.2058 -0.3867 -0.0507
   32DOPE  H12X 4108   5.110   3.755  14.234 -1.6638 -0.0429 -0.3273
   32DOPE  H12Y 4109   5.158   3.607  14.330 -0.0136 -2.6478 -1.6225
   32DOPE  C313 4110   4.958   3.652  14.350  0.4668  0.7969  0.2673
   32DOPE  H13X 4111   4.869   3.645  14.284  2.0789 -0.0950 -1.9201
   32DOPE  H13Y 4112   4.949   3.568  14.422 -0.1768 -0.0358 -0.7586
   32DOPE  C314 4113   4.939   3.785  14.426  0.5094  0.2345  0.8958
   32DOPE  H14X 4114   4.946   3.870  14.355 -0.8530 -1.5904 -1.5933
   32DOPE  H14Y 4115   5.015   3.796  14.506 -0.6288 -0.3788  2.0880
   32DOPE  C315 4116   4.802   3.792  14.497  0.3528 -0.1679  0.9007
   32DOPE  H15X 4117   4.795   3.702  14.563 -0.9372  2.0857  4.0531
   32DOPE  H15Y 4118   4.717   3.791  14.426  0.7522  3.3607  0.2315
   32DOPE  C316 4119   4.768   3.922  14.580  0.4941  0.1832 -0.6666
   32DOPE  H16X 4120   4.762   4.014  14.519  0.8235  0.5617 -0.1397
   32DOPE  H16Y 4121   4.853   3.942  14.648 -0.4566  1.4675  0.1946
   32DOPE  C317 4122   4.646   3.916  14.681 -0.1023  0.7348  0.9259
   32DOPE  H17X 4123   4.559   3.874  14.626  2.0412 -1.7768 -0.7806
   32DOPE  H17Y 4124   4.678   3.842  14.757  0.0062  0.4717  0.6213
   32DOPE  C318 4125   4.604   4.048  14.748  0.1398  0.2331 -0.3861
   32DOPE  H18X 4126   4.557   4.128  14.687  1.3798  1.4435  0.1908
   32DOPE  H18Y 4127   4.526   4.020  14.822  1.8310  0.6222  1.6314
   32DOPE  H18Z 4128   4.686   4.083  14.814 -1.5153  1.3623  1.1697
   33DOPE     N 4129   3.020   1.555  13.105  0.0554 -0.1021 -0.1729
   33DOPE   HN1 4130   3.055   1.573  13.201  1.2199  0.0748 -0.6159
   33DOPE   HN2 4131   2.917   1.538  13.115 -0.0634  1.3356  1.6673
   33DOPE   HN3 4132   3.066   1.466  13.077 -0.2327  0.2095 -1.7098
   33DOPE   C12 4133   3.055   1.666  13.009  0.0940  1.0063 -0.2023
   33DOPE  H12A 4134   3.024   1.630  12.908  0.1994 -1.0822  0.4615
   33DOPE  H12B 4135   3.162   1.695  13.010  0.1711  0.7348 -0.4665
   33DOPE   C11 4136   2.983   1.789  13.046 -0.2636 -0.4581  0.0771
   33DOPE  H11A 4137   3.014   1.878  12.988 -0.6071  0.4934  1.3156
   33DOPE  H11B 4138   3.015   1.818  13.148 -0.1417  1.2166 -0.4174
   33DOPE     P 4139   2.749   1.854  13.129  0.2676 -0.2794 -0.4543
   33DOPE   O13 4140   2.603   1.833  13.105 -0.2634  0.1554  0.6906
   33DOPE   O14 4141   2.797   1.990  13.107  0.4336  0.1298 -0.3428
   33DOPE   O11 4142   2.777   1.805  13.281  1.0081  0.2027  0.3458
   33DOPE   O12 4143   2.840   1.763  13.042 -0.2645  0.5590  0.1761
   33DOPE    C1 4144   2.860   1.881  13.366 -0.7059  0.0176  0.2054
   33DOPE    HA 4145   2.919   1.956  13.309 -1.5357  0.0350 -0.6580
   33DOPE    HB 4146   2.931   1.809  13.411  0.1857 -0.3786 -1.7345
   33DOPE    C2 4147   2.777   1.944  13.478 -0.1097 -0.4607  0.7092
   33DOPE    HS 4148   2.716   2.028  13.440 -1.0606 -1.2465  0.4536
   33DOPE   O21 4149   2.861   1.981  13.590 -0.3289  0.3605 -0.5042
   33DOPE   C21 4150   2.932   2.087  13.576 -0.9741 -0.1017  0.1374
   33DOPE   O22 4151   2.937   2.154  13.475 -0.1450  0.2195 -0.0371
   33DOPE   C22 4152   3.013   2.112  13.699  0.5304  0.4525 -0.4630
   33DOPE   H2R 4153   2.943   2.079  13.779 -0.5002  0.1581 -1.4641
   33DOPE   H2S 4154   3.031   2.221  13.712  1.4132  0.5242 -2.0175
   33DOPE    C3 4155   2.669   1.848  13.532  0.4865  0.5263 -0.0600
   33DOPE    HX 4156   2.721   1.752  13.552 -1.5962 -0.7856 -0.6498
   33DOPE    HY 4157   2.591   1.824  13.457 -0.7626  3.6610  0.0811
   33DOPE   O31 4158   2.608   1.887  13.651  0.2919  0.6085  0.1583
   33DOPE   C31 4159   2.517   1.992  13.641 -0.3315 -0.1708  0.3224
   33DOPE   O32 4160   2.463   2.026  13.541  1.1034 -0.6749 -0.4592
   33DOPE   C32 4161   2.493   2.052  13.782 -0.2062 -0.6394 -0.5145
   33DOPE   H2X 4162   2.436   1.969  13.830  1.7179 -1.3844  0.5973
   33DOPE   H2Y 4163   2.590   2.057  13.834 -0.5194 -1.5379  0.1806
   33DOPE   C23 4164   3.144   2.032  13.698  0.3031  0.0823 -0.4162
   33DOPE   H3R 4165   3.221   2.080  13.635 -0.3336  0.3842 -0.9740
   33DOPE   H3S 4166   3.120   1.930  13.662  0.0473 -1.1023  2.7436
   33DOPE   C24 4167   3.204   1.994  13.834  0.3695  0.0716 -0.3371
   33DOPE   H4R 4168   3.278   1.912  13.830 -2.4921 -2.7393  0.2925
   33DOPE   H4S 4169   3.117   1.954  13.891 -0.1128  0.5964 -0.6912
   33DOPE   C25 4170   3.256   2.108  13.928 -0.1524 -0.1591  0.5037
   33DOPE   H5R 4171   3.164   2.165  13.953  1.0266  0.9106  2.7127
   33DOPE   H5S 4172   3.338   2.164  13.878 -0.1553 -0.3235  0.3150
   33DOPE   C26 4173   3.316   2.052  14.059  0.7114 -0.1632 -0.3198
   33DOPE   H6R 4174   3.406   1.989  14.041  3.0818  2.1911  2.3182
   33DOPE   H6S 4175   3.244   1.980  14.103  1.7563 -0.4498  0.9850
   33DOPE   C27 4176   3.359   2.160  14.153  0.8010  0.4323  0.0979
   33DOPE   H7R 4177   3.280   2.239  14.163  2.6315  2.3755 -0.0751
   33DOPE   H7S 4178   3.452   2.207  14.116  1.0314 -0.3130 -0.2823
   33DOPE   C28 4179   3.396   2.106  14.290 -0.0421 -0.1974 -0.2993
   33DOPE   H8R 4180   3.477   2.033  14.266 -0.5092 -0.8171 -0.0245
   33DOPE   H8S 4181   3.313   2.041  14.324  0.3558 -0.8184 -0.4836
   33DOPE   C29 4182   3.444   2.198  14.401  0.2085 -0.4486 -0.4925
   33DOPE   H9R 4183   3.510   2.283  14.374 -0.6323  0.1533 -0.6983
   33DOPE  C210 4184   3.410   2.181  14.529 -0.3291  0.0898  0.0301
   33DOPE  H10R 4185   3.459   2.249  14.602 -1.7445  0.0521  1.0591
   33DOPE  C211 4186   3.332   2.068  14.573  0.2006 -1.0224 -0.0060
   33DOPE  H11R 4187   3.247   2.053  14.503  0.0817 -0.9185  0.1167
   33DOPE  H11S 4188   3.280   2.093  14.668  1.5834  0.3684  0.4101
   33DOPE  C212 4189   3.395   1.935  14.590 -0.4907  0.8139 -0.6987
   33DOPE  H12R 4190   3.494   1.946  14.638 -0.4743  0.3200 -0.6153
   33DOPE  H12S 4191   3.410   1.905  14.484  0.9170 -0.8819 -0.0732
   33DOPE  C213 4192   3.323   1.824  14.666  0.0761 -0.8592  0.0494
   33DOPE  H13R 4193   3.226   1.801  14.617 -0.7554  0.3214  1.0920
   33DOPE  H13S 4194   3.297   1.865  14.766  0.2172  0.8979 -0.6046
   33DOPE  C214 4195   3.413   1.697  14.688  0.1487  0.5693 -0.1948
   33DOPE  H14R 4196   3.492   1.736  14.755 -1.4999  2.4454  0.7789
   33DOPE  H14S 4197   3.462   1.672  14.592  0.1094  0.6298 -0.2311
   33DOPE  C215 4198   3.330   1.575  14.751  0.4187 -0.2742 -0.1390
   33DOPE  H15R 4199   3.267   1.635  14.821  0.9977 -0.0341  0.1875
   33DOPE  H15S 4200   3.392   1.507  14.812  0.2774  0.0657  0.3915
   33DOPE  C216 4201   3.232   1.505  14.651 -0.0184 -0.0711  0.4766
   33DOPE  H16R 4202   3.288   1.443  14.578  0.0707 -0.1943  0.6466
   33DOPE  H16S 4203   3.175   1.578  14.591  0.0745 -0.6668 -0.3486
   33DOPE  C217 4204   3.134   1.403  14.724 -0.1965 -0.4078  0.5346
   33DOPE  H17R 4205   3.088   1.452  14.813 -1.7393 -1.8394  0.5681
   33DOPE  H17S 4206   3.201   1.329  14.773  2.2974  2.7607  2.3053
   33DOPE  C218 4207   3.033   1.341  14.635 -0.1203 -0.5535  0.0220
   33DOPE  H18R 4208   3.085   1.290  14.551  0.1119  0.3139 -0.3788
   33DOPE  H18S 4209   2.974   1.425  14.591 -2.6585 -0.9476  2.4026
   33DOPE  H18T 4210   2.959   1.274  14.684 -0.5578 -1.4140 -1.7305
   33DOPE   C33 4211   2.421   2.190  13.792 -0.4222 -0.3398  0.7941
   33DOPE   H3X 4212   2.317   2.178  13.752  0.7062 -0.9128 -2.2870
   33DOPE   H3Y 4213   2.480   2.261  13.730  1.1888 -0.4233  2.1760
   33DOPE   C34 4214   2.442   2.241  13.937 -0.0050 -0.1903 -0.1521
   33DOPE   H4X 4215   2.549   2.235  13.968  0.6031  2.0353 -1.5613
   33DOPE   H4Y 4216   2.416   2.349  13.932  0.8976  0.1450  1.5434
   33DOPE   C35 4217   2.357   2.170  14.046  0.7264 -0.0758  0.1949
   33DOPE   H5X 4218   2.368   2.059  14.038  2.6714  0.1951 -2.1353
   33DOPE   H5Y 4219   2.256   2.186  14.004  1.4946  1.9203 -1.0352
   33DOPE   C36 4220   2.368   2.220  14.193 -0.8650 -0.4839  1.3143
   33DOPE   H6X 4221   2.471   2.192  14.225  0.0076  0.2130 -0.7141
   33DOPE   H6Y 4222   2.310   2.142  14.247 -2.3839  0.0859  0.5590
   33DOPE   C37 4223   2.323   2.362  14.221  0.4508 -0.1780  0.6727
   33DOPE   H7X 4224   2.349   2.391  14.325 -1.9262  0.4443  1.1342
   33DOPE   H7Y 4225   2.374   2.432  14.151 -2.8160 -0.3134 -2.1363
   33DOPE   C38 4226   2.175   2.378  14.210 -0.1489  0.5749 -0.0635
   33DOPE   H8X 4227   2.130   2.314  14.289 -0.6454  2.0233  0.8676
   33DOPE   H8Y 4228   2.144   2.339  14.111  1.6689 -2.5339  0.4708
   33DOPE   C39 4229   2.126   2.521  14.232 -0.0926 -0.1008 -0.4397
   33DOPE   H9X 4230   2.100   2.579  14.142  1.5890 -0.1209 -0.9805
   33DOPE  C310 4231   2.109   2.580  14.358  0.4863 -0.1522  0.4831
   33DOPE  H10X 4232   2.107   2.690  14.364  1.5019 -0.0039 -1.4230
   33DOPE  C311 4233   2.136   2.518  14.490 -0.2268  0.3264 -0.5571
   33DOPE  H11X 4234   2.162   2.411  14.474  0.5390  0.2608  0.9279
   33DOPE  H11Y 4235   2.225   2.559  14.542 -1.4291 -0.1016  1.9730
   33DOPE  C312 4236   2.021   2.524  14.591  0.7688  0.5491 -0.4497
   33DOPE  H12X 4237   2.050   2.454  14.672  0.9290 -0.7536 -1.5893
   33DOPE  H12Y 4238   1.923   2.493  14.550 -0.1573  1.6581  0.8348
   33DOPE  C313 4239   1.989   2.651  14.660  0.7031  0.6476  0.3264
   33DOPE  H13X 4240   2.079   2.691  14.712 -0.7034  2.2059  1.7116
   33DOPE  H13Y 4241   1.963   2.731  14.587  1.3396 -0.2691 -0.9302
   33DOPE  C314 4242   1.878   2.638  14.765  0.5264  0.1431  0.3888
   33DOPE  H14X 4243   1.913   2.542  14.810  1.2534 -0.0901 -0.6428
   33DOPE  H14Y 4244   1.777   2.618  14.722  0.1300  0.3069  1.2114
   33DOPE  C315 4245   1.871   2.761  14.866 -0.1416 -0.0973  0.5767
   33DOPE  H15X 4246   1.845   2.845  14.797  0.3732 -0.8018 -0.5146
   33DOPE  H15Y 4247   1.978   2.773  14.894 -0.1132 -0.7541  0.7783
   33DOPE  C316 4248   1.783   2.729  14.982 -0.3942  0.6189  0.2497
   33DOPE  H16X 4249   1.832   2.650  15.043  2.2214  3.4052  2.0318
   33DOPE  H16Y 4250   1.682   2.697  14.947  0.6854 -3.1794  0.0788
   33DOPE  C317 4251   1.765   2.847  15.079 -0.0612 -0.7918  0.3085
   33DOPE  H17X 4252   1.865   2.872  15.121  0.1021 -0.3526 -0.3282
   33DOPE  H17Y 4253   1.746   2.930  15.008 -0.8570  0.9548  2.4636
   33DOPE  C318 4254   1.661   2.837  15.187 -1.2523 -0.0230  0.3487
   33DOPE  H18X 4255   1.648   2.929  15.249 -0.2406  2.1480 -2.4660
   33DOPE  H18Y 4256   1.565   2.832  15.132  0.0262  1.3442 -2.1913
   33DOPE  H18Z 4257   1.675   2.747  15.251  1.4963 -0.4264 -0.7210
   34DOPE     N 4258   2.750   4.315  13.256  0.4233 -0.2700  0.4741
   34DOPE   HN1 4259   2.849   4.312  13.227  1.1835  1.5534  2.5509
   34DOPE   HN2 4260   2.730   4.235  13.319  2.6316 -0.8174  0.5499
   34DOPE   HN3 4261   2.692   4.305  13.170 -1.2723  1.4494  1.3297
   34DOPE   C12 4262   2.728   4.444  13.325  0.0683 -0.6206 -0.2245
   34DOPE  H12A 4263   2.793   4.437  13.415 -0.2774 -1.7538 -0.0452
   34DOPE  H12B 4264   2.624   4.448  13.363  0.4914  0.9687  0.9024
   34DOPE   C11 4265   2.765   4.556  13.217  0.3806  0.1019 -0.4074
   34DOPE  H11A 4266   2.755   4.648  13.279  4.4336  2.2332 -2.5022
   34DOPE  H11B 4267   2.693   4.556  13.133  1.0148 -2.3126 -1.0290
   34DOPE     P 4268   2.980   4.664  13.110  0.2309  0.2248  0.3411
   34DOPE   O13 4269   2.916   4.788  13.159 -0.4471  0.0170  0.2269
   34DOPE   O14 4270   2.989   4.655  12.962  0.2113  0.8028  0.1450
   34DOPE   O11 4271   3.117   4.645  13.177 -0.2924  0.5803  0.0426
   34DOPE   O12 4272   2.901   4.539  13.160 -0.2564  0.0375  0.4055
   34DOPE    C1 4273   3.180   4.521  13.207  0.3909 -0.2423  0.1097
   34DOPE    HA 4274   3.290   4.530  13.198  0.1730  1.7869 -1.1092
   34DOPE    HB 4275   3.141   4.441  13.140 -0.4847  0.5056 -0.3016
   34DOPE    C2 4276   3.148   4.483  13.352  0.6987 -0.4963  0.3526
   34DOPE    HS 4277   3.038   4.485  13.361  0.7127  1.0585  0.4787
   34DOPE   O21 4278   3.209   4.581  13.437 -0.1633  0.0112 -0.3144
   34DOPE   C21 4279   3.138   4.616  13.539  0.3120  0.0525  0.4851
   34DOPE   O22 4280   3.017   4.591  13.553 -0.7715  0.6517 -0.2364
   34DOPE   C22 4281   3.233   4.681  13.645 -0.1703  0.0638  0.0628
   34DOPE   H2R 4282   3.296   4.762  13.602 -0.9512  0.6190 -0.0589
   34DOPE   H2S 4283   3.291   4.597  13.688  1.8255  1.7698  0.8971
   34DOPE    C3 4284   3.207   4.352  13.387 -0.5725 -1.2205 -0.0095
   34DOPE    HX 4285   3.317   4.356  13.381 -0.6908  0.8642 -3.3365
   34DOPE    HY 4286   3.188   4.280  13.304  0.0185 -0.5532 -0.7435
   34DOPE   O31 4287   3.156   4.314  13.524  0.1487 -0.2869  0.7002
   34DOPE   C31 4288   3.031   4.276  13.521 -0.1492  0.2378  0.3294
   34DOPE   O32 4289   2.965   4.258  13.424 -0.2397 -0.2624 -0.1392
   34DOPE   C32 4290   2.978   4.255  13.664  0.2265 -0.0808 -0.1064
   34DOPE   H2X 4291   2.969   4.146  13.683  2.8884 -0.4392 -0.5416
   34DOPE   H2Y 4292   3.055   4.277  13.741 -2.6321  0.0056  2.9272
   34DOPE   C23 4293   3.148   4.743  13.755 -0.5706 -0.4403 -0.4209
   34DOPE   H3R 4294   3.057   4.687  13.783 -0.6071 -0.2712 -0.1998
   34DOPE   H3S 4295   3.104   4.838  13.719  1.7728  0.1665 -1.9741
   34DOPE   C24 4296   3.219   4.766  13.891 -0.1401 -0.0997 -0.3093
   34DOPE   H4R 4297   3.244   4.874  13.898 -2.5304  0.4165  1.9910
   34DOPE   H4S 4298   3.317   4.716  13.907 -1.0503 -1.5134  1.0689
   34DOPE   C25 4299   3.139   4.712  14.007  0.6374  0.2824 -0.8546
   34DOPE   H5R 4300   3.101   4.611  13.984 -1.0837  1.0029 -1.3304
   34DOPE   H5S 4301   3.048   4.773  14.027 -1.0423 -1.8405 -1.6773
   34DOPE   C26 4302   3.210   4.692  14.138 -0.2807  0.2658  0.2766
   34DOPE   H6R 4303   3.256   4.787  14.172  0.9742 -0.3111  0.2313
   34DOPE   H6S 4304   3.300   4.629  14.120 -0.0934  0.7042 -0.3289
   34DOPE   C27 4305   3.109   4.636  14.240 -0.4122 -0.1645 -0.1275
   34DOPE   H7R 4306   3.097   4.531  14.206 -0.6524 -0.2206  0.1312
   34DOPE   H7S 4307   3.015   4.693  14.253  0.1241  0.6724  0.1628
   34DOPE   C28 4308   3.164   4.633  14.386  0.2754  0.0145 -0.4205
   34DOPE   H8R 4309   3.255   4.569  14.387  0.7053  0.6173  0.7200
   34DOPE   H8S 4310   3.085   4.571  14.433 -0.3114  1.7270  0.9561
   34DOPE   C29 4311   3.183   4.774  14.450  0.2572  0.4361  0.6173
   34DOPE   H9R 4312   3.290   4.799  14.440  0.3606  0.0926  0.8551
   34DOPE  C210 4313   3.087   4.848  14.499  0.5382 -0.3351  0.7998
   34DOPE  H10R 4314   3.125   4.943  14.538  0.9683  0.5207 -1.5866
   34DOPE  C211 4315   2.937   4.818  14.502 -0.0454  0.4920 -0.1005
   34DOPE  H11R 4316   2.923   4.721  14.450 -0.9296 -0.1974  1.3547
   34DOPE  H11S 4317   2.872   4.895  14.455  1.0276  0.8644 -1.0174
   34DOPE  C212 4318   2.885   4.804  14.639  0.0756 -0.4429 -0.9803
   34DOPE  H12R 4319   2.946   4.730  14.695 -1.0600 -1.2309 -0.7505
   34DOPE  H12S 4320   2.779   4.769  14.638 -0.1796  0.2797 -0.0052
   34DOPE  C213 4321   2.886   4.936  14.722  0.3810 -0.8647 -0.0943
   34DOPE  H13R 4322   2.830   5.007  14.658 -0.3601 -0.8114  0.5956
   34DOPE  H13S 4323   2.988   4.974  14.746 -0.0904 -0.9445  2.3242
   34DOPE  C214 4324   2.798   4.937  14.844 -0.1002 -0.7519 -1.0663
   34DOPE  H14R 4325   2.698   4.894  14.824 -0.5339  0.6661 -2.0782
   34DOPE  H14S 4326   2.779   5.044  14.867  2.1942 -0.5769  0.3255
   34DOPE  C215 4327   2.858   4.866  14.967 -0.0649  0.5614  0.0388
   34DOPE  H15R 4328   2.946   4.932  14.978  1.7141 -1.4703 -1.1398
   34DOPE  H15S 4329   2.882   4.759  14.951 -0.5222  0.1101  2.0774
   34DOPE  C216 4330   2.759   4.880  15.081  0.0594  0.2890 -0.2859
   34DOPE  H16R 4331   2.674   4.820  15.043  1.2880 -0.3877 -2.0919
   34DOPE  H16S 4332   2.738   4.988  15.088  0.5334  0.6996 -3.5113
   34DOPE  C217 4333   2.805   4.845  15.218 -0.5507 -0.1869  0.1315
   34DOPE  H17R 4334   2.845   4.742  15.207  0.4458  0.3317 -1.5229
   34DOPE  H17S 4335   2.725   4.849  15.295 -1.8151 -1.7744 -1.0301
   34DOPE  C218 4336   2.929   4.923  15.275 -0.0018  0.0853  0.3364
   34DOPE  H18R 4337   2.978   4.874  15.362  0.4186  0.9416  0.5913
   34DOPE  H18S 4338   2.913   5.028  15.305  1.9896  0.4281  0.3144
   34DOPE  H18T 4339   3.006   4.936  15.196  0.8928  2.1410  1.4793
   34DOPE   C33 4340   2.838   4.310  13.685 -0.1604  0.0926 -0.2800
   34DOPE   H3X 4341   2.766   4.262  13.615 -1.8206 -0.7597  1.8972
   34DOPE   H3Y 4342   2.840   4.417  13.656 -1.1013  0.0070 -0.6690
   34DOPE   C34 4343   2.786   4.300  13.833  0.5500 -0.7715  0.3738
   34DOPE   H4X 4344   2.681   4.335  13.837  0.6984 -0.1790 -0.5744
   34DOPE   H4Y 4345   2.775   4.197  13.872 -1.9698 -1.0216 -0.8224
   34DOPE   C35 4346   2.860   4.380  13.942 -0.7149  0.4337 -0.1226
   34DOPE   H5X 4347   2.917   4.461  13.891 -3.0996  0.3850 -3.1708
   34DOPE   H5Y 4348   2.939   4.312  13.979  0.8781  1.6437 -1.1789
   34DOPE   C36 4349   2.771   4.437  14.054  0.5206 -0.5173 -0.1706
   34DOPE   H6X 4350   2.687   4.497  14.012  0.6868 -0.5738 -0.5946
   34DOPE   H6Y 4351   2.833   4.508  14.112 -0.1696  1.2107 -1.4535
   34DOPE   C37 4352   2.720   4.329  14.152 -0.5251 -0.5974  0.0721
   34DOPE   H7X 4353   2.636   4.265  14.119 -0.5432  0.2701 -1.6681
   34DOPE   H7Y 4354   2.803   4.255  14.159 -0.9806 -1.1772 -0.5561
   34DOPE   C38 4355   2.684   4.385  14.291  0.0199 -0.4022  0.0730
   34DOPE   H8X 4356   2.644   4.299  14.350  1.0378 -0.9846 -0.0716
   34DOPE   H8Y 4357   2.594   4.450  14.280  1.1307  1.3278  0.7905
   34DOPE   C39 4358   2.789   4.456  14.368  0.2965 -0.3739 -0.0187
   34DOPE   H9X 4359   2.842   4.539  14.317 -1.7288  0.5935 -0.6732
   34DOPE  C310 4360   2.804   4.443  14.499 -0.3056 -0.0606  0.1609
   34DOPE  H10X 4361   2.884   4.492  14.556 -0.1921  0.5444 -0.5044
   34DOPE  C311 4362   2.719   4.357  14.586  0.2865 -0.4492  0.1408
   34DOPE  H11X 4363   2.724   4.391  14.692  0.0010 -1.5481  0.5225
   34DOPE  H11Y 4364   2.613   4.375  14.557  0.7544 -0.2390 -1.5410
   34DOPE  C312 4365   2.735   4.200  14.586  0.6585  0.9548  0.5062
   34DOPE  H12X 4366   2.752   4.170  14.480  1.3557 -1.6819  1.2948
   34DOPE  H12Y 4367   2.643   4.151  14.623  1.4228 -0.1918  0.9322
   34DOPE  C313 4368   2.856   4.154  14.668 -0.7799  0.3370  1.0675
   34DOPE  H13X 4369   2.943   4.210  14.627 -0.8181  0.4969  1.2019
   34DOPE  H13Y 4370   2.841   4.179  14.775 -0.8637 -0.1056  1.1600
   34DOPE  C314 4371   2.902   4.006  14.658 -0.4560  0.2307  0.1183
   34DOPE  H14X 4372   3.001   3.993  14.707  0.1768 -1.8860 -1.5889
   34DOPE  H14Y 4373   2.921   3.987  14.550  3.4655  0.4395  0.6186
   34DOPE  C315 4374   2.803   3.902  14.707  0.5269 -0.9321 -0.3689
   34DOPE  H15X 4375   2.712   3.910  14.644  0.8454 -1.7477 -0.9434
   34DOPE  H15Y 4376   2.769   3.922  14.811  1.1541 -1.4417 -0.0518
   34DOPE  C316 4377   2.864   3.762  14.706  0.0607  0.6235  0.0607
   34DOPE  H16X 4378   2.909   3.763  14.604 -1.0562  0.5459 -0.4505
   34DOPE  H16Y 4379   2.782   3.688  14.699  0.5793  0.0960 -0.6564
   34DOPE  C317 4380   2.966   3.721  14.814  1.2289 -0.1198  0.1301
   34DOPE  H17X 4381   3.065   3.772  14.807  1.8984 -1.1973  1.4343
   34DOPE  H17Y 4382   2.923   3.742  14.914 -0.4666  0.1698 -0.6220
   34DOPE  C318 4383   3.002   3.573  14.798 -0.4848 -0.0643  0.1164
   34DOPE  H18X 4384   3.079   3.558  14.876 -0.3423  3.5192  0.8672
   34DOPE  H18Y 4385   2.917   3.504  14.816 -0.1052 -0.2926  1.0782
   34DOPE  H18Z 4386   3.034   3.556  14.693  0.0313  3.1068 -0.3665
   35DOPE     N 4387   7.307   2.642  12.740  0.7899 -0.2254  0.1153
   35DOPE   HN1 4388   7.234   2.618  12.670  1.3467  1.1548 -0.9784
   35DOPE   HN2 4389   7.293   2.743  12.757 -0.5975 -0.4546  0.5262
   35DOPE   HN3 4390   7.396   2.618  12.693  0.7219 -0.7478  0.2382
   35DOPE   C12 4391   7.285   2.568  12.868  0.4070  0.3120  0.0777
   35DOPE  H12A 4392   7.378   2.574  12.929  1.7092 -1.0002 -1.6837
   35DOPE  H12B 4393   7.282   2.457  12.854  0.8843  0.3620 -0.4427
   35DOPE   C11 4394   7.152   2.617  12.935  0.3304 -0.6506  0.4272
   35DOPE  H11A 4395   7.171   2.591  13.041  0.2649  1.3969  0.9919
   35DOPE  H11B 4396   7.056   2.577  12.895 -1.5483  3.9008 -0.3284
   35DOPE     P 4397   7.017   2.833  13.012 -0.3087  0.4508  0.0604
   35DOPE   O13 4398   6.891   2.827  12.927 -0.4100 -0.6639  0.1602
   35DOPE   O14 4399   7.069   2.965  13.055  0.6504  0.0491  0.2865
   35DOPE   O11 4400   6.989   2.743  13.138  0.3056 -0.1068 -0.2725
   35DOPE   O12 4401   7.136   2.757  12.931  0.5719  0.4693 -0.3545
   35DOPE    C1 4402   6.986   2.805  13.269  0.8361  0.7590  0.4926
   35DOPE    HA 4403   7.073   2.873  13.284 -0.0104  2.4083 -1.5305
   35DOPE    HB 4404   6.990   2.721  13.341  0.6926  1.2805  1.1212
   35DOPE    C2 4405   6.854   2.870  13.305  0.7161 -0.7998 -1.0614
   35DOPE    HS 4406   6.843   2.973  13.265  0.9807 -1.2613 -2.3417
   35DOPE   O21 4407   6.850   2.876  13.452  0.3876  0.3765 -0.4428
   35DOPE   C21 4408   6.910   2.979  13.502 -0.3180  0.3083  0.3911
   35DOPE   O22 4409   6.942   3.083  13.450 -0.7473  0.0965 -0.4241
   35DOPE   C22 4410   6.915   2.957  13.656 -0.4248  0.7405 -0.1546
   35DOPE   H2R 4411   6.999   2.886  13.671  0.3796  1.9615  1.3518
   35DOPE   H2S 4412   6.819   2.907  13.684  0.0266  0.6293  1.2379
   35DOPE    C3 4413   6.731   2.789  13.252  0.6400  0.2772  0.0466
   35DOPE    HX 4414   6.732   2.684  13.289 -2.2810 -1.2376 -3.5336
   35DOPE    HY 4415   6.739   2.787  13.141  2.6254 -0.0652  0.1582
   35DOPE   O31 4416   6.610   2.845  13.306  0.0571 -0.2451 -0.4423
   35DOPE   C31 4417   6.566   2.936  13.224  0.1636 -0.1699 -0.0193
   35DOPE   O32 4418   6.616   2.970  13.117  0.0530 -0.2127 -0.1682
   35DOPE   C32 4419   6.433   2.995  13.288  0.0732 -0.0376  0.0305
   35DOPE   H2X 4420   6.347   2.946  13.238  0.7645 -0.2639 -0.9787
   35DOPE   H2Y 4421   6.435   2.972  13.396 -0.6133 -0.9729 -0.1451
   35DOPE   C23 4422   6.946   3.084  13.732  0.6930 -0.0594 -0.1274
   35DOPE   H3R 4423   6.865   3.159  13.719  2.0546  1.3632 -0.7435
   35DOPE   H3S 4424   7.039   3.132  13.695  0.6330 -1.4157 -2.1832
   35DOPE   C24 4425   6.974   3.050  13.880  1.2623 -0.4244 -0.1625
   35DOPE   H4R 4426   7.067   2.989  13.889  2.0713  0.5077 -1.6825
   35DOPE   H4S 4427   6.892   2.993  13.928  2.4066 -1.1426  1.0022
   35DOPE   C25 4428   7.012   3.164  13.973  0.3018  0.3901 -0.5604
   35DOPE   H5R 4429   6.922   3.229  13.980 -0.8644 -1.2689  0.5035
   35DOPE   H5S 4430   7.089   3.230  13.928  1.6886 -0.8683 -0.0951
   35DOPE   C26 4431   7.070   3.117  14.109 -0.4833 -0.2709  0.2942
   35DOPE   H6R 4432   7.174   3.081  14.091  0.3888  2.1274  0.2042
   35DOPE   H6S 4433   7.004   3.051  14.169 -0.2910  1.5768  2.6680
   35DOPE   C27 4434   7.081   3.232  14.205  0.2977  0.1762  0.3875
   35DOPE   H7R 4435   6.976   3.244  14.239  0.3337 -0.1324  0.6063
   35DOPE   H7S 4436   7.112   3.325  14.153  0.4735 -0.5374 -0.8239
   35DOPE   C28 4437   7.176   3.213  14.318 -0.6313 -0.8089  0.0005
   35DOPE   H8R 4438   7.181   3.313  14.367  1.4254 -1.5927  1.5705
   35DOPE   H8S 4439   7.275   3.197  14.271 -0.8562 -0.2300 -0.6964
   35DOPE   C29 4440   7.149   3.097  14.409  0.1119 -0.2127 -0.2865
   35DOPE   H9R 4441   7.110   3.002  14.368  1.7406 -1.1804  0.3369
   35DOPE  C210 4442   7.171   3.101  14.541  0.1824 -0.4166 -0.2724
   35DOPE  H10R 4443   7.148   3.014  14.604  0.9872 -1.3718 -1.2400
   35DOPE  C211 4444   7.214   3.224  14.618 -1.0003 -0.2887 -0.9613
   35DOPE  H11R 4445   7.174   3.227  14.721 -0.5385  2.1967 -0.7815
   35DOPE  H11S 4446   7.186   3.322  14.574 -0.8211  0.6420  0.8986
   35DOPE  C212 4447   7.372   3.217  14.631  0.2588 -0.1076  0.4757
   35DOPE  H12R 4448   7.416   3.230  14.529 -3.0161 -2.4208 -1.3926
   35DOPE  H12S 4449   7.416   3.125  14.674 -0.7344  0.0816  1.9580
   35DOPE  C213 4450   7.431   3.342  14.700  0.0115  1.0721 -0.1359
   35DOPE  H13R 4451   7.365   3.416  14.649  0.8041 -0.0809 -2.9875
   35DOPE  H13S 4452   7.531   3.363  14.659 -0.8073  1.0129 -2.2797
   35DOPE  C214 4453   7.415   3.340  14.848 -0.0201  0.1123 -0.3961
   35DOPE  H14R 4454   7.315   3.297  14.872  0.3461 -0.3660  0.3271
   35DOPE  H14S 4455   7.403   3.442  14.889 -0.4303 -0.2684  0.4553
   35DOPE  C215 4456   7.531   3.264  14.928 -0.0503  0.2594 -0.3212
   35DOPE  H15R 4457   7.627   3.315  14.904  0.3792  0.5765  1.9219
   35DOPE  H15S 4458   7.538   3.155  14.906  0.7526 -0.0764  1.4460
   35DOPE  C216 4459   7.524   3.294  15.077 -0.5168 -0.3749 -0.5497
   35DOPE  H16R 4460   7.423   3.257  15.103  0.6610 -1.6194  2.7454
   35DOPE  H16S 4461   7.531   3.400  15.109  1.0441 -0.9841  1.3968
   35DOPE  C217 4462   7.619   3.211  15.168  0.1761  0.0366  0.2321
   35DOPE  H17R 4463   7.610   3.256  15.269 -0.0126  0.9024 -0.1615
   35DOPE  H17S 4464   7.720   3.235  15.127  0.1972 -1.5885 -0.7223
   35DOPE  C218 4465   7.591   3.063  15.163 -0.4679 -0.1548  0.2679
   35DOPE  H18R 4466   7.641   3.003  15.241 -1.7356  2.5462  3.3688
   35DOPE  H18S 4467   7.619   3.015  15.067 -1.5229 -2.5781  1.0982
   35DOPE  H18T 4468   7.488   3.038  15.197 -0.7629  1.2802  0.4944
   35DOPE   C33 4469   6.432   3.147  13.262 -0.8018  0.1628 -0.5664
   35DOPE   H3X 4470   6.325   3.178  13.262 -1.2655 -1.3584 -0.4269
   35DOPE   H3Y 4471   6.460   3.167  13.157 -1.5776  2.0734 -0.4426
   35DOPE   C34 4472   6.508   3.234  13.359 -0.3445  0.3446  0.5414
   35DOPE   H4X 4473   6.618   3.217  13.352 -0.0324 -0.6279  4.9012
   35DOPE   H4Y 4474   6.494   3.342  13.338 -3.0805 -0.5438 -3.0515
   35DOPE   C35 4475   6.473   3.218  13.511 -0.1002  0.0500 -0.1119
   35DOPE   H5X 4476   6.524   3.298  13.568  1.5162 -1.6358  0.9112
   35DOPE   H5Y 4477   6.511   3.126  13.560 -1.1591  0.1519  0.9608
   35DOPE   C36 4478   6.325   3.243  13.528  0.2508  0.1265 -0.0137
   35DOPE   H6X 4479   6.270   3.155  13.488 -0.2012  0.6364 -0.5340
   35DOPE   H6Y 4480   6.284   3.333  13.477 -1.1255 -0.8879 -0.7793
   35DOPE   C37 4481   6.300   3.266  13.677 -0.2585  0.0603  0.3710
   35DOPE   H7X 4482   6.328   3.172  13.729 -0.1889 -0.1297 -0.0049
   35DOPE   H7Y 4483   6.376   3.340  13.711 -0.0629  1.7405 -3.2501
   35DOPE   C38 4484   6.150   3.301  13.706 -0.3575  0.4071 -1.0172
   35DOPE   H8X 4485   6.089   3.217  13.667 -0.5458  0.7939 -1.5573
   35DOPE   H8Y 4486   6.113   3.389  13.650  2.9512  1.6295 -1.5440
   35DOPE   C39 4487   6.128   3.323  13.855 -0.0018  0.3677  0.8156
   35DOPE   H9X 4488   6.178   3.412  13.895 -1.2258 -0.0126  3.3637
   35DOPE  C310 4489   6.033   3.271  13.935  0.4656  0.0190 -0.3082
   35DOPE  H10X 4490   6.032   3.298  14.042 -2.1351 -0.0916 -0.2556
   35DOPE  C311 4491   5.919   3.175  13.902  0.6731 -0.3962  0.6101
   35DOPE  H11X 4492   5.819   3.221  13.914  0.1459 -1.6596  1.2847
   35DOPE  H11Y 4493   5.914   3.138  13.798 -4.3501 -1.3873  0.9881
   35DOPE  C312 4494   5.920   3.070  14.009 -0.1432  0.7785 -0.2703
   35DOPE  H12X 4495   5.934   3.119  14.107 -0.4126  1.6561 -0.6580
   35DOPE  H12Y 4496   6.006   3.000  14.001  1.8271  3.0361  0.2262
   35DOPE  C313 4497   5.787   2.988  14.016 -0.1968  0.6432 -0.0793
   35DOPE  H13X 4498   5.763   2.949  14.117  0.7401  1.5082  0.4842
   35DOPE  H13Y 4499   5.705   3.060  13.994 -2.1455 -1.3160  0.3290
   35DOPE  C314 4500   5.781   2.874  13.904 -0.0598 -0.5007 -0.8475
   35DOPE  H14X 4501   5.864   2.800  13.916 -0.0764 -0.3433  0.3882
   35DOPE  H14Y 4502   5.796   2.930  13.809  0.7057 -0.3211 -0.6283
   35DOPE  C315 4503   5.648   2.810  13.900  0.8744 -0.2028  1.2096
   35DOPE  H15X 4504   5.647   2.728  13.825  0.4023  1.1984 -0.3698
   35DOPE  H15Y 4505   5.570   2.881  13.866  0.1359 -1.1115  0.9937
   35DOPE  C316 4506   5.600   2.743  14.034 -0.0177  0.1540 -0.2356
   35DOPE  H16X 4507   5.589   2.832  14.099  0.6122 -0.3584  0.5969
   35DOPE  H16Y 4508   5.670   2.666  14.072 -0.0257 -1.2215 -2.8099
   35DOPE  C317 4509   5.460   2.690  14.022  0.2583  0.8034  0.5828
   35DOPE  H17X 4510   5.400   2.771  13.975  0.8452  0.8242 -0.1500
   35DOPE  H17Y 4511   5.461   2.616  13.939 -0.0016  2.8037 -1.2990
   35DOPE  C318 4512   5.391   2.640  14.153  0.1805 -0.0047  0.4120
   35DOPE  H18X 4513   5.419   2.715  14.230  0.0455 -0.0741  0.5306
   35DOPE  H18Y 4514   5.280   2.645  14.147  0.0902 -0.1696  1.6255
   35DOPE  H18Z 4515   5.435   2.542  14.179  2.4570  0.9753  0.4540
   36DOPE     N 4516   5.626   4.605  12.770  0.3453  0.0302 -0.0902
   36DOPE   HN1 4517   5.728   4.613  12.788  0.4911 -1.4585 -0.1344
   36DOPE   HN2 4518   5.586   4.552  12.849 -0.3772  2.6388  1.4249
   36DOPE   HN3 4519   5.612   4.535  12.694  0.1572 -2.9735  2.5502
   36DOPE   C12 4520   5.552   4.735  12.763  0.2979 -0.3324  0.5799
   36DOPE  H12A 4521   5.444   4.719  12.745  0.3216 -1.5063  1.4477
   36DOPE  H12B 4522   5.597   4.805  12.688 -0.9202 -1.8438 -1.6675
   36DOPE   C11 4523   5.573   4.794  12.900 -0.0953  0.8916  0.5997
   36DOPE  H11A 4524   5.522   4.718  12.962  2.1249 -3.4148 -2.3187
   36DOPE  H11B 4525   5.519   4.891  12.904  0.3119  1.2757 -1.6389
   36DOPE     P 4526   5.813   4.906  12.931 -0.0468  0.0107 -0.1229
   36DOPE   O13 4527   5.748   5.013  12.853 -0.2885  0.1586 -0.6197
   36DOPE   O14 4528   5.936   4.835  12.874  0.3889 -1.1049  0.4560
   36DOPE   O11 4529   5.838   4.958  13.077  0.5695  0.6226 -0.1834
   36DOPE   O12 4530   5.712   4.792  12.945 -0.1456  0.3954  0.3926
   36DOPE    C1 4531   5.746   4.913  13.182 -0.6140 -0.1046  1.0150
   36DOPE    HA 4532   5.749   4.805  13.210  4.9533 -0.1709  1.4208
   36DOPE    HB 4533   5.641   4.929  13.152 -0.0442 -0.6287 -1.4887
   36DOPE    C2 4534   5.774   5.001  13.305  0.1872  1.2779  0.3470
   36DOPE    HS 4535   5.783   5.106  13.270 -2.9191  1.9740  1.3089
   36DOPE   O21 4536   5.897   4.950  13.359 -0.0569  0.2786 -0.0723
   36DOPE   C21 4537   5.997   5.032  13.374  0.3263 -0.4567 -0.5338
   36DOPE   O22 4538   5.990   5.150  13.340 -0.9015 -0.0210 -0.6580
   36DOPE   C22 4539   6.118   4.960  13.452  0.4619 -0.3022  0.6275
   36DOPE   H2R 4540   6.165   4.892  13.379  0.8003 -2.2008  2.5216
   36DOPE   H2S 4541   6.076   4.901  13.536  0.7770 -0.0821  0.9401
   36DOPE    C3 4542   5.648   4.986  13.390 -0.0735  0.1771 -0.5581
   36DOPE    HX 4543   5.614   4.882  13.413 -2.2500  0.8894 -0.3068
   36DOPE    HY 4544   5.569   5.018  13.318 -0.8535  3.2332  1.4716
   36DOPE   O31 4545   5.644   5.075  13.507  0.0992 -0.2631 -0.5140
   36DOPE   C31 4546   5.688   5.010  13.609 -0.3531  0.1245 -0.5503
   36DOPE   O32 4547   5.727   4.896  13.615  0.1703 -0.7029 -0.0508
   36DOPE   C32 4548   5.709   5.121  13.716  0.5286  0.8675  0.7346
   36DOPE   H2X 4549   5.626   5.103  13.788 -1.8777  0.4153 -1.9477
   36DOPE   H2Y 4550   5.802   5.091  13.769  1.2314  1.0413 -0.3787
   36DOPE   C23 4551   6.223   5.059  13.522  0.0703  0.0807  0.0907
   36DOPE   H3R 4552   6.259   5.130  13.443 -1.6636  1.2798  0.3312
   36DOPE   H3S 4553   6.316   5.010  13.560 -0.3204 -0.5464  0.2416
   36DOPE   C24 4554   6.162   5.139  13.642  0.1528  0.5381 -0.0494
   36DOPE   H4R 4555   6.080   5.208  13.611  1.1777  1.4913 -0.7137
   36DOPE   H4S 4556   6.250   5.191  13.685 -0.4377 -0.7806  2.9641
   36DOPE   C25 4557   6.100   5.046  13.748  0.0468  0.6882 -0.3300
   36DOPE   H5R 4558   6.173   4.972  13.788 -0.6566  0.8362  1.3135
   36DOPE   H5S 4559   6.009   4.998  13.707 -1.7480  0.4068  3.5905
   36DOPE   C26 4560   6.065   5.129  13.868  0.4730 -0.2346 -0.9074
   36DOPE   H6R 4561   5.979   5.081  13.919  1.2053  1.0171  1.6290
   36DOPE   H6S 4562   6.037   5.232  13.837  2.0642 -0.0502 -1.8499
   36DOPE   C27 4563   6.165   5.141  13.982 -0.2380  1.0606 -0.4475
   36DOPE   H7R 4564   6.263   5.157  13.932  0.3941 -1.1020  0.0047
   36DOPE   H7S 4565   6.184   5.039  14.022  3.2772  1.4478 -0.8202
   36DOPE   C28 4566   6.138   5.252  14.076 -0.0552 -0.4793  0.6595
   36DOPE   H8R 4567   6.112   5.347  14.024  2.3309  0.1171  0.4493
   36DOPE   H8S 4568   6.231   5.266  14.135  1.4984 -1.0295 -1.5420
   36DOPE   C29 4569   6.029   5.212  14.171  0.4648  0.6384  0.3531
   36DOPE   H9R 4570   5.953   5.148  14.124  0.2767  0.6065  0.6955
   36DOPE  C210 4571   6.029   5.232  14.309  0.7136  0.7349  1.0524
   36DOPE  H10R 4572   5.946   5.216  14.379  0.9038 -0.5075  1.0256
   36DOPE  C211 4573   6.139   5.305  14.382 -0.2664  0.5378  0.2187
   36DOPE  H11R 4574   6.086   5.376  14.449 -1.3527 -0.8276  0.8523
   36DOPE  H11S 4575   6.201   5.369  14.315 -1.4521  1.1413 -0.3242
   36DOPE  C212 4576   6.220   5.200  14.470  0.5451 -0.1991  0.1172
   36DOPE  H12R 4577   6.284   5.260  14.538 -1.5719  2.8896 -0.4301
   36DOPE  H12S 4578   6.294   5.132  14.424 -0.0449 -0.6404 -0.1961
   36DOPE  C213 4579   6.125   5.116  14.564  0.4079 -0.0636  0.6629
   36DOPE  H13R 4580   6.054   5.060  14.499  1.7182 -0.4451 -0.4922
   36DOPE  H13S 4581   6.061   5.182  14.627 -1.4013 -0.0752 -1.0597
   36DOPE  C214 4582   6.195   5.020  14.660  0.0090 -0.1482 -0.1856
   36DOPE  H14R 4583   6.256   5.091  14.719 -1.9960  0.2057  1.5722
   36DOPE  H14S 4584   6.260   4.950  14.602  1.2722 -1.5376  2.6947
   36DOPE  C215 4585   6.094   4.955  14.761  0.2620  0.4877  0.8564
   36DOPE  H15R 4586   6.022   4.898  14.698  1.6726 -0.5849  0.1623
   36DOPE  H15S 4587   6.031   5.037  14.801 -0.5406  0.6192 -0.5853
   36DOPE  C216 4588   6.162   4.871  14.875  0.0267 -0.0607 -0.0650
   36DOPE  H16R 4589   6.087   4.862  14.957 -1.4589 -0.4662 -1.4380
   36DOPE  H16S 4590   6.253   4.924  14.913 -0.1746  1.7827 -1.9766
   36DOPE  C217 4591   6.198   4.731  14.828  0.0551 -0.5201 -0.5861
   36DOPE  H17R 4592   6.225   4.738  14.720 -0.6000 -2.1861 -0.8736
   36DOPE  H17S 4593   6.109   4.668  14.811 -0.4077 -0.2954  0.8266
   36DOPE  C218 4594   6.314   4.669  14.906 -0.2553  0.0541  1.2821
   36DOPE  H18R 4595   6.358   4.576  14.865  1.1516  0.5532  1.5889
   36DOPE  H18S 4596   6.302   4.647  15.014 -1.8387 -1.6518  0.8013
   36DOPE  H18T 4597   6.407   4.728  14.890  0.6829 -1.8046 -0.5937
   36DOPE   C33 4598   5.732   5.269  13.672  0.1638 -0.1811  0.1020
   36DOPE   H3X 4599   5.647   5.293  13.605 -1.1016 -0.7625  1.4409
   36DOPE   H3Y 4600   5.823   5.266  13.609 -0.7232 -1.4996 -1.1940
   36DOPE   C34 4601   5.736   5.375  13.787 -0.4370  0.7014  0.1389
   36DOPE   H4X 4602   5.839   5.385  13.826  0.5279  1.2135 -2.3118
   36DOPE   H4Y 4603   5.719   5.477  13.746  1.9086  0.4116 -1.7757
   36DOPE   C35 4604   5.635   5.337  13.907 -0.6004 -0.9564 -0.2383
   36DOPE   H5X 4605   5.635   5.235  13.950 -0.9545 -0.2869  1.4406
   36DOPE   H5Y 4606   5.534   5.356  13.866 -1.5911  0.2152  2.5166
   36DOPE   C36 4607   5.659   5.444  14.016 -0.0419 -0.2096 -0.0232
   36DOPE   H6X 4608   5.670   5.545  13.971  0.0738 -0.2678 -0.1297
   36DOPE   H6Y 4609   5.760   5.428  14.060 -0.0255  0.3785  0.1571
   36DOPE   C37 4610   5.558   5.452  14.133 -0.5256 -0.6510 -0.1339
   36DOPE   H7X 4611   5.466   5.497  14.091 -1.2729 -1.4663  0.5745
   36DOPE   H7Y 4612   5.527   5.353  14.175  1.6060 -1.4416 -0.2964
   36DOPE   C38 4613   5.598   5.537  14.254 -0.1657  0.3482 -0.5639
   36DOPE   H8X 4614   5.504   5.558  14.308 -0.2413 -1.0687 -0.1023
   36DOPE   H8Y 4615   5.638   5.631  14.211  2.6613  0.8820  2.7540
   36DOPE   C39 4616   5.696   5.461  14.349  0.7222 -0.2443  0.1398
   36DOPE   H9X 4617   5.801   5.482  14.327  0.4302 -0.1063 -1.2425
   36DOPE  C310 4618   5.669   5.364  14.435  0.6421  0.1638 -0.1577
   36DOPE  H10X 4619   5.749   5.306  14.484  0.5169  0.6676  0.6631
   36DOPE  C311 4620   5.534   5.315  14.460  0.6724  0.3533 -0.1880
   36DOPE  H11X 4621   5.454   5.371  14.408 -0.5227  1.2360  2.3969
   36DOPE  H11Y 4622   5.527   5.206  14.438  0.0997  0.3988 -0.2285
   36DOPE  C312 4623   5.517   5.315  14.609 -0.0384  0.0935  0.5328
   36DOPE  H12X 4624   5.501   5.423  14.632 -1.5636 -0.0596  0.2521
   36DOPE  H12Y 4625   5.608   5.286  14.666  0.9089  1.1723 -0.3609
   36DOPE  C313 4626   5.401   5.227  14.643  0.9162 -0.2604 -0.1760
   36DOPE  H13X 4627   5.330   5.259  14.564  1.5561  2.7694  0.3304
   36DOPE  H13Y 4628   5.423   5.119  14.629 -0.3001 -0.6559  0.7789
   36DOPE  C314 4629   5.344   5.258  14.782  0.3505 -0.1139 -1.3757
   36DOPE  H14X 4630   5.333   5.368  14.785 -1.0948 -0.2537 -0.4318
   36DOPE  H14Y 4631   5.418   5.230  14.859  0.8041 -1.0021 -2.1157
   36DOPE  C315 4632   5.207   5.202  14.811  0.1381  0.5501 -0.1811
   36DOPE  H15X 4633   5.194   5.092  14.818 -2.7519  0.8276 -0.2068
   36DOPE  H15Y 4634   5.143   5.227  14.724 -0.1090  0.6285  0.0223
   36DOPE  C316 4635   5.151   5.254  14.946  0.2694  0.2978 -0.1983
   36DOPE  H16X 4636   5.109   5.355  14.926  1.0986  1.3544  2.8257
   36DOPE  H16Y 4637   5.232   5.264  15.021 -0.2236  1.1062  0.2387
   36DOPE  C317 4638   5.044   5.159  14.994  0.7663 -0.3921 -0.6805
   36DOPE  H17X 4639   4.968   5.163  14.913  0.3034 -2.7095 -0.4344
   36DOPE  H17Y 4640   5.076   5.054  14.980 -0.0628 -0.6076 -1.0283
   36DOPE  C318 4641   4.974   5.187  15.127  0.4354  0.9034  0.4380
   36DOPE  H18X 4642   4.895   5.111  15.147  1.0146  1.0295  3.7771
   36DOPE  H18Y 4643   5.049   5.175  15.208  0.6790  0.2165  0.1241
   36DOPE  H18Z 4644   4.917   5.281  15.145  0.3464  0.6100  1.7626
   37DOPE     N 4645   2.193   2.411  12.759  0.4746 -0.0501 -0.2504
   37DOPE   HN1 4646   2.197   2.456  12.666 -1.5248 -0.6674 -0.6737
   37DOPE   HN2 4647   2.113   2.345  12.764 -0.2363  0.5641 -2.6621
   37DOPE   HN3 4648   2.169   2.481  12.832  1.8490 -1.4492  1.6419
   37DOPE   C12 4649   2.312   2.344  12.813 -0.5234 -0.1670 -0.4168
   37DOPE  H12A 4650   2.334   2.255  12.751 -0.0312 -0.4960  0.2170
   37DOPE  H12B 4651   2.288   2.309  12.916  2.1541 -0.8905  0.0265
   37DOPE   C11 4652   2.429   2.439  12.836 -0.7376 -0.7989  0.5208
   37DOPE  H11A 4653   2.453   2.488  12.739 -1.2365 -0.1912  0.7027
   37DOPE  H11B 4654   2.522   2.382  12.860  1.2963  0.8432 -2.6917
   37DOPE     P 4655   2.486   2.582  13.044  0.3253  0.1632 -0.1868
   37DOPE   O13 4656   2.402   2.652  13.139 -0.0215  0.1555 -0.1005
   37DOPE   O14 4657   2.585   2.660  12.967  0.3795 -0.0609  0.2462
   37DOPE   O11 4658   2.544   2.450  13.107 -0.1350 -0.1548  0.1503
   37DOPE   O12 4659   2.388   2.527  12.933  0.3515 -0.3125  0.0965
   37DOPE    C1 4660   2.468   2.354  13.176 -0.9032 -0.0972 -0.6220
   37DOPE    HA 4661   2.524   2.258  13.182  0.5795  0.8286  1.3037
   37DOPE    HB 4662   2.371   2.333  13.127 -1.2907 -1.4706  0.6698
   37DOPE    C2 4663   2.451   2.392  13.331  0.0005 -0.4313  0.2090
   37DOPE    HS 4664   2.427   2.500  13.339  1.9498  0.2807 -2.3217
   37DOPE   O21 4665   2.579   2.361  13.400  0.1228  0.1490 -0.5844
   37DOPE   C21 4666   2.598   2.428  13.509  0.2609 -0.6859  0.2162
   37DOPE   O22 4667   2.520   2.511  13.561 -0.3300  0.8099  0.6934
   37DOPE   C22 4668   2.737   2.402  13.558  0.1130  0.6036  0.0051
   37DOPE   H2R 4669   2.812   2.433  13.482 -0.4038  1.2405 -0.2465
   37DOPE   H2S 4670   2.748   2.292  13.567  1.4543  0.7669  0.5383
   37DOPE    C3 4671   2.332   2.318  13.399  0.1315  0.7268  0.0079
   37DOPE    HX 4672   2.361   2.211  13.405 -2.4350 -0.0433 -0.0117
   37DOPE    HY 4673   2.243   2.327  13.332 -0.0154 -2.7675 -0.4698
   37DOPE   O31 4674   2.291   2.359  13.532  0.4070 -0.1609 -0.1309
   37DOPE   C31 4675   2.237   2.482  13.538  0.3206  0.2652 -0.5862
   37DOPE   O32 4676   2.202   2.552  13.447  0.4029  0.1591  0.2431
   37DOPE   C32 4677   2.195   2.505  13.684  0.2780  0.3754 -0.3270
   37DOPE   H2X 4678   2.117   2.429  13.703  0.5473  0.1058 -0.2923
   37DOPE   H2Y 4679   2.273   2.475  13.758 -1.4645  0.4560  1.6336
   37DOPE   C23 4680   2.768   2.470  13.691  0.0401 -0.4984  0.0082
   37DOPE   H3R 4681   2.755   2.580  13.677  0.5084 -0.4686 -0.2031
   37DOPE   H3S 4682   2.877   2.454  13.698  0.0464 -0.7142 -0.5393
   37DOPE   C24 4683   2.692   2.420  13.815 -0.8938  0.1319 -0.2543
   37DOPE   H4R 4684   2.707   2.310  13.812  1.5107  0.3968  0.3087
   37DOPE   H4S 4685   2.585   2.445  13.798 -0.6020  0.1090 -2.2724
   37DOPE   C25 4686   2.745   2.478  13.956  0.2889  0.1208  0.8064
   37DOPE   H5R 4687   2.693   2.428  14.040 -0.2449  3.3042  2.5356
   37DOPE   H5S 4688   2.706   2.582  13.956 -2.6785 -0.8950 -0.1553
   37DOPE   C26 4689   2.896   2.466  13.998  0.0504 -0.7744 -0.3153
   37DOPE   H6R 4690   2.969   2.508  13.925  0.2835 -1.3122 -0.3917
   37DOPE   H6S 4691   2.925   2.362  14.025 -0.7390 -1.4914 -2.0875
   37DOPE   C27 4692   2.914   2.555  14.125 -0.9319 -0.2363  0.6673
   37DOPE   H7R 4693   2.872   2.505  14.215 -0.6510 -0.9591  0.4016
   37DOPE   H7S 4694   2.861   2.649  14.098  0.8300 -0.4914 -5.0039
   37DOPE   C28 4695   3.061   2.590  14.156  0.5808  0.4945 -0.1836
   37DOPE   H8R 4696   3.112   2.630  14.066  0.7121 -0.4450 -0.5427
   37DOPE   H8S 4697   3.129   2.503  14.170  1.9179  1.8147  1.8401
   37DOPE   C29 4698   3.068   2.681  14.274  0.6554 -0.1110 -0.6341
   37DOPE   H9R 4699   3.058   2.790  14.261 -1.1072 -0.1445  0.1561
   37DOPE  C210 4700   3.110   2.632  14.402 -0.0019 -0.3995  0.0102
   37DOPE  H10R 4701   3.088   2.692  14.491 -1.1349  0.3157 -0.7192
   37DOPE  C211 4702   3.143   2.491  14.432 -0.4380 -0.3574  0.1040
   37DOPE  H11R 4703   3.251   2.488  14.458 -0.0142 -1.2853 -1.6001
   37DOPE  H11S 4704   3.131   2.416  14.351 -3.3409 -1.2657  1.2583
   37DOPE  C212 4705   3.065   2.430  14.553  0.0425  0.3453  0.5450
   37DOPE  H12R 4706   3.108   2.330  14.576  0.6273 -0.0790 -2.0574
   37DOPE  H12S 4707   2.967   2.413  14.505 -0.0048  1.2720  0.2893
   37DOPE  C213 4708   3.047   2.512  14.686 -0.2221  0.5424 -0.2283
   37DOPE  H13R 4709   3.002   2.613  14.670 -3.3345 -0.3023  2.1540
   37DOPE  H13S 4710   3.140   2.515  14.747  0.4604 -1.6538 -1.0592
   37DOPE  C214 4711   2.948   2.450  14.790  0.4877 -0.5300 -0.5322
   37DOPE  H14R 4712   2.950   2.519  14.877  1.3751 -0.9381 -0.2137
   37DOPE  H14S 4713   2.984   2.351  14.826  0.4223 -0.1175  0.7191
   37DOPE  C215 4714   2.803   2.422  14.736 -0.1646  0.0625 -0.2921
   37DOPE  H15R 4715   2.794   2.341  14.660 -3.1089 -0.0147  0.0375
   37DOPE  H15S 4716   2.779   2.517  14.686 -0.0655  0.1990 -0.0836
   37DOPE  C216 4717   2.698   2.397  14.853  0.1435  0.0106  0.8400
   37DOPE  H16R 4718   2.722   2.474  14.929 -1.2175  0.9377  0.3726
   37DOPE  H16S 4719   2.710   2.292  14.889 -0.1700 -0.9718 -1.7028
   37DOPE  C217 4720   2.549   2.422  14.818 -0.1246  0.1175  0.0800
   37DOPE  H17R 4721   2.508   2.335  14.762  0.2296  0.1426 -0.2201
   37DOPE  H17S 4722   2.546   2.516  14.760 -0.2878  0.0664  0.0029
   37DOPE  C218 4723   2.452   2.448  14.942 -0.1536 -0.0475 -0.3549
   37DOPE  H18R 4724   2.356   2.500  14.920  0.1866  1.5611  1.6432
   37DOPE  H18S 4725   2.499   2.510  15.021 -0.5283  0.5342 -0.5783
   37DOPE  H18T 4726   2.433   2.348  14.986  0.8827 -0.5869 -1.0958
   37DOPE   C33 4727   2.138   2.652  13.700 -0.0087  0.1645 -0.1917
   37DOPE   H3X 4728   2.067   2.672  13.617 -1.1416 -1.9876  0.2155
   37DOPE   H3Y 4729   2.223   2.724  13.707  1.8766 -2.0400  0.9069
   37DOPE   C34 4730   2.059   2.661  13.836 -0.1100 -0.0081  0.1268
   37DOPE   H4X 4731   1.977   2.586  13.836  0.9115 -1.1866 -1.0488
   37DOPE   H4Y 4732   2.122   2.620  13.918  0.0673 -0.3880 -0.1934
   37DOPE   C35 4733   2.023   2.798  13.873  0.0789 -0.4788 -0.2859
   37DOPE   H5X 4734   1.943   2.846  13.813  0.8798  1.5167  0.1631
   37DOPE   H5Y 4735   2.112   2.864  13.863 -0.1400  0.5624  3.2902
   37DOPE   C36 4736   1.960   2.808  14.010  0.0677 -0.0248 -0.1857
   37DOPE   H6X 4737   2.035   2.792  14.091  0.0564 -0.6465 -0.2976
   37DOPE   H6Y 4738   1.874   2.737  14.015 -0.1890  0.2147 -1.0425
   37DOPE   C37 4739   1.900   2.952  14.042  0.0284  0.0266  0.7407
   37DOPE   H7X 4740   1.806   2.966  13.985  0.5779  0.2378 -0.1361
   37DOPE   H7Y 4741   1.871   2.956  14.149 -0.2902 -1.8155  0.7556
   37DOPE   C38 4742   1.997   3.074  14.007  0.5982  0.5521 -0.6142
   37DOPE   H8X 4743   2.095   3.051  14.053  0.4943 -1.1520 -1.1521
   37DOPE   H8Y 4744   1.953   3.159  14.063  1.2430  0.6900 -0.3080
   37DOPE   C39 4745   2.002   3.121  13.862 -0.3616  0.3021 -0.5497
   37DOPE   H9X 4746   1.940   3.063  13.793 -1.3268  2.1075 -1.2766
   37DOPE  C310 4747   2.072   3.223  13.819 -1.3999 -0.7992  0.2924
   37DOPE  H10X 4748   2.067   3.252  13.714  0.0031 -2.2155 -0.2151
   37DOPE  C311 4749   2.153   3.322  13.899  0.2743 -0.3529  0.1590
   37DOPE  H11X 4750   2.176   3.286  14.002  0.9656  0.9116  0.4748
   37DOPE  H11Y 4751   2.255   3.342  13.858 -0.7852 -0.2743 -2.5942
   37DOPE  C312 4752   2.066   3.450  13.903  0.9461  0.4961 -0.1791
   37DOPE  H12X 4753   1.969   3.420  13.948  1.5724  0.2096  0.9964
   37DOPE  H12Y 4754   2.049   3.490  13.800 -0.0457  0.6924  0.0493
   37DOPE  C313 4755   2.109   3.555  14.006  0.4478  0.0653  0.4487
   37DOPE  H13X 4756   2.214   3.587  13.986  0.9017 -1.0028  1.0764
   37DOPE  H13Y 4757   2.048   3.647  13.994  1.6883  0.8198 -0.2919
   37DOPE  C314 4758   2.114   3.512  14.155 -0.1306  0.7027  0.5731
   37DOPE  H14X 4759   2.176   3.423  14.178 -1.4721 -0.5524 -0.5184
   37DOPE  H14Y 4760   2.013   3.491  14.195 -0.7971  1.3910 -0.6793
   37DOPE  C315 4761   2.161   3.631  14.246  0.7069 -0.5337  0.2095
   37DOPE  H15X 4762   2.086   3.709  14.222 -0.1526 -1.4765 -0.2306
   37DOPE  H15Y 4763   2.260   3.663  14.208  0.3893  1.7201  1.1082
   37DOPE  C316 4764   2.146   3.599  14.397  0.1658  0.2482  0.2683
   37DOPE  H16X 4765   2.202   3.507  14.422 -2.1380 -1.1276  0.5652
   37DOPE  H16Y 4766   2.038   3.584  14.417  0.2931 -1.1898 -0.0336
   37DOPE  C317 4767   2.184   3.712  14.489 -0.3728 -0.4941  0.8745
   37DOPE  H17X 4768   2.290   3.723  14.457 -0.3909 -1.1908  0.5729
   37DOPE  H17Y 4769   2.133   3.803  14.450  2.4843  1.2070  0.8262
   37DOPE  C318 4770   2.165   3.684  14.639 -0.1500 -1.3906 -0.3642
   37DOPE  H18X 4771   2.207   3.767  14.700  1.1389 -1.6248 -0.8914
   37DOPE  H18Y 4772   2.059   3.677  14.670  0.2959 -0.0011  1.6304
   37DOPE  H18Z 4773   2.216   3.588  14.663  1.3295 -0.2566  1.2631
   38DOPE     N 4774   5.240   5.563  12.618 -0.4171  0.0090  0.5559
   38DOPE   HN1 4775   5.273   5.520  12.529  1.0484  1.7277  0.2138
   38DOPE   HN2 4776   5.210   5.660  12.594 -2.7059 -0.9130 -0.6717
   38DOPE   HN3 4777   5.313   5.569  12.692  0.5400 -0.3422 -0.3412
   38DOPE   C12 4778   5.127   5.482  12.687 -0.0872  0.1352  0.1222
   38DOPE  H12A 4779   5.146   5.380  12.649 -0.1787  0.8951 -2.1877
   38DOPE  H12B 4780   5.032   5.502  12.631 -1.7740 -1.6670  2.1631
   38DOPE   C11 4781   5.114   5.522  12.835 -0.0683 -0.3537 -0.5943
   38DOPE  H11A 4782   5.012   5.496  12.872  0.5737 -2.0282  0.0873
   38DOPE  H11B 4783   5.121   5.633  12.832 -0.0942 -0.3038  0.7984
   38DOPE     P 4784   5.256   5.528  13.052 -0.0929  0.1226 -0.2219
   38DOPE   O13 4785   5.293   5.670  13.031 -0.3400  0.8177 -0.2980
   38DOPE   O14 4786   5.366   5.448  13.105  0.0162 -0.5232 -0.6443
   38DOPE   O11 4787   5.119   5.514  13.132 -0.2359 -0.8849 -0.3554
   38DOPE   O12 4788   5.215   5.467  12.913 -0.4847  0.6623 -0.2853
   38DOPE    C1 4789   5.089   5.583  13.251  0.3166 -0.1474 -0.0237
   38DOPE    HA 4790   4.993   5.531  13.274 -0.2605  0.7072 -0.4616
   38DOPE    HB 4791   5.071   5.692  13.242  1.2764  0.0234  0.0284
   38DOPE    C2 4792   5.197   5.571  13.367 -0.2406  0.6571  0.4515
   38DOPE    HS 4793   5.280   5.630  13.322 -0.2635 -0.4325 -1.0900
   38DOPE   O21 4794   5.227   5.433  13.383  0.2762  0.5715  0.2629
   38DOPE   C21 4795   5.339   5.411  13.451  0.3855  0.2742  0.7038
   38DOPE   O22 4796   5.418   5.492  13.484 -0.4084  0.2662 -0.1077
   38DOPE   C22 4797   5.344   5.258  13.484 -0.3890 -0.8812  0.0999
   38DOPE   H2R 4798   5.436   5.218  13.435 -1.7533 -2.7214 -1.1068
   38DOPE   H2S 4799   5.250   5.216  13.443  0.3714 -2.6369  0.0647
   38DOPE    C3 4800   5.126   5.641  13.494 -0.1885  0.1923 -0.1772
   38DOPE    HX 4801   5.035   5.586  13.525 -0.0108 -0.7779 -1.2840
   38DOPE    HY 4802   5.084   5.740  13.466  0.1675  0.8336  1.4783
   38DOPE   O31 4803   5.220   5.655  13.603 -0.5539  0.4508  0.6008
   38DOPE   C31 4804   5.321   5.736  13.578  0.0659 -0.0823  0.0636
   38DOPE   O32 4805   5.322   5.813  13.479  0.0742  0.4396 -0.2725
   38DOPE   C32 4806   5.436   5.724  13.686  0.1797 -0.0064  0.1543
   38DOPE   H2X 4807   5.399   5.667  13.773  0.9933  0.3865  0.7702
   38DOPE   H2Y 4808   5.514   5.659  13.641 -0.3556 -1.1904  0.9054
   38DOPE   C23 4809   5.352   5.233  13.636  0.2677 -0.1296  0.2548
   38DOPE   H3R 4810   5.415   5.309  13.688 -1.7855  1.4248  0.5864
   38DOPE   H3S 4811   5.404   5.136  13.652  0.8503  0.4054  1.7178
   38DOPE   C24 4812   5.214   5.248  13.702  0.7890  0.1187 -0.7120
   38DOPE   H4R 4813   5.144   5.172  13.660 -0.2652  0.1512  0.9024
   38DOPE   H4S 4814   5.176   5.352  13.689 -0.3748 -0.5258 -3.0629
   38DOPE   C25 4815   5.227   5.243  13.855 -0.2276  0.6691 -0.2930
   38DOPE   H5R 4816   5.295   5.322  13.895 -0.5632  0.7012  0.2237
   38DOPE   H5S 4817   5.279   5.149  13.883  1.0208  0.8799 -1.7418
   38DOPE   C26 4818   5.081   5.223  13.909 -0.2908  0.1972 -1.3579
   38DOPE   H6R 4819   5.045   5.146  13.838 -0.1513 -0.0153 -1.1988
   38DOPE   H6S 4820   5.025   5.316  13.883 -0.6496 -0.1808 -1.9615
   38DOPE   C27 4821   5.071   5.181  14.056  0.0125  0.0578 -0.2519
   38DOPE   H7R 4822   4.964   5.154  14.074 -0.5331  0.9268 -1.9247
   38DOPE   H7S 4823   5.071   5.262  14.132  1.4576 -2.1442  2.2362
   38DOPE   C28 4824   5.146   5.056  14.101  0.0614 -0.7404  0.2497
   38DOPE   H8R 4825   5.208   5.008  14.022  0.8288 -0.0916  0.4511
   38DOPE   H8S 4826   5.065   4.985  14.127 -2.3949  1.3297 -1.3078
   38DOPE   C29 4827   5.241   5.089  14.214 -0.0595 -0.6654  0.1051
   38DOPE   H9R 4828   5.315   5.169  14.204 -0.5606  0.0673  1.8486
   38DOPE  C210 4829   5.242   5.031  14.334 -0.4117 -0.9085  0.3839
   38DOPE  H10R 4830   5.323   5.062  14.402 -0.4546 -0.2558  0.1480
   38DOPE  C211 4831   5.147   4.927  14.383  0.0802  0.5652  0.2700
   38DOPE  H11R 4832   5.196   4.859  14.456  0.5087  2.2349  1.6046
   38DOPE  H11S 4833   5.098   4.872  14.300  1.1053  0.2977 -0.1703
   38DOPE  C212 4834   5.036   4.995  14.468  0.1707 -0.1936 -0.1242
   38DOPE  H12R 4835   4.964   5.027  14.390 -0.2719 -1.2786 -0.1769
   38DOPE  H12S 4836   5.077   5.080  14.527 -0.2643 -0.7621  1.0162
   38DOPE  C213 4837   4.977   4.884  14.556  0.8154 -0.1240 -0.7098
   38DOPE  H13R 4838   5.045   4.833  14.627 -0.6981  0.0466  0.9467
   38DOPE  H13S 4839   4.925   4.803  14.501  0.0560 -0.6964  0.8124
   38DOPE  C214 4840   4.874   4.951  14.652 -0.4307 -0.1222 -0.7718
   38DOPE  H14R 4841   4.923   5.044  14.688  1.5279 -1.6619  0.7864
   38DOPE  H14S 4842   4.866   4.882  14.740  1.2634  0.0455 -0.4467
   38DOPE  C215 4843   4.741   4.983  14.580 -0.5685  0.7848  0.0533
   38DOPE  H15R 4844   4.692   4.886  14.558 -0.3400  1.0556 -1.8332
   38DOPE  H15S 4845   4.759   5.049  14.493 -0.5690  1.7184  0.7426
   38DOPE  C216 4846   4.652   5.071  14.672  0.1533  0.4452  1.3541
   38DOPE  H16R 4847   4.562   5.105  14.616  0.9503  1.2787  0.5369
   38DOPE  H16S 4848   4.711   5.164  14.686  0.8836 -0.1015  2.0547
   38DOPE  C217 4849   4.614   5.019  14.805 -0.1992 -0.3541  0.2130
   38DOPE  H17R 4850   4.704   4.994  14.865 -0.3834 -0.2477  0.5355
   38DOPE  H17S 4851   4.559   4.927  14.778 -1.0818  0.1031  0.4330
   38DOPE  C218 4852   4.520   5.107  14.886  0.7963 -0.2783  0.1555
   38DOPE  H18R 4853   4.566   5.207  14.899  2.7929 -0.8755 -1.6671
   38DOPE  H18S 4854   4.507   5.055  14.983  1.1368  1.3437  1.0984
   38DOPE  H18T 4855   4.427   5.119  14.827  0.2637 -0.5799  0.9316
   38DOPE   C33 4856   5.506   5.845  13.748 -0.4362 -0.4540 -0.1668
   38DOPE   H3X 4857   5.579   5.892  13.679 -0.3766 -3.6602 -2.4757
   38DOPE   H3Y 4858   5.576   5.801  13.822  0.5562  0.3687 -0.5850
   38DOPE   C34 4859   5.393   5.937  13.813 -0.1357 -0.3493 -0.3278
   38DOPE   H4X 4860   5.321   5.963  13.733 -0.2239  4.8580  1.0731
   38DOPE   H4Y 4861   5.336   5.896  13.900 -0.4522  1.2054  0.2462
   38DOPE   C35 4862   5.446   6.073  13.860 -0.3285  0.1961 -0.2395
   38DOPE   H5X 4863   5.365   6.147  13.873  1.4976  1.9862  1.8655
   38DOPE   H5Y 4864   5.507   6.122  13.781 -0.2294 -0.5148 -0.6110
   38DOPE   C36 4865   5.531   6.082  13.994 -0.0571  0.3124  0.7114
   38DOPE   H6X 4866   5.559   6.189  14.001 -0.3557  0.4715 -0.3171
   38DOPE   H6Y 4867   5.626   6.024  13.984 -1.0876 -1.2825 -0.4285
   38DOPE   C37 4868   5.455   6.037  14.119  0.0592  0.7904  0.0512
   38DOPE   H7X 4869   5.356   6.088  14.127 -0.2074  1.0333 -3.4651
   38DOPE   H7Y 4870   5.430   5.929  14.116  0.4534  0.7174 -1.1548
   38DOPE   C38 4871   5.541   6.070  14.248 -0.1923  0.3663 -0.1636
   38DOPE   H8X 4872   5.469   6.069  14.332 -1.4177 -0.0367 -1.1937
   38DOPE   H8Y 4873   5.590   6.168  14.232  0.1506  0.1547 -0.4369
   38DOPE   C39 4874   5.657   5.975  14.255  0.5624 -0.2220 -0.2010
   38DOPE   H9X 4875   5.724   5.977  14.168  0.3244  1.0377 -0.3847
   38DOPE  C310 4876   5.664   5.882  14.353 -1.3037  0.0174  0.3428
   38DOPE  H10X 4877   5.759   5.828  14.362 -0.7928  1.0091  1.1507
   38DOPE  C311 4878   5.574   5.854  14.466  0.1451  0.3639  0.4958
   38DOPE  H11X 4879   5.539   5.952  14.505 -0.0998  0.7788 -0.7154
   38DOPE  H11Y 4880   5.487   5.794  14.433  0.4727  0.4265 -0.5311
   38DOPE  C312 4881   5.643   5.786  14.583 -0.1799 -0.0104 -0.8429
   38DOPE  H12X 4882   5.669   5.682  14.557 -0.2190 -0.4183  0.6901
   38DOPE  H12Y 4883   5.568   5.782  14.665  0.3275  0.1516 -0.3661
   38DOPE  C313 4884   5.762   5.860  14.642 -0.4531  0.1655  0.6379
   38DOPE  H13X 4885   5.808   5.795  14.720  1.2585 -1.2619 -1.4579
   38DOPE  H13Y 4886   5.840   5.878  14.566 -1.3796 -1.3610 -0.7466
   38DOPE  C314 4887   5.735   5.993  14.707  0.1360 -0.2840 -0.4568
   38DOPE  H14X 4888   5.675   5.980  14.800 -0.2406  1.0583 -0.4861
   38DOPE  H14Y 4889   5.672   6.059  14.642 -0.2296 -1.0726 -0.9185
   38DOPE  C315 4890   5.860   6.078  14.732  0.5923 -0.6083  0.1310
   38DOPE  H15X 4891   5.915   6.101  14.638  2.5615 -0.5979  1.2339
   38DOPE  H15Y 4892   5.924   6.008  14.791 -0.3797 -1.3072  0.3846
   38DOPE  C316 4893   5.836   6.214  14.799 -0.9140 -0.9019  0.1697
   38DOPE  H16X 4894   5.772   6.184  14.885  0.6131 -1.0115  1.3278
   38DOPE  H16Y 4895   5.777   6.277  14.730  3.2624  2.0553 -1.1220
   38DOPE  C317 4896   5.971   6.285  14.837  0.6454 -0.8817 -0.0368
   38DOPE  H17X 4897   6.019   6.201  14.892 -0.1174 -0.8813  0.6551
   38DOPE  H17Y 4898   6.025   6.308  14.743 -1.2607  2.1544 -0.5146
   38DOPE  C318 4899   5.971   6.411  14.924  0.0343 -0.1911 -0.0533
   38DOPE  H18X 4900   5.908   6.501  14.905  0.2184 -0.4427 -2.0296
   38DOPE  H18Y 4901   5.962   6.389  15.033  0.6015  1.4535  0.3662
   38DOPE  H18Z 4902   6.070   6.462  14.917 -0.0291 -0.1569 -0.7689
   39DOPE     N 4903   1.136   4.030  12.730  0.0151 -0.7959  0.3896
   39DOPE   HN1 4904   1.229   3.989  12.753 -0.2780 -0.8082  1.6426
   39DOPE   HN2 4905   1.093   3.995  12.642  1.1940 -2.9230  0.5862
   39DOPE   HN3 4906   1.152   4.131  12.712  0.6160 -0.3970  2.7585
   39DOPE   C12 4907   1.063   4.005  12.858 -0.3634  0.2038 -0.4034
   39DOPE  H12A 4908   1.035   3.898  12.864  0.7566 -0.0393  1.1338
   39DOPE  H12B 4909   0.969   4.060  12.879 -1.1184 -0.7329 -1.2498
   39DOPE   C11 4910   1.160   4.009  12.976  0.4679 -0.0045  0.0125
   39DOPE  H11A 4911   1.111   3.981  13.071 -0.9264 -2.5474 -1.3474
   39DOPE  H11B 4912   1.200   4.109  13.000  0.8380 -0.0393 -0.4486
   39DOPE     P 4913   1.283   3.773  13.006  0.0586 -0.3207 -0.1315
   39DOPE   O13 4914   1.426   3.727  13.012  0.6707 -0.0226 -0.2968
   39DOPE   O14 4915   1.199   3.694  12.916 -0.3021  0.0533  0.1797
   39DOPE   O11 4916   1.202   3.773  13.148  0.4027  0.3391  0.3237
   39DOPE   O12 4917   1.274   3.927  12.953 -0.3766 -0.0867  0.2249
   39DOPE    C1 4918   1.260   3.810  13.272 -0.3056 -0.3405 -0.1817
   39DOPE    HA 4919   1.171   3.844  13.330  1.5783  0.7266  2.2167
   39DOPE    HB 4920   1.319   3.904  13.271  0.3830 -0.7522  0.7641
   39DOPE    C2 4921   1.315   3.696  13.362  0.6347 -0.6669  0.4577
   39DOPE    HS 4922   1.260   3.601  13.344 -0.0244 -0.9611  3.4899
   39DOPE   O21 4923   1.295   3.742  13.503 -0.3290 -0.7081 -0.2003
   39DOPE   C21 4924   1.300   3.643  13.587 -0.1357 -0.3824  0.4599
   39DOPE   O22 4925   1.298   3.527  13.550 -0.2709  0.0859  0.1477
   39DOPE   C22 4926   1.291   3.693  13.731 -0.5905  0.5752 -0.0022
   39DOPE   H2R 4927   1.216   3.772  13.751 -1.4280 -0.2330  0.1453
   39DOPE   H2S 4928   1.388   3.742  13.755  0.2453 -0.6572 -0.7249
   39DOPE    C3 4929   1.471   3.659  13.347 -0.4993  0.0410  0.1352
   39DOPE    HX 4930   1.488   3.632  13.240 -0.5154  0.7166 -0.0471
   39DOPE    HY 4931   1.504   3.571  13.405 -2.4496 -0.0406  1.1814
   39DOPE   O31 4932   1.554   3.779  13.360  0.5107 -0.5192  0.0987
   39DOPE   C31 4933   1.608   3.796  13.478 -0.0076 -0.3012  0.7816
   39DOPE   O32 4934   1.583   3.732  13.579  0.5575  0.2019 -0.3640
   39DOPE   C32 4935   1.700   3.916  13.473 -0.5097 -0.3162 -1.0806
   39DOPE   H2X 4936   1.744   3.926  13.372  0.7845  1.0862 -0.4226
   39DOPE   H2Y 4937   1.635   4.007  13.480  0.4029  0.5054 -2.7722
   39DOPE   C23 4938   1.268   3.578  13.825 -0.5342  0.2818  0.0101
   39DOPE   H3R 4939   1.352   3.507  13.809 -0.5912  0.3952 -0.8369
   39DOPE   H3S 4940   1.167   3.535  13.810 -0.5148 -0.0259  0.7013
   39DOPE   C24 4941   1.268   3.624  13.971 -0.0879 -0.3044 -0.4011
   39DOPE   H4R 4942   1.351   3.697  13.977 -1.6781  1.6713 -1.2267
   39DOPE   H4S 4943   1.289   3.533  14.032  1.4305 -0.1071 -0.5842
   39DOPE   C25 4944   1.146   3.699  14.025  0.1142  0.8960 -0.5661
   39DOPE   H5R 4945   1.066   3.624  14.007 -1.6016  2.5746 -0.2492
   39DOPE   H5S 4946   1.114   3.798  13.985 -0.8571 -0.2590 -2.8329
   39DOPE   C26 4947   1.167   3.712  14.177 -0.4764  0.1127 -1.0229
   39DOPE   H6R 4948   1.186   3.615  14.228 -0.9899  0.6693  0.2731
   39DOPE   H6S 4949   1.074   3.753  14.223  0.1245 -0.9031  1.2355
   39DOPE   C27 4950   1.272   3.821  14.201 -0.2380 -0.1547 -0.0058
   39DOPE   H7R 4951   1.244   3.909  14.139  0.9271 -0.2809 -0.7454
   39DOPE   H7S 4952   1.372   3.785  14.168  0.1146 -0.1045  0.9579
   39DOPE   C28 4953   1.266   3.868  14.346  0.2026  0.0725 -0.4020
   39DOPE   H8R 4954   1.263   3.790  14.425  1.6787 -0.4677 -0.8561
   39DOPE   H8S 4955   1.165   3.911  14.363 -0.0628  0.1054 -1.8925
   39DOPE   C29 4956   1.371   3.973  14.372  0.0471  0.1141 -0.5122
   39DOPE   H9R 4957   1.470   3.938  14.407  1.0616  0.9771 -2.3799
   39DOPE  C210 4958   1.351   4.103  14.394 -1.0111  0.2359  0.4522
   39DOPE  H10R 4959   1.442   4.162  14.412  0.6738 -1.4493 -1.8881
   39DOPE  C211 4960   1.219   4.175  14.388  0.0341 -0.0222 -0.0445
   39DOPE  H11R 4961   1.161   4.147  14.478  0.6956  1.6389  0.9428
   39DOPE  H11S 4962   1.179   4.140  14.290 -0.9903 -2.6580  1.2241
   39DOPE  C212 4963   1.241   4.321  14.408 -0.5553  0.0640  0.7016
   39DOPE  H12R 4964   1.145   4.377  14.398  0.1673  1.5989  2.0069
   39DOPE  H12S 4965   1.312   4.367  14.337 -0.4885 -0.3752  0.4839
   39DOPE  C213 4966   1.299   4.355  14.549  0.9705  0.5060  0.2724
   39DOPE  H13R 4967   1.386   4.290  14.572  0.3921 -0.7619 -0.9263
   39DOPE  H13S 4968   1.227   4.343  14.633  0.0201  1.9578 -0.2895
   39DOPE  C214 4969   1.323   4.509  14.562  0.3862  0.1015  0.2343
   39DOPE  H14R 4970   1.239   4.575  14.533  1.6064  1.9621  0.6636
   39DOPE  H14S 4971   1.412   4.540  14.503 -0.4112  0.8077 -0.6260
   39DOPE  C215 4972   1.356   4.552  14.708 -0.3790  0.1599  0.1209
   39DOPE  H15R 4973   1.434   4.480  14.743  0.6627  0.0843 -2.2255
   39DOPE  H15S 4974   1.267   4.552  14.775 -0.7862 -0.3520 -0.4142
   39DOPE  C216 4975   1.416   4.696  14.712  0.3457  0.0840  0.6309
   39DOPE  H16R 4976   1.346   4.774  14.674 -2.0118 -1.4225  1.5844
   39DOPE  H16S 4977   1.499   4.689  14.640 -0.6792  2.3886 -0.8888
   39DOPE  C217 4978   1.469   4.756  14.851 -0.0429 -0.1358  1.1605
   39DOPE  H17R 4979   1.374   4.783  14.902  0.7211  2.4218  1.3842
   39DOPE  H17S 4980   1.530   4.845  14.822 -1.0820 -0.3265 -2.0151
   39DOPE  C218 4981   1.554   4.655  14.932 -0.4563  0.3971  0.2668
   39DOPE  H18R 4982   1.592   4.713  15.019 -1.9669  4.0418 -1.2842
   39DOPE  H18S 4983   1.640   4.631  14.867 -1.2132 -2.3972  0.1579
   39DOPE  H18T 4984   1.503   4.559  14.955  0.5417 -0.5258 -1.2454
   39DOPE   C33 4985   1.820   3.933  13.574  0.1701  0.2862 -0.3214
   39DOPE   H3X 4986   1.879   4.019  13.536 -1.1712  1.8365  0.9234
   39DOPE   H3Y 4987   1.886   3.844  13.565 -1.0364 -0.5502 -1.3152
   39DOPE   C34 4988   1.785   3.951  13.724  0.0412 -0.0057  0.7023
   39DOPE   H4X 4989   1.804   4.057  13.749 -0.8708  0.6523 -1.1888
   39DOPE   H4Y 4990   1.675   3.940  13.733 -0.4078  1.7980 -1.6532
   39DOPE   C35 4991   1.862   3.855  13.820  0.5916  0.4267 -0.4359
   39DOPE   H5X 4992   1.968   3.888  13.824  1.0225 -0.6268 -2.0306
   39DOPE   H5Y 4993   1.862   3.756  13.770 -4.0470  0.7449 -1.4940
   39DOPE   C36 4994   1.804   3.837  13.964  0.3007  0.3806 -0.9632
   39DOPE   H6X 4995   1.883   3.779  14.017  1.9741  1.6012 -2.0250
   39DOPE   H6Y 4996   1.701   3.798  13.971  0.2453  0.5649 -0.7773
   39DOPE   C37 4997   1.794   3.971  14.034  0.2596 -0.4171  0.1319
   39DOPE   H7X 4998   1.900   4.004  14.046  0.1752  0.3177 -0.9429
   39DOPE   H7Y 4999   1.726   4.035  13.974 -0.7461  0.0364  1.7048
   39DOPE   C38 5000   1.729   3.963  14.175 -0.2495 -0.2538  0.0097
   39DOPE   H8X 5001   1.631   3.912  14.163  0.0698 -0.5898 -1.2908
   39DOPE   H8Y 5002   1.712   4.068  14.207 -0.5787 -0.2170 -0.2776
   39DOPE   C39 5003   1.819   3.898  14.285  0.4682  0.3883  0.9671
   39DOPE   H9X 5004   1.856   3.801  14.248 -0.8429  1.6721 -4.5609
   39DOPE  C310 5005   1.839   3.929  14.414  0.2429  0.2830  0.3534
   39DOPE  H10X 5006   1.889   3.859  14.483 -0.7675 -0.3376  0.4749
   39DOPE  C311 5007   1.772   4.050  14.479  0.4044 -0.3057  0.4599
   39DOPE  H11X 5008   1.840   4.136  14.495 -0.2591  0.0380  1.5397
   39DOPE  H11Y 5009   1.688   4.089  14.417 -1.3764 -0.4489  2.6579
   39DOPE  C312 5010   1.709   4.026  14.613  0.2014  0.4001  0.2077
   39DOPE  H12X 5011   1.616   3.967  14.602  0.9125 -0.8683  0.7565
   39DOPE  H12Y 5012   1.674   4.122  14.656 -2.4512 -0.1160 -0.6505
   39DOPE  C313 5013   1.799   3.959  14.715 -0.4502 -0.4501 -0.3269
   39DOPE  H13X 5014   1.821   3.855  14.684  0.9757  0.0398 -1.0305
   39DOPE  H13Y 5015   1.888   4.026  14.709 -0.4971 -0.0524  2.2201
   39DOPE  C314 5016   1.748   3.968  14.857  0.9525 -0.2806  0.3862
   39DOPE  H14X 5017   1.657   3.906  14.870  1.5055 -1.1588  0.1463
   39DOPE  H14Y 5018   1.736   4.079  14.867 -2.0712 -0.6963  3.3961
   39DOPE  C315 5019   1.853   3.913  14.954 -0.2067 -0.0045 -0.0205
   39DOPE  H15X 5020   1.954   3.937  14.915  1.0382  1.2844  3.5828
   39DOPE  H15Y 5021   1.836   3.803  14.952 -1.0069  0.0809  1.2742
   39DOPE  C316 5022   1.843   3.955  15.100  0.4818  0.0314  0.9269
   39DOPE  H16X 5023   1.750   3.916  15.147  0.6208 -1.1905  0.2426
   39DOPE  H16Y 5024   1.840   4.065  15.108  2.4843  0.2388 -0.3389
   39DOPE  C317 5025   1.962   3.909  15.187  0.1295  0.3495  0.7114
   39DOPE  H17X 5026   1.973   3.800  15.169  0.3796  0.4541  0.1751
   39DOPE  H17Y 5027   2.054   3.951  15.142  1.3868 -3.3696 -0.6199
   39DOPE  C318 5028   1.946   3.946  15.335  0.1000  0.2738  0.0439
   39DOPE  H18X 5029   1.927   4.053  15.357  0.6274  0.6886 -1.4569
   39DOPE  H18Y 5030   1.856   3.892  15.372 -0.3365 -0.5342 -2.0820
   39DOPE  H18Z 5031   2.038   3.930  15.394 -0.3340  1.2913  1.0478
   40DOPE     N 5032   3.886   6.539  13.036  0.1365  0.6941 -0.2647
   40DOPE   HN1 5033   3.784   6.534  13.057  0.3693  3.0833  1.8492
   40DOPE   HN2 5034   3.898   6.580  12.941  1.2604  0.9649 -0.0197
   40DOPE   HN3 5035   3.938   6.449  13.037 -0.2499  0.4603  1.3634
   40DOPE   C12 5036   3.939   6.628  13.148 -0.2939 -0.3840 -0.6187
   40DOPE  H12A 5037   4.048   6.610  13.160  0.2972  2.1917 -1.5931
   40DOPE  H12B 5038   3.892   6.598  13.244  1.0481 -0.9757 -0.1188
   40DOPE   C11 5039   3.923   6.777  13.125  0.4021  0.5656  0.1239
   40DOPE  H11A 5040   3.957   6.828  13.218 -0.1703  0.1413  0.5709
   40DOPE  H11B 5041   3.813   6.793  13.130  0.5876  1.5608  2.1261
   40DOPE     P 5042   4.130   6.879  12.985 -0.2003  0.2038  0.2453
   40DOPE   O13 5043   4.126   7.022  12.942  0.0797  0.3965 -0.2307
   40DOPE   O14 5044   4.198   6.786  12.894 -0.4987 -0.5323  0.7151
   40DOPE   O11 5045   4.193   6.862  13.128 -0.8116  0.1560  0.2291
   40DOPE   O12 5046   3.978   6.834  13.007 -1.0105  0.6629 -0.0959
   40DOPE    C1 5047   4.222   6.966  13.215 -0.2557  1.1565 -0.1024
   40DOPE    HA 5048   4.151   7.051  13.201 -1.0427  0.4704 -0.3330
   40DOPE    HB 5049   4.327   7.003  13.209  0.0847 -0.0061 -1.8614
   40DOPE    C2 5050   4.201   6.928  13.368 -0.4632  0.1034  0.2663
   40DOPE    HS 5051   4.091   6.912  13.380 -0.1422 -3.6676 -0.5370
   40DOPE   O21 5052   4.267   7.030  13.453 -0.0560 -0.2331  0.2072
   40DOPE   C21 5053   4.195   7.071  13.556  0.2525 -0.2926  0.1646
   40DOPE   O22 5054   4.093   7.023  13.596 -0.0513  0.2874  0.4743
   40DOPE   C22 5055   4.265   7.180  13.623 -0.2816  0.0793 -0.2071
   40DOPE   H2R 5056   4.202   7.271  13.610  0.1033  0.2636 -0.8050
   40DOPE   H2S 5057   4.363   7.206  13.578 -0.8686  2.4487 -0.2533
   40DOPE    C3 5058   4.266   6.785  13.406  1.2171 -0.0453 -0.0231
   40DOPE    HX 5059   4.375   6.794  13.385  1.1068 -0.3803 -0.7756
   40DOPE    HY 5060   4.224   6.710  13.336 -0.4337  0.9941 -0.2141
   40DOPE   O31 5061   4.239   6.746  13.546  0.7312  0.8055  0.1323
   40DOPE   C31 5062   4.115   6.703  13.564  0.2963  0.3766 -0.8634
   40DOPE   O32 5063   4.032   6.680  13.480 -0.6339  0.4322  0.3235
   40DOPE   C32 5064   4.095   6.664  13.714  0.1312  0.3387  0.4989
   40DOPE   H2X 5065   3.985   6.649  13.726  0.0080 -0.3358 -1.1690
   40DOPE   H2Y 5066   4.155   6.571  13.725  0.7751  0.7547  0.5527
   40DOPE   C23 5067   4.286   7.152  13.774  0.1109  0.3640 -0.5692
   40DOPE   H3R 5068   4.396   7.156  13.790 -0.1147  2.9444  0.9626
   40DOPE   H3S 5069   4.255   7.053  13.812  2.0926 -0.4561 -0.9592
   40DOPE   C24 5070   4.211   7.265  13.848 -0.0833  0.5638 -0.1029
   40DOPE   H4R 5071   4.103   7.248  13.827  0.1982 -1.7423  0.0607
   40DOPE   H4S 5072   4.253   7.362  13.815  0.9592 -0.3204 -1.4659
   40DOPE   C25 5073   4.203   7.248  14.006 -0.2169  0.5264  0.3080
   40DOPE   H5R 5074   4.304   7.213  14.037  0.2591  0.0232 -1.7106
   40DOPE   H5S 5075   4.123   7.182  14.046 -0.5475 -0.1991 -1.4837
   40DOPE   C26 5076   4.173   7.390  14.074 -0.2422 -0.1157  0.2792
   40DOPE   H6R 5077   4.094   7.434  14.009  0.8582 -0.7057 -1.5203
   40DOPE   H6S 5078   4.268   7.446  14.064  0.0897 -0.2797  2.0485
   40DOPE   C27 5079   4.138   7.381  14.223 -0.7354  0.2205 -0.4920
   40DOPE   H7R 5080   4.228   7.348  14.279 -0.1101  0.4192 -1.3615
   40DOPE   H7S 5081   4.053   7.311  14.238  0.0187 -0.3834  1.2798
   40DOPE   C28 5082   4.109   7.514  14.296 -0.3266 -0.1338 -0.3385
   40DOPE   H8R 5083   4.038   7.578  14.239 -0.9292  1.8984  2.4485
   40DOPE   H8S 5084   4.211   7.556  14.289 -0.0867 -0.9038 -1.7956
   40DOPE   C29 5085   4.069   7.489  14.441 -0.4246 -0.2036  0.3714
   40DOPE   H9R 5086   4.117   7.400  14.485  0.0033  0.3799  1.1022
   40DOPE  C210 5087   3.974   7.557  14.503 -0.2433  0.8222 -0.1697
   40DOPE  H10R 5088   3.949   7.541  14.609  1.4320  0.1881  0.1546
   40DOPE  C211 5089   3.898   7.664  14.439  1.3277 -0.4650 -0.2290
   40DOPE  H11R 5090   3.803   7.614  14.409  1.2088 -0.3590 -0.0321
   40DOPE  H11S 5091   3.943   7.715  14.351  1.2012  1.1229  0.5891
   40DOPE  C212 5092   3.853   7.780  14.533 -0.2941 -0.0193  0.3638
   40DOPE  H12R 5093   3.837   7.869  14.468  0.7835  2.4901  3.3484
   40DOPE  H12S 5094   3.936   7.808  14.600  1.6902  0.0575 -1.9865
   40DOPE  C213 5095   3.734   7.755  14.626  0.9502  0.6351 -0.3588
   40DOPE  H13R 5096   3.724   7.644  14.629  0.0530  0.6931 -0.8679
   40DOPE  H13S 5097   3.642   7.797  14.580  0.9247 -0.3812 -1.2714
   40DOPE  C214 5098   3.752   7.838  14.762  0.2241  0.2613  0.1297
   40DOPE  H14R 5099   3.761   7.946  14.742 -0.2174  0.2181 -0.3293
   40DOPE  H14S 5100   3.842   7.795  14.811  0.5070 -0.0350 -0.6349
   40DOPE  C215 5101   3.632   7.813  14.853 -0.2847 -0.5783 -0.5557
   40DOPE  H15R 5102   3.538   7.839  14.800 -0.7601  1.5672  1.1858
   40DOPE  H15S 5103   3.631   7.886  14.937 -0.2298  0.0572 -1.0969
   40DOPE  C216 5104   3.618   7.673  14.904  0.2631 -0.5809 -0.2346
   40DOPE  H16R 5105   3.716   7.640  14.946  1.3226  2.8513  0.3342
   40DOPE  H16S 5106   3.606   7.607  14.815  1.1949 -2.8427  1.2246
   40DOPE  C217 5107   3.515   7.647  15.017 -0.2567 -0.2036  0.1914
   40DOPE  H17R 5108   3.416   7.689  14.988 -0.4039 -0.0558  0.8898
   40DOPE  H17S 5109   3.556   7.691  15.110  1.2836 -0.5611 -0.2869
   40DOPE  C218 5110   3.507   7.499  15.053  0.9165 -0.5572 -0.2117
   40DOPE  H18R 5111   3.608   7.458  15.076  1.4972  2.1569  2.7922
   40DOPE  H18S 5112   3.450   7.443  14.976 -0.7918  0.1451  0.4939
   40DOPE  H18T 5113   3.446   7.480  15.144  1.4204 -0.3320  0.1808
   40DOPE   C33 5114   4.135   6.776  13.807 -0.4552 -0.1259  0.1006
   40DOPE   H3X 5115   4.074   6.866  13.783  0.2327 -0.0664 -1.5821
   40DOPE   H3Y 5116   4.242   6.801  13.797 -0.6634  0.2519 -1.5380
   40DOPE   C34 5117   4.116   6.737  13.954 -0.0140  0.6944 -0.2987
   40DOPE   H4X 5118   4.009   6.724  13.984 -0.0107 -1.1832 -0.9203
   40DOPE   H4Y 5119   4.173   6.646  13.982 -0.4981 -0.4307 -2.7222
   40DOPE   C35 5120   4.154   6.862  14.036  0.3632  0.3081 -0.1042
   40DOPE   H5X 5121   4.098   6.951  13.999 -0.4814 -0.1229  0.1163
   40DOPE   H5Y 5122   4.260   6.892  14.019 -0.0617  1.6276 -0.5172
   40DOPE   C36 5123   4.130   6.852  14.186 -0.3475  0.4926 -0.9372
   40DOPE   H6X 5124   4.214   6.795  14.231  0.4369  2.1812 -0.1813
   40DOPE   H6Y 5125   4.030   6.807  14.204 -0.0978 -0.4711 -1.8439
   40DOPE   C37 5126   4.133   6.985  14.268 -0.3124 -0.1400 -0.2393
   40DOPE   H7X 5127   4.231   7.029  14.238  1.2451 -2.6357  0.8349
   40DOPE   H7Y 5128   4.047   7.048  14.237  1.0515  1.1570 -1.6001
   40DOPE   C38 5129   4.133   6.967  14.416  0.2056  0.4593  0.1447
   40DOPE   H8X 5130   4.167   7.061  14.465  2.0688 -0.7955  1.3677
   40DOPE   H8Y 5131   4.205   6.896  14.459 -2.8213 -2.1108  1.3482
   40DOPE   C39 5132   3.993   6.951  14.471  0.4628 -0.0393 -0.3120
   40DOPE   H9X 5133   3.908   6.983  14.408  0.2587  2.2709  1.0350
   40DOPE  C310 5134   3.968   6.922  14.600  0.3026  0.1828 -0.0199
   40DOPE  H10X 5135   3.865   6.919  14.637  0.3652  0.0836  0.1455
   40DOPE  C311 5136   4.076   6.899  14.707 -0.2103  0.0308  0.3942
   40DOPE  H11X 5137   4.153   6.976  14.686 -2.0153  2.1077  0.9948
   40DOPE  H11Y 5138   4.043   6.925  14.810 -0.5379  1.4011 -0.0352
   40DOPE  C312 5139   4.144   6.762  14.711 -0.5428 -0.5037 -0.2328
   40DOPE  H12X 5140   4.170   6.733  14.606  0.8338 -0.7326  0.1453
   40DOPE  H12Y 5141   4.062   6.697  14.748  0.5154 -1.9055 -0.2378
   40DOPE  C313 5142   4.262   6.741  14.807  0.1021 -0.0315 -0.4706
   40DOPE  H13X 5143   4.331   6.828  14.801 -2.6075  2.2597 -0.1979
   40DOPE  H13Y 5144   4.216   6.738  14.908  2.9254 -1.3748  0.9012
   40DOPE  C314 5145   4.320   6.601  14.775  0.0849  0.2382  0.1731
   40DOPE  H14X 5146   4.425   6.600  14.812  0.0304  0.7695  0.3388
   40DOPE  H14Y 5147   4.316   6.579  14.666  1.7347  1.6322 -0.2146
   40DOPE  C315 5148   4.261   6.478  14.856  0.0049  0.0404  0.1340
   40DOPE  H15X 5149   4.158   6.476  14.814  0.0722  2.0078 -0.1884
   40DOPE  H15Y 5150   4.266   6.494  14.965  0.1154  0.6227  0.0466
   40DOPE  C316 5151   4.339   6.353  14.821  0.3511 -0.1453 -0.2221
   40DOPE  H16X 5152   4.443   6.381  14.849 -0.6688  1.4048  2.3320
   40DOPE  H16Y 5153   4.342   6.334  14.711  1.2833  0.1474 -0.2638
   40DOPE  C317 5154   4.287   6.224  14.895 -0.4331  0.3466  0.0737
   40DOPE  H17X 5155   4.294   6.240  15.005  0.1806  3.2024 -0.2976
   40DOPE  H17Y 5156   4.181   6.211  14.864  0.2207 -1.2189 -1.6638
   40DOPE  C318 5157   4.368   6.089  14.874 -0.3872 -1.0016  0.4268
   40DOPE  H18X 5158   4.340   6.022  14.959 -1.6511 -0.2065  0.6688
   40DOPE  H18Y 5159   4.344   6.036  14.779  0.4940 -0.3987 -0.1361
   40DOPE  H18Z 5160   4.474   6.119  14.882 -0.2232 -1.5313  0.2828
   41DOPE     N 5161   2.269   4.673  12.693 -0.9943  0.2944  0.4485
   41DOPE   HN1 5162   2.199   4.613  12.740 -1.1990  1.5040  1.7927
   41DOPE   HN2 5163   2.231   4.766  12.721 -1.1577  0.6870 -1.0186
   41DOPE   HN3 5164   2.244   4.675  12.592  0.6844  0.5770  0.0105
   41DOPE   C12 5165   2.418   4.661  12.739  0.8824 -0.1395 -0.0506
   41DOPE  H12A 5166   2.472   4.742  12.686  0.0782  0.8042  0.5394
   41DOPE  H12B 5167   2.447   4.562  12.697  2.7276 -0.2969  1.5081
   41DOPE   C11 5168   2.448   4.665  12.886  0.3713  0.3545 -0.2988
   41DOPE  H11A 5169   2.542   4.615  12.917  0.8348 -0.5694 -2.9713
   41DOPE  H11B 5170   2.380   4.609  12.954  2.4215  0.1127  1.6440
   41DOPE     P 5171   2.400   4.881  13.043  0.1824  0.0410 -0.2802
   41DOPE   O13 5172   2.312   4.993  13.002  0.4411 -0.1262 -0.2182
   41DOPE   O14 5173   2.509   4.928  13.137 -0.8158 -0.1077  0.5580
   41DOPE   O11 5174   2.316   4.782  13.125 -0.4102  0.5057 -1.2952
   41DOPE   O12 5175   2.464   4.803  12.921  0.0346 -0.3576  0.2434
   41DOPE    C1 5176   2.368   4.693  13.228 -0.1738  0.0078  0.4673
   41DOPE    HA 5177   2.475   4.666  13.212  0.1067  1.9344 -1.1704
   41DOPE    HB 5178   2.309   4.599  13.231 -0.1948 -0.1649 -2.6792
   41DOPE    C2 5179   2.362   4.764  13.366  0.4173 -0.1044  0.2106
   41DOPE    HS 5180   2.412   4.863  13.372  1.0973 -0.3878 -0.6415
   41DOPE   O21 5181   2.398   4.671  13.469 -0.5495  0.2582 -0.2405
   41DOPE   C21 5182   2.527   4.680  13.504  0.5167 -0.0824  0.2451
   41DOPE   O22 5183   2.607   4.766  13.467  0.1693  0.0048  0.5171
   41DOPE   C22 5184   2.554   4.570  13.603 -0.0229 -0.0561 -0.4875
   41DOPE   H2R 5185   2.663   4.549  13.610 -0.2706 -1.0039  0.9727
   41DOPE   H2S 5186   2.497   4.478  13.576 -0.2113  0.2210 -1.0453
   41DOPE    C3 5187   2.210   4.813  13.379  1.0766  0.2867  0.2035
   41DOPE    HX 5188   2.145   4.725  13.365 -0.7637  1.7331 -0.7514
   41DOPE    HY 5189   2.189   4.886  13.299  0.6150  1.7175  1.5650
   41DOPE   O31 5190   2.185   4.866  13.513  0.0640  0.4060  0.4177
   41DOPE   C31 5191   2.225   4.992  13.530 -0.3999  0.1743 -0.1581
   41DOPE   O32 5192   2.270   5.063  13.445 -0.0087  0.1318  0.3042
   41DOPE   C32 5193   2.213   5.028  13.682  0.0197  0.0137 -0.1434
   41DOPE   H2X 5194   2.319   5.044  13.710  0.3470 -0.6681 -0.9222
   41DOPE   H2Y 5195   2.150   5.119  13.693 -0.1292  0.1212 -1.6196
   41DOPE   C23 5196   2.513   4.607  13.750  0.2057 -0.6060 -0.3171
   41DOPE   H3R 5197   2.529   4.520  13.817 -1.0460 -1.4888 -1.1301
   41DOPE   H3S 5198   2.403   4.624  13.739  0.2382 -0.7756 -0.9305
   41DOPE   C24 5199   2.583   4.730  13.812 -0.4232 -0.5024 -0.4333
   41DOPE   H4R 5200   2.553   4.813  13.745  0.0860  0.8491  0.9634
   41DOPE   H4S 5201   2.693   4.720  13.800 -0.5038 -2.6873  0.1644
   41DOPE   C25 5202   2.545   4.780  13.951 -0.3760  0.1377  0.0283
   41DOPE   H5R 5203   2.578   4.712  14.031 -0.5159  2.7335  2.4431
   41DOPE   H5S 5204   2.435   4.796  13.953 -0.1981  1.3658  0.4121
   41DOPE   C26 5205   2.609   4.918  13.984  0.3273  0.1276 -0.1110
   41DOPE   H6R 5206   2.567   4.942  14.084  2.4399 -3.0115  1.7092
   41DOPE   H6S 5207   2.583   4.997  13.910  0.7776 -1.1657 -1.6900
   41DOPE   C27 5208   2.761   4.913  14.002 -0.8567  0.0469  0.1663
   41DOPE   H7R 5209   2.816   4.899  13.907  0.6014 -0.8476  1.0950
   41DOPE   H7S 5210   2.804   4.833  14.066  1.8255 -0.5173 -2.1447
   41DOPE   C28 5211   2.800   5.059  14.054 -0.2535 -0.7742  0.1886
   41DOPE   H8R 5212   2.748   5.085  14.148  2.3972  1.2664  1.2192
   41DOPE   H8S 5213   2.774   5.142  13.985 -1.8552 -0.1652  1.4624
   41DOPE   C29 5214   2.950   5.050  14.077  0.4136 -0.9044 -0.1216
   41DOPE   H9R 5215   3.001   5.030  13.981 -0.1399  1.6537 -1.0402
   41DOPE  C210 5216   3.010   5.079  14.187 -0.8682  0.0181 -0.9450
   41DOPE  H10R 5217   3.120   5.080  14.192 -0.8532 -2.6806  1.3145
   41DOPE  C211 5218   2.948   5.130  14.318  0.2007  0.1495  0.5044
   41DOPE  H11R 5219   3.030   5.121  14.392 -0.6370  1.0587  1.5801
   41DOPE  H11S 5220   2.856   5.075  14.347  1.5314 -2.3357  0.2492
   41DOPE  C212 5221   2.915   5.279  14.297 -0.1635 -0.3010  0.1337
   41DOPE  H12R 5222   2.825   5.298  14.234 -1.0719 -3.8992  0.1634
   41DOPE  H12S 5223   3.004   5.328  14.252 -1.1579 -0.4043 -2.0812
   41DOPE  C213 5224   2.879   5.350  14.431  0.4661 -1.0019  0.2068
   41DOPE  H13R 5225   2.939   5.310  14.516  0.2842 -1.3788  0.1568
   41DOPE  H13S 5226   2.775   5.321  14.458 -0.3533  0.6081 -1.0408
   41DOPE  C214 5227   2.904   5.498  14.431 -0.4770 -0.0405  0.5655
   41DOPE  H14R 5228   2.844   5.541  14.514  0.5675  2.4259  0.1334
   41DOPE  H14S 5229   2.858   5.544  14.341  1.4661  1.1493  0.1300
   41DOPE  C215 5230   3.042   5.550  14.454 -0.1728  0.5892 -0.0945
   41DOPE  H15R 5231   3.116   5.488  14.397  0.6491  0.4083  1.1237
   41DOPE  H15S 5232   3.077   5.531  14.558  1.9377 -3.2829 -1.2826
   41DOPE  C216 5233   3.053   5.701  14.423  0.8627 -0.3408 -0.7765
   41DOPE  H16R 5234   2.988   5.764  14.489  2.1646  0.9944 -0.7312
   41DOPE  H16S 5235   3.020   5.723  14.320 -0.1216 -1.6220 -0.7698
   41DOPE  C217 5236   3.196   5.740  14.457  0.3008 -0.3617  0.1009
   41DOPE  H17R 5237   3.240   5.710  14.554  0.6172 -0.6315 -0.1264
   41DOPE  H17S 5238   3.198   5.851  14.449 -0.2723 -0.3031  0.6554
   41DOPE  C218 5239   3.290   5.687  14.344  0.4385  0.4788  0.3708
   41DOPE  H18R 5240   3.389   5.736  14.334  1.7143 -2.2572 -1.6945
   41DOPE  H18S 5241   3.241   5.692  14.244 -0.3026  0.5870  0.7300
   41DOPE  H18T 5242   3.313   5.579  14.355  2.0024  0.5815 -1.3662
   41DOPE   C33 5243   2.150   4.912  13.768 -0.2410 -0.0320  0.2421
   41DOPE   H3X 5244   2.200   4.813  13.756  1.0501  0.4605  1.2864
   41DOPE   H3Y 5245   2.048   4.893  13.730 -0.5272 -0.9530  1.3919
   41DOPE   C34 5246   2.152   4.941  13.914 -0.0263  0.1348  0.1623
   41DOPE   H4X 5247   2.256   4.957  13.950  0.5989 -0.4726 -1.2977
   41DOPE   H4Y 5248   2.105   5.039  13.938  0.3233  0.4379 -0.3571
   41DOPE   C35 5249   2.069   4.841  13.982  0.0594  0.0438  0.0093
   41DOPE   H5X 5250   2.118   4.742  13.965 -1.8363 -1.0994  0.7720
   41DOPE   H5Y 5251   1.968   4.825  13.938  0.3993 -0.2676 -0.6684
   41DOPE   C36 5252   2.037   4.862  14.131 -0.2645 -0.1165 -0.0324
   41DOPE   H6X 5253   1.953   4.802  14.170 -1.2621 -0.5428 -2.6286
   41DOPE   H6Y 5254   2.004   4.968  14.139  0.2680 -0.0628  1.8231
   41DOPE   C37 5255   2.160   4.860  14.225  0.4830 -0.0536  0.3982
   41DOPE   H7X 5256   2.230   4.922  14.165  0.2079 -0.7730 -0.6922
   41DOPE   H7Y 5257   2.135   4.910  14.321  1.5511  0.3100  0.4974
   41DOPE   C38 5258   2.218   4.722  14.256 -0.1982 -0.5262  0.1210
   41DOPE   H8X 5259   2.214   4.660  14.164  0.2662  1.1524 -1.0756
   41DOPE   H8Y 5260   2.149   4.677  14.331 -3.5957  2.2520 -1.0517
   41DOPE   C39 5261   2.369   4.732  14.281  0.4095 -0.7995 -0.3591
   41DOPE   H9X 5262   2.410   4.796  14.201  1.7440  1.4896  2.0063
   41DOPE  C310 5263   2.442   4.691  14.381  0.0937 -0.2445  0.4317
   41DOPE  H10X 5264   2.548   4.722  14.381 -0.1693  0.8336 -1.4594
   41DOPE  C311 5265   2.384   4.618  14.496 -0.0572 -0.5614 -0.6349
   41DOPE  H11X 5266   2.275   4.636  14.500  0.1888  0.8435  0.4862
   41DOPE  H11Y 5267   2.405   4.509  14.494 -2.3949 -1.0526 -2.5278
   41DOPE  C312 5268   2.450   4.656  14.628  0.1545 -0.0855 -0.1990
   41DOPE  H12X 5269   2.427   4.763  14.643 -0.3880 -0.2978  0.5344
   41DOPE  H12Y 5270   2.558   4.629  14.636  0.3501  0.6679 -0.2863
   41DOPE  C313 5271   2.370   4.593  14.747 -0.7832 -0.2018  0.0768
   41DOPE  H13X 5272   2.263   4.619  14.731 -0.8762 -0.1548  0.7715
   41DOPE  H13Y 5273   2.391   4.484  14.742  3.2565  0.3548  1.0100
   41DOPE  C314 5274   2.415   4.646  14.881 -0.2731 -0.0746  0.0928
   41DOPE  H14X 5275   2.424   4.757  14.882 -2.3061  0.1383  0.7616
   41DOPE  H14Y 5276   2.515   4.604  14.903 -1.1875 -3.8544 -2.0938
   41DOPE  C315 5277   2.326   4.615  15.001  0.0227 -0.3599  0.4801
   41DOPE  H15X 5278   2.343   4.511  15.034  2.0576 -0.4030 -0.5569
   41DOPE  H15Y 5279   2.220   4.631  14.971 -0.0324  1.2621  1.4006
   41DOPE  C316 5280   2.354   4.712  15.113 -0.0883 -0.3622 -0.6284
   41DOPE  H16X 5281   2.314   4.815  15.100 -0.3754 -0.2237  1.1267
   41DOPE  H16Y 5282   2.463   4.723  15.132 -0.2467 -1.5045  1.2246
   41DOPE  C317 5283   2.283   4.671  15.241 -0.0771 -0.2582  0.0097
   41DOPE  H17X 5284   2.304   4.562  15.248 -1.8631 -0.5812  0.8385
   41DOPE  H17Y 5285   2.335   4.730  15.319  0.4248  0.6124 -0.9491
   41DOPE  C318 5286   2.137   4.699  15.235  0.4752 -0.0234 -0.1939
   41DOPE  H18X 5287   2.126   4.807  15.211 -1.7973  0.1177  1.1140
   41DOPE  H18Y 5288   2.092   4.642  15.151  0.1415 -0.8902  0.5527
   41DOPE  H18Z 5289   2.079   4.692  15.330 -0.2690 -1.0315 -0.7095
   42DOPE     N 5290   2.521   3.827  12.975 -0.5415 -0.1734 -0.3979
   42DOPE   HN1 5291   2.603   3.841  12.914  0.5319  0.9103  1.2253
   42DOPE   HN2 5292   2.513   3.725  12.994  0.6992  0.1220  2.1209
   42DOPE   HN3 5293   2.434   3.866  12.934  0.3635  1.2035 -1.0609
   42DOPE   C12 5294   2.548   3.905  13.099 -0.3035  0.0465 -0.0620
   42DOPE  H12A 5295   2.629   3.855  13.155  0.6890  4.0298  2.5219
   42DOPE  H12B 5296   2.452   3.914  13.154 -1.0308  1.0233 -1.3998
   42DOPE   C11 5297   2.587   4.045  13.058 -0.5325  0.1338 -0.6036
   42DOPE  H11A 5298   2.688   4.030  13.016  0.3216 -3.0485  2.1391
   42DOPE  H11B 5299   2.597   4.094  13.158 -1.3466  0.4369 -0.6623
   42DOPE     P 5300   2.418   4.242  13.039 -0.3259 -0.1019  0.4124
   42DOPE   O13 5301   2.323   4.285  12.936 -0.4030 -0.1332  0.1378
   42DOPE   O14 5302   2.537   4.331  13.058  0.0016  0.3237 -0.6586
   42DOPE   O11 5303   2.341   4.213  13.175 -0.3701 -0.4638 -0.2211
   42DOPE   O12 5304   2.485   4.102  12.984  0.6044 -0.0636  0.3792
   42DOPE    C1 5305   2.230   4.122  13.185  0.2186  0.2183  0.3979
   42DOPE    HA 5306   2.256   4.042  13.258  1.4584  0.2387  0.0048
   42DOPE    HB 5307   2.212   4.077  13.085  0.3920  0.2365  0.3580
   42DOPE    C2 5308   2.111   4.207  13.237  0.7009  0.4401 -0.2581
   42DOPE    HS 5309   2.095   4.288  13.164  0.9750 -0.1436 -0.9736
   42DOPE   O21 5310   2.138   4.254  13.366  0.0177 -0.5742 -0.2964
   42DOPE   C21 5311   2.121   4.384  13.384  0.3146  0.4897 -1.0394
   42DOPE   O22 5312   2.076   4.462  13.304 -0.0224  0.1099  0.1545
   42DOPE   C22 5313   2.179   4.416  13.524 -0.3770 -0.0430  0.2160
   42DOPE   H2R 5314   2.192   4.526  13.522  1.1447 -0.1977 -1.7752
   42DOPE   H2S 5315   2.280   4.369  13.514  0.0883  1.0109 -0.2392
   42DOPE    C3 5316   1.981   4.121  13.243  0.4730  0.4136 -0.6457
   42DOPE    HX 5317   1.991   4.050  13.328 -0.2860  1.2108  0.1262
   42DOPE    HY 5318   1.970   4.064  13.148 -1.7266 -0.3203 -0.0205
   42DOPE   O31 5319   1.859   4.197  13.269  0.0776 -0.3072 -0.9002
   42DOPE   C31 5320   1.805   4.254  13.160 -0.0831 -0.3963 -0.5846
   42DOPE   O32 5321   1.829   4.232  13.041 -0.1520  0.0032 -0.0876
   42DOPE   C32 5322   1.683   4.331  13.203 -0.5733  0.0430  0.2688
   42DOPE   H2X 5323   1.672   4.395  13.112  1.4312  1.5296  0.9891
   42DOPE   H2Y 5324   1.594   4.269  13.225 -0.8856  1.0818  2.1587
   42DOPE   C23 5325   2.103   4.371  13.648  0.0162 -0.4502 -0.3599
   42DOPE   H3R 5326   2.086   4.261  13.647  0.5039 -0.5306 -0.2033
   42DOPE   H3S 5327   2.004   4.421  13.649 -0.1849 -0.8073 -1.3214
   42DOPE   C24 5328   2.176   4.415  13.783  0.3649  0.1370  0.8393
   42DOPE   H4R 5329   2.201   4.523  13.777 -1.1122  0.4490 -0.3733
   42DOPE   H4S 5330   2.268   4.353  13.790  0.7633  0.3084 -1.8240
   42DOPE   C25 5331   2.085   4.397  13.905  0.1309 -0.2381  0.1782
   42DOPE   H5R 5332   2.043   4.297  13.880  0.5463 -0.4547  0.3398
   42DOPE   H5S 5333   1.998   4.466  13.894 -0.5810 -1.0512  0.5908
   42DOPE   C26 5334   2.160   4.398  14.038 -0.4498  0.4243 -0.5668
   42DOPE   H6R 5335   2.196   4.501  14.059 -0.2158  0.3263 -0.4865
   42DOPE   H6S 5336   2.246   4.327  14.029 -2.0510 -1.8079  0.6702
   42DOPE   C27 5337   2.072   4.340  14.154 -0.4497 -0.0382 -0.1202
   42DOPE   H7R 5338   2.141   4.342  14.241 -0.8331 -1.1972  0.2264
   42DOPE   H7S 5339   2.060   4.232  14.131 -0.7315 -0.3962  1.5599
   42DOPE   C28 5340   1.942   4.410  14.189 -0.1189 -0.4464  0.2928
   42DOPE   H8R 5341   1.860   4.383  14.119 -1.5331  1.5688  1.0725
   42DOPE   H8S 5342   1.958   4.520  14.183 -1.1194 -0.3867 -3.0334
   42DOPE   C29 5343   1.903   4.363  14.322  0.7508  0.1899  0.0419
   42DOPE   H9R 5344   1.951   4.267  14.347  1.8989  0.8515  0.4781
   42DOPE  C210 5345   1.814   4.419  14.399  0.1299  0.2849  0.3196
   42DOPE  H10R 5346   1.799   4.375  14.499  0.8894  2.3315  1.3940
   42DOPE  C211 5347   1.735   4.537  14.374  0.2105 -0.1015 -0.1425
   42DOPE  H11R 5348   1.632   4.503  14.351  0.4345  0.0247 -1.4261
   42DOPE  H11S 5349   1.760   4.590  14.279 -0.2730  0.9867  0.3195
   42DOPE  C212 5350   1.752   4.637  14.489 -0.2834  0.3695  0.5154
   42DOPE  H12R 5351   1.698   4.615  14.583 -0.2067  0.7908  0.6583
   42DOPE  H12S 5352   1.705   4.732  14.456 -0.4806  0.2169  0.3568
   42DOPE  C213 5353   1.903   4.674  14.522  0.7837  0.0879 -0.7149
   42DOPE  H13R 5354   1.959   4.677  14.426  0.7141 -0.4658 -0.7772
   42DOPE  H13S 5355   1.945   4.588  14.578  1.3367 -0.0261 -1.2942
   42DOPE  C214 5356   1.918   4.804  14.588 -0.0134 -0.5846 -0.6039
   42DOPE  H14R 5357   1.883   4.884  14.519  1.4891  0.1765 -0.5278
   42DOPE  H14S 5358   2.026   4.823  14.602  0.0314 -2.4002  2.0849
   42DOPE  C215 5359   1.838   4.823  14.719 -0.3780 -0.6377  1.3462
   42DOPE  H15R 5360   1.886   4.758  14.796 -0.5011 -2.6038 -0.1675
   42DOPE  H15S 5361   1.738   4.778  14.704  0.1414 -0.9990 -1.4806
   42DOPE  C216 5362   1.825   4.972  14.757  0.1878 -0.2932 -0.1447
   42DOPE  H16R 5363   1.738   5.016  14.703 -1.1350 -1.9362  0.5458
   42DOPE  H16S 5364   1.908   5.032  14.714 -0.6209  0.5962 -0.5146
   42DOPE  C217 5365   1.830   4.982  14.904  0.0420 -0.1277  0.4091
   42DOPE  H17R 5366   1.930   4.961  14.948 -0.7028 -0.2035  2.1119
   42DOPE  H17S 5367   1.766   4.901  14.943  1.8615 -2.1878 -0.6468
   42DOPE  C218 5368   1.783   5.123  14.954  0.4456 -0.2875  0.0264
   42DOPE  H18R 5369   1.775   5.126  15.064 -1.6678  1.3131 -0.0935
   42DOPE  H18S 5370   1.677   5.127  14.921  0.0489 -2.3521  0.9206
   42DOPE  H18T 5371   1.847   5.205  14.914  1.4623 -0.8316  0.4969
   42DOPE   C33 5372   1.697   4.439  13.321 -0.3210  0.6009  0.3467
   42DOPE   H3X 5373   1.642   4.528  13.284  2.0840  0.9416 -2.9560
   42DOPE   H3Y 5374   1.803   4.472  13.319 -0.4462  1.0955  1.3452
   42DOPE   C34 5375   1.648   4.377  13.455 -1.1035 -0.1241  0.2491
   42DOPE   H4X 5376   1.538   4.391  13.452 -1.3143 -1.6101  0.4867
   42DOPE   H4Y 5377   1.655   4.266  13.454  0.1112 -0.0606  0.2645
   42DOPE   C35 5378   1.724   4.418  13.577  0.4665 -0.3246  0.0902
   42DOPE   H5X 5379   1.713   4.527  13.595  0.7292  0.0357 -1.7719
   42DOPE   H5Y 5380   1.830   4.414  13.545  0.1414  1.2572 -1.3075
   42DOPE   C36 5381   1.711   4.320  13.694  0.3210  0.6224 -0.8525
   42DOPE   H6X 5382   1.792   4.332  13.769 -0.6748 -0.8260  0.5292
   42DOPE   H6Y 5383   1.722   4.220  13.647 -3.4264 -0.3694  0.0508
   42DOPE   C37 5384   1.578   4.335  13.766  0.0525 -0.0254  0.0934
   42DOPE   H7X 5385   1.579   4.443  13.793  3.2383  0.4692 -1.5164
   42DOPE   H7Y 5386   1.490   4.310  13.704 -0.7890 -0.2428  1.3361
   42DOPE   C38 5387   1.561   4.242  13.883  0.4190  0.2460  0.6596
   42DOPE   H8X 5388   1.648   4.254  13.952  1.0583  2.5010 -0.4282
   42DOPE   H8Y 5389   1.581   4.141  13.842 -0.4580  1.2903 -2.5710
   42DOPE   C39 5390   1.436   4.261  13.968  0.7847 -0.4791  0.5157
   42DOPE   H9X 5391   1.434   4.353  14.029  1.2778 -0.0491 -0.1102
   42DOPE  C310 5392   1.318   4.180  13.950 -0.1218  0.2704 -0.8424
   42DOPE  H10X 5393   1.227   4.215  14.000  1.1659  1.6113  0.6870
   42DOPE  C311 5394   1.288   4.068  13.853 -0.8597  0.5592  0.6426
   42DOPE  H11X 5395   1.370   4.058  13.778 -1.2493  0.4170  0.2333
   42DOPE  H11Y 5396   1.262   3.971  13.901  0.8347 -0.7122 -0.8588
   42DOPE  C312 5397   1.165   4.102  13.763  0.6493 -0.4034 -0.1136
   42DOPE  H12X 5398   1.082   4.135  13.828 -0.7943  0.4547 -2.2801
   42DOPE  H12Y 5399   1.125   4.009  13.717 -0.0843  0.5982 -1.5608
   42DOPE  C313 5400   1.193   4.203  13.656  0.5228 -0.8137  0.1730
   42DOPE  H13X 5401   1.227   4.288  13.718 -2.2085 -1.6289  3.0224
   42DOPE  H13Y 5402   1.286   4.165  13.607  1.5346 -0.1042  1.5003
   42DOPE  C314 5403   1.071   4.235  13.565 -0.2693 -0.2727  0.2409
   42DOPE  H14X 5404   1.031   4.136  13.531 -0.9218  0.7766 -2.2617
   42DOPE  H14Y 5405   1.107   4.289  13.475  2.0372  0.8307  1.7525
   42DOPE  C315 5406   0.952   4.299  13.641  0.3854  0.3261 -0.1301
   42DOPE  H15X 5407   0.964   4.406  13.616 -0.8583  0.7493  0.9840
   42DOPE  H15Y 5408   0.955   4.283  13.751 -2.9132  0.9895  0.1639
   42DOPE  C316 5409   0.818   4.264  13.591 -0.5200  1.1212  0.0246
   42DOPE  H16X 5410   0.792   4.159  13.616 -1.0974  1.4129  0.7050
   42DOPE  H16Y 5411   0.820   4.261  13.480  3.2217  2.3115 -0.0663
   42DOPE  C317 5412   0.699   4.353  13.624  0.5496  0.2157 -0.5494
   42DOPE  H17X 5413   0.718   4.457  13.589  0.4656  0.6879  0.7817
   42DOPE  H17Y 5414   0.617   4.313  13.561 -0.4476 -0.6036  1.2050
   42DOPE  C318 5415   0.654   4.340  13.767  0.1466 -0.2815 -0.0899
   42DOPE  H18X 5416   0.637   4.236  13.804  0.0861  0.1724  1.2302
   42DOPE  H18Y 5417   0.736   4.376  13.833 -0.3048  1.1568 -0.2711
   42DOPE  H18Z 5418   0.560   4.394  13.792  0.4564  0.4000 -0.3819
   43DOPE     N 5419   1.858   2.709  12.871 -0.4939 -0.4397 -0.0842
   43DOPE   HN1 5420   1.839   2.622  12.924 -1.6215 -2.0196 -2.8194
   43DOPE   HN2 5421   1.914   2.673  12.791 -0.1156 -1.9368  0.8089
   43DOPE   HN3 5422   1.917   2.770  12.931 -0.9941 -0.5421  0.5275
   43DOPE   C12 5423   1.731   2.777  12.826 -0.7715  0.3835  0.2898
   43DOPE  H12A 5424   1.668   2.710  12.765  0.6476 -1.5074  0.8132
   43DOPE  H12B 5425   1.758   2.863  12.760 -0.3365  0.4034  0.4881
   43DOPE   C11 5426   1.655   2.815  12.948 -0.7874  0.3724 -0.3628
   43DOPE  H11A 5427   1.576   2.888  12.920 -2.0012 -0.2505  1.2918
   43DOPE  H11B 5428   1.731   2.868  13.010 -0.0836  0.6374 -1.4262
   43DOPE     P 5429   1.467   2.697  13.091  0.0813  0.2116 -0.0305
   43DOPE   O13 5430   1.381   2.589  13.038 -0.3041 -0.3869 -0.1360
   43DOPE   O14 5431   1.408   2.832  13.086 -0.0105  0.0875  0.1852
   43DOPE   O11 5432   1.502   2.665  13.240  0.2412 -0.5678 -0.1084
   43DOPE   O12 5433   1.599   2.698  13.013 -0.2481  0.0177  0.7727
   43DOPE    C1 5434   1.633   2.705  13.290  0.0334  0.5949  0.7352
   43DOPE    HA 5435   1.659   2.809  13.263  2.5197  0.0841  0.9612
   43DOPE    HB 5436   1.718   2.647  13.250  0.8307  0.4344  2.5472
   43DOPE    C2 5437   1.636   2.696  13.446 -0.3028 -0.2632 -0.2502
   43DOPE    HS 5438   1.733   2.740  13.477  0.6269 -1.1016 -1.8643
   43DOPE   O21 5439   1.624   2.561  13.491 -0.4486  0.2262  0.0806
   43DOPE   C21 5440   1.714   2.478  13.457 -0.3778 -0.3177 -0.6517
   43DOPE   O22 5441   1.818   2.503  13.394  0.0587  0.2054  0.3854
   43DOPE   C22 5442   1.691   2.343  13.525  0.4151 -0.0034  0.3622
   43DOPE   H2R 5443   1.792   2.297  13.524 -0.6309 -2.4806  0.3959
   43DOPE   H2S 5444   1.631   2.275  13.461  0.1544  0.9526 -0.4141
   43DOPE    C3 5445   1.519   2.783  13.508 -0.1705 -0.1848  0.7149
   43DOPE    HX 5446   1.434   2.731  13.459  0.2760  2.2009 -2.9630
   43DOPE    HY 5447   1.513   2.887  13.470 -1.8798  0.1836  1.9064
   43DOPE   O31 5448   1.517   2.791  13.649  0.3199 -0.5880 -0.1325
   43DOPE   C31 5449   1.446   2.706  13.722  0.1523  0.2985  0.5970
   43DOPE   O32 5450   1.374   2.616  13.675  0.2742 -0.2833  0.2079
   43DOPE   C32 5451   1.470   2.727  13.874 -0.0320  0.1821  0.1518
   43DOPE   H2X 5452   1.421   2.639  13.920  1.0842  0.6691  2.4221
   43DOPE   H2Y 5453   1.579   2.710  13.888 -0.0545  0.2278  0.3833
   43DOPE   C23 5454   1.626   2.344  13.666 -0.5225  0.2993  0.4339
   43DOPE   H3R 5455   1.619   2.237  13.697 -1.1460  0.4172  0.7258
   43DOPE   H3S 5456   1.518   2.369  13.656 -0.5217 -0.2452 -1.2470
   43DOPE   C24 5457   1.703   2.420  13.769  0.1638  0.4782  0.0608
   43DOPE   H4R 5458   1.696   2.529  13.754 -2.6375  0.0041 -3.3300
   43DOPE   H4S 5459   1.810   2.388  13.774 -0.3188 -1.2782 -0.1015
   43DOPE   C25 5460   1.643   2.374  13.910 -0.5574  0.8314 -0.3912
   43DOPE   H5R 5461   1.674   2.270  13.932  2.5969  1.6090 -0.7129
   43DOPE   H5S 5462   1.532   2.379  13.917 -0.5662  1.3593 -0.8608
   43DOPE   C26 5463   1.714   2.455  14.022 -0.4268  0.2176  0.8578
   43DOPE   H6R 5464   1.701   2.563  13.999 -0.3758 -0.3229 -2.0618
   43DOPE   H6S 5465   1.819   2.419  14.011 -1.3943 -2.6024 -0.1267
   43DOPE   C27 5466   1.664   2.416  14.158  1.1943 -0.5371 -0.5880
   43DOPE   H7R 5467   1.671   2.307  14.175  1.6395 -0.5539 -0.8751
   43DOPE   H7S 5468   1.561   2.458  14.158  0.7810 -1.5293 -0.6644
   43DOPE   C28 5469   1.742   2.477  14.284 -0.1828  0.0607  0.0232
   43DOPE   H8R 5470   1.850   2.451  14.277  0.2999  2.1186 -0.9383
   43DOPE   H8S 5471   1.698   2.420  14.369  0.7864 -0.6859  0.0364
   43DOPE   C29 5472   1.715   2.628  14.296 -0.4049 -0.6021 -0.9885
   43DOPE   H9R 5473   1.761   2.695  14.223  0.4514  0.5455  0.5518
   43DOPE  C210 5474   1.642   2.697  14.385 -0.0416 -0.0171  0.5393
   43DOPE  H10R 5475   1.626   2.805  14.368  2.9404  0.1794 -1.8588
   43DOPE  C211 5476   1.566   2.623  14.500  0.2597  0.2915  0.2414
   43DOPE  H11R 5477   1.571   2.671  14.599 -1.0321  0.3692  0.2846
   43DOPE  H11S 5478   1.598   2.517  14.511  1.0045  0.6182  1.3588
   43DOPE  C212 5479   1.412   2.615  14.476  0.0863 -0.5712  0.1866
   43DOPE  H12R 5480   1.378   2.540  14.551  0.3087 -0.3755  0.4832
   43DOPE  H12S 5481   1.402   2.560  14.380 -2.5391  2.0781 -1.2228
   43DOPE  C213 5482   1.340   2.749  14.491 -0.3533 -0.0567 -0.4899
   43DOPE  H13R 5483   1.359   2.805  14.396 -1.6129  2.2629  0.5216
   43DOPE  H13S 5484   1.398   2.810  14.564  2.4177 -2.0062 -0.9289
   43DOPE  C214 5485   1.190   2.757  14.518 -0.6711 -0.1735 -0.4453
   43DOPE  H14R 5486   1.170   2.735  14.625 -0.9666  0.9460 -0.2532
   43DOPE  H14S 5487   1.134   2.681  14.459 -3.3476  1.3912 -0.0647
   43DOPE  C215 5488   1.126   2.887  14.483 -0.1900 -0.4905 -0.1912
   43DOPE  H15R 5489   1.128   2.898  14.372  1.4401 -0.0447 -0.1410
   43DOPE  H15S 5490   1.200   2.966  14.509 -0.2315 -0.0070 -1.4386
   43DOPE  C216 5491   0.992   2.914  14.543  0.5601 -0.6926 -0.1318
   43DOPE  H16R 5492   0.932   2.822  14.528  0.2566 -0.5356  0.1123
   43DOPE  H16S 5493   0.945   2.998  14.489  1.1687  0.3588  0.9046
   43DOPE  C217 5494   1.001   2.948  14.696  0.6954  0.1082 -0.5763
   43DOPE  H17R 5495   1.061   3.041  14.698  1.2200 -0.2172  1.9277
   43DOPE  H17S 5496   1.053   2.875  14.761  0.1146  1.3944  1.4267
   43DOPE  C218 5497   0.865   2.958  14.776  0.8631 -0.7910  0.2279
   43DOPE  H18R 5498   0.882   2.945  14.885 -3.3757 -0.2474  1.1101
   43DOPE  H18S 5499   0.802   2.878  14.733  1.1746 -0.5925 -0.6106
   43DOPE  H18T 5500   0.834   3.062  14.755  0.4496 -1.2561 -1.6602
   43DOPE   C33 5501   1.427   2.862  13.929  0.3915  0.6835 -0.0642
   43DOPE   H3X 5502   1.318   2.857  13.950  0.1662 -1.4714 -1.4560
   43DOPE   H3Y 5503   1.432   2.946  13.857  1.2495  0.0153 -0.8098
   43DOPE   C34 5504   1.507   2.901  14.060  0.7473  0.3267  0.1203
   43DOPE   H4X 5505   1.539   2.807  14.109  0.7194 -0.3798 -1.1550
   43DOPE   H4Y 5506   1.603   2.944  14.025  2.1910 -1.7801  1.2714
   43DOPE   C35 5507   1.428   2.980  14.163 -0.0406 -0.2668  0.7400
   43DOPE   H5X 5508   1.487   2.983  14.257  0.1344 -2.4513  0.7596
   43DOPE   H5Y 5509   1.330   2.933  14.185 -0.6382  0.8085  0.4487
   43DOPE   C36 5510   1.400   3.121  14.117 -0.9263 -0.4129  0.5620
   43DOPE   H6X 5511   1.316   3.164  14.177  0.5334  0.1836  2.2740
   43DOPE   H6Y 5512   1.375   3.133  14.010  1.5967 -0.2326 -0.0620
   43DOPE   C37 5513   1.522   3.208  14.129 -0.5307  0.4533 -0.0122
   43DOPE   H7X 5514   1.571   3.195  14.228 -0.9991  2.8048  0.5847
   43DOPE   H7Y 5515   1.601   3.178  14.057 -1.0032 -0.1767 -0.2765
   43DOPE   C38 5516   1.482   3.353  14.108  0.1003 -0.4242  0.3713
   43DOPE   H8X 5517   1.411   3.379  14.190  0.2114  0.7663  0.1091
   43DOPE   H8Y 5518   1.429   3.368  14.011  0.8042  0.2917  0.0871
   43DOPE   C39 5519   1.597   3.447  14.089  0.2165 -0.2592  0.1339
   43DOPE   H9X 5520   1.657   3.425  13.999  0.8043 -0.6553  0.6130
   43DOPE  C310 5521   1.650   3.542  14.173  0.3902 -0.4972 -0.6797
   43DOPE  H10X 5522   1.746   3.583  14.140 -0.0637  0.8283 -0.4219
   43DOPE  C311 5523   1.598   3.574  14.308  0.1935  0.0169  0.2094
   43DOPE  H11X 5524   1.571   3.681  14.312  0.8438  0.1604  0.9422
   43DOPE  H11Y 5525   1.506   3.514  14.327  0.7354 -1.1040 -0.5834
   43DOPE  C312 5526   1.707   3.537  14.408  0.2039 -0.9474 -0.0096
   43DOPE  H12X 5527   1.794   3.605  14.394 -0.8604  0.0121 -2.6746
   43DOPE  H12Y 5528   1.751   3.435  14.399  2.7826  0.2560 -3.0236
   43DOPE  C313 5529   1.656   3.572  14.549  0.0180 -0.2989  0.3533
   43DOPE  H13X 5530   1.620   3.675  14.568 -0.6674 -0.8184  2.0281
   43DOPE  H13Y 5531   1.572   3.499  14.558 -1.5422  1.3262 -0.4172
   43DOPE  C314 5532   1.751   3.531  14.660  0.3212 -0.3558  0.6340
   43DOPE  H14X 5533   1.845   3.590  14.651 -0.2243  0.5033  0.5304
   43DOPE  H14Y 5534   1.792   3.428  14.652  1.6810  0.1059  1.3058
   43DOPE  C315 5535   1.688   3.542  14.800  0.4741  0.4428 -0.4004
   43DOPE  H15X 5536   1.592   3.486  14.796  0.6578  0.1621 -1.0940
   43DOPE  H15Y 5537   1.677   3.648  14.830  0.6420 -0.0957  1.7566
   43DOPE  C316 5538   1.776   3.481  14.913 -0.0169  0.0198  0.0708
   43DOPE  H16X 5539   1.728   3.519  15.006 -0.3118  1.3394 -0.5892
   43DOPE  H16Y 5540   1.881   3.509  14.894  0.0149 -0.0720  0.1120
   43DOPE  C317 5541   1.773   3.321  14.930 -0.4898  0.9250  0.5598
   43DOPE  H17X 5542   1.778   3.280  14.827 -0.8034 -1.0832  1.3186
   43DOPE  H17Y 5543   1.859   3.291  14.994 -1.3794 -2.0965  0.4755
   43DOPE  C318 5544   1.652   3.290  15.013 -0.5409  0.4199  0.0874
   43DOPE  H18X 5545   1.557   3.289  14.955 -0.9146 -1.8217  0.6472
   43DOPE  H18Y 5546   1.658   3.183  15.041 -2.2204  0.5776  1.2033
   43DOPE  H18Z 5547   1.650   3.355  15.104  1.1652  0.1679  0.3339
   44DOPE     N 5548   3.895   1.249  13.124  0.8799 -0.1037  0.1297
   44DOPE   HN1 5549   3.970   1.212  13.063 -0.6374 -0.6762 -1.4667
   44DOPE   HN2 5550   3.833   1.296  13.055  0.5327 -0.0321  0.4872
   44DOPE   HN3 5551   3.931   1.335  13.171  0.5276  1.3780 -2.1447
   44DOPE   C12 5552   3.817   1.156  13.210 -0.1210 -0.1379 -0.2452
   44DOPE  H12A 5553   3.755   1.216  13.280 -0.3101 -0.0224 -0.5132
   44DOPE  H12B 5554   3.894   1.101  13.268 -0.3367 -1.6751 -1.3427
   44DOPE   C11 5555   3.743   1.052  13.124  0.1221 -0.1376 -0.1809
   44DOPE  H11A 5556   3.700   0.975  13.190  0.8912 -0.8639 -0.5109
   44DOPE  H11B 5557   3.818   0.998  13.062 -1.4375  0.0566 -2.3675
   44DOPE     P 5558   3.507   1.139  13.064  0.1845  0.1269  0.0945
   44DOPE   O13 5559   3.442   1.005  13.069 -0.6672  0.4766  0.3405
   44DOPE   O14 5560   3.435   1.242  12.980 -0.3454  0.7325  0.1718
   44DOPE   O11 5561   3.521   1.189  13.219 -0.9219 -0.3078 -0.4678
   44DOPE   O12 5562   3.656   1.117  13.023  0.2958  0.1417  0.0821
   44DOPE    C1 5563   3.418   1.147  13.310  0.3439  0.4526  0.2920
   44DOPE    HA 5564   3.452   1.048  13.348 -0.0505  1.0544  2.3881
   44DOPE    HB 5565   3.318   1.133  13.264  0.8430 -0.3872 -0.5652
   44DOPE    C2 5566   3.403   1.239  13.436 -0.0493  0.5273  0.0560
   44DOPE    HS 5567   3.370   1.341  13.405  1.9635  1.1397 -0.2235
   44DOPE   O21 5568   3.534   1.245  13.497 -0.5617 -0.4423  1.0902
   44DOPE   C21 5569   3.571   1.354  13.563  0.2062 -0.2227  0.1387
   44DOPE   O22 5570   3.508   1.455  13.571 -0.3209 -0.3715 -0.7086
   44DOPE   C22 5571   3.710   1.331  13.634  0.0963  0.5825  0.0284
   44DOPE   H2R 5572   3.793   1.345  13.562 -0.2751 -0.6981 -0.6736
   44DOPE   H2S 5573   3.714   1.224  13.664 -1.8878  0.3305 -0.4420
   44DOPE    C3 5574   3.295   1.183  13.533  0.2498  0.0404 -0.5604
   44DOPE    HX 5575   3.326   1.085  13.574  2.4697  1.3107  1.0422
   44DOPE    HY 5576   3.197   1.171  13.482  1.5656  0.0357 -3.2049
   44DOPE   O31 5577   3.280   1.254  13.658  0.1703 -0.2557  0.2348
   44DOPE   C31 5578   3.214   1.369  13.650  0.0501 -0.1238  0.2130
   44DOPE   O32 5579   3.175   1.420  13.543  0.0926  0.4460 -0.4293
   44DOPE   C32 5580   3.209   1.429  13.796 -0.0442  0.6862 -0.2439
   44DOPE   H2X 5581   3.167   1.349  13.861 -1.0416 -1.0869 -2.9396
   44DOPE   H2Y 5582   3.316   1.443  13.826 -0.3064  1.9283  0.1846
   44DOPE   C23 5583   3.743   1.407  13.768  0.5284 -0.2475  0.2591
   44DOPE   H3R 5584   3.650   1.408  13.829 -0.4477  1.2301 -1.1534
   44DOPE   H3S 5585   3.769   1.513  13.749 -0.1751 -0.1800 -0.3988
   44DOPE   C24 5586   3.864   1.345  13.842  0.2146 -0.4513  0.0885
   44DOPE   H4R 5587   3.955   1.338  13.778  0.4692  2.0488  0.0498
   44DOPE   H4S 5588   3.830   1.249  13.886 -0.9340 -0.5543 -0.9736
   44DOPE   C25 5589   3.904   1.437  13.963 -0.1826  0.1110  0.4124
   44DOPE   H5R 5590   3.815   1.471  14.020 -0.9613  1.0095 -1.2458
   44DOPE   H5S 5591   3.942   1.538  13.938 -1.1072 -0.1005 -2.1340
   44DOPE   C26 5592   4.000   1.362  14.049  0.6081 -0.0380 -0.0801
   44DOPE   H6R 5593   4.100   1.361  14.002 -0.2205  1.2174 -1.9964
   44DOPE   H6S 5594   3.961   1.261  14.075  0.2790 -0.2301 -1.2751
   44DOPE   C27 5595   4.022   1.436  14.183 -0.2276 -0.6200 -0.0873
   44DOPE   H7R 5596   3.942   1.411  14.256  0.8698  0.0670  1.3923
   44DOPE   H7S 5597   4.036   1.544  14.164  0.9808 -0.6169  0.6872
   44DOPE   C28 5598   4.159   1.402  14.256 -0.3855 -0.4707 -0.6132
   44DOPE   H8R 5599   4.245   1.453  14.208  0.4083 -0.3815  0.8528
   44DOPE   H8S 5600   4.179   1.293  14.245 -1.7139 -0.6829 -1.0847
   44DOPE   C29 5601   4.163   1.450  14.399 -0.3178 -0.1630 -0.9004
   44DOPE   H9R 5602   4.144   1.557  14.413  1.8160  0.9159 -4.7855
   44DOPE  C210 5603   4.187   1.368  14.503 -0.3510 -0.3010  0.0062
   44DOPE  H10R 5604   4.197   1.410  14.604  1.3477  0.6756 -0.5185
   44DOPE  C211 5605   4.213   1.215  14.498  0.1099  0.2383  0.0451
   44DOPE  H11R 5606   4.252   1.182  14.399  1.1861 -0.2045  0.6060
   44DOPE  H11S 5607   4.119   1.165  14.530  0.6433  0.1519  1.5577
   44DOPE  C212 5608   4.319   1.168  14.604  0.2164 -1.0353 -0.3620
   44DOPE  H12R 5609   4.323   1.060  14.579 -1.5577 -0.9633 -1.0348
   44DOPE  H12S 5610   4.287   1.185  14.709  2.7392  1.7504  0.1192
   44DOPE  C213 5611   4.452   1.241  14.584  0.1206  0.2353  0.0122
   44DOPE  H13R 5612   4.445   1.347  14.616 -2.1932 -0.2533  1.3365
   44DOPE  H13S 5613   4.476   1.234  14.475 -1.0777 -2.2008 -0.1693
   44DOPE  C214 5614   4.570   1.164  14.654 -0.2375  0.5996  0.3352
   44DOPE  H14R 5615   4.516   1.106  14.732 -1.1152 -2.9854 -2.6644
   44DOPE  H14S 5616   4.646   1.240  14.684  0.5970  0.4595 -1.3214
   44DOPE  C215 5617   4.637   1.062  14.555 -0.2221  0.0078 -0.0485
   44DOPE  H15R 5618   4.693   1.115  14.474  1.9260 -0.5297  1.0029
   44DOPE  H15S 5619   4.555   1.001  14.513 -0.9364  0.8711  0.0682
   44DOPE  C216 5620   4.730   0.962  14.628  0.2538 -0.2357  0.2067
   44DOPE  H16R 5621   4.666   0.884  14.674 -0.3105  0.2686  0.2986
   44DOPE  H16S 5622   4.778   1.018  14.711  2.3031 -1.5210 -0.0468
   44DOPE  C217 5623   4.831   0.897  14.530  0.0443 -0.1435 -0.2859
   44DOPE  H17R 5624   4.892   0.971  14.475 -0.6236  0.6266 -0.0115
   44DOPE  H17S 5625   4.769   0.850  14.450  0.2131 -0.0816 -0.4512
   44DOPE  C218 5626   4.919   0.789  14.598  0.4136  0.0576  0.0615
   44DOPE  H18R 5627   4.985   0.831  14.677 -0.5402  0.2526  0.7741
   44DOPE  H18S 5628   4.990   0.744  14.525  0.5346  0.0402  0.1897
   44DOPE  H18T 5629   4.857   0.705  14.636  0.2134  0.0198 -0.3462
   44DOPE   C33 5630   3.142   1.567  13.804 -0.0472  0.6013  0.3053
   44DOPE   H3X 5631   3.164   1.632  13.716  0.2237 -0.5539 -0.5124
   44DOPE   H3Y 5632   3.170   1.616  13.899  1.2504 -1.4897  1.0735
   44DOPE   C34 5633   2.981   1.547  13.816 -0.2666  0.4169  0.4718
   44DOPE   H4X 5634   2.944   1.502  13.722 -1.7662  0.9307  0.7895
   44DOPE   H4Y 5635   2.959   1.474  13.897 -1.8874  0.7790  0.3894
   44DOPE   C35 5636   2.915   1.680  13.855  0.2098 -0.3781  0.6172
   44DOPE   H5X 5637   2.921   1.752  13.770 -1.3490 -0.3011  0.5341
   44DOPE   H5Y 5638   2.974   1.717  13.941  0.3605 -1.1318  0.8457
   44DOPE   C36 5639   2.768   1.674  13.893  0.0132  1.3850  0.3556
   44DOPE   H6X 5640   2.752   1.591  13.965 -0.5247 -0.3032 -1.6204
   44DOPE   H6Y 5641   2.699   1.644  13.812  1.1998  0.8841 -0.4948
   44DOPE   C37 5642   2.707   1.799  13.955 -0.5773  0.5547  0.0297
   44DOPE   H7X 5643   2.730   1.889  13.893 -2.6655  0.2064 -1.4008
   44DOPE   H7Y 5644   2.598   1.796  13.933 -0.1416  0.9407 -2.5787
   44DOPE   C38 5645   2.750   1.828  14.098 -0.3152  0.1455 -0.0333
   44DOPE   H8X 5646   2.861   1.821  14.090 -0.4068 -2.5725  0.2135
   44DOPE   H8Y 5647   2.718   1.748  14.167 -1.9070 -0.9586 -1.9418
   44DOPE   C39 5648   2.700   1.967  14.144  0.6860 -0.6569 -0.5181
   44DOPE   H9X 5649   2.592   1.979  14.132  0.4183 -0.9793  1.2836
   44DOPE  C310 5650   2.765   2.073  14.199 -0.5682  0.2538 -0.1658
   44DOPE  H10X 5651   2.701   2.155  14.233  1.3822  2.2496 -1.0485
   44DOPE  C311 5652   2.917   2.079  14.239 -0.2220  0.0557 -0.3792
   44DOPE  H11X 5653   2.969   1.981  14.226 -0.1153 -0.0193  0.5768
   44DOPE  H11Y 5654   2.968   2.160  14.183 -0.1613  0.7406  0.6568
   44DOPE  C312 5655   2.935   2.113  14.392  0.0205  0.5305  0.4321
   44DOPE  H12X 5656   2.872   2.200  14.419 -1.7572 -0.3390 -0.7192
   44DOPE  H12Y 5657   3.043   2.127  14.417  0.6677 -0.8092 -1.3647
   44DOPE  C313 5658   2.882   1.993  14.484 -0.5015 -0.9269 -0.0369
   44DOPE  H13X 5659   2.772   1.979  14.477 -0.7502  1.0858 -0.7075
   44DOPE  H13Y 5660   2.923   1.898  14.444  0.8514 -0.3446 -0.0814
   44DOPE  C314 5661   2.907   2.006  14.637 -0.0606 -0.4724 -0.1408
   44DOPE  H14X 5662   2.853   2.097  14.670  1.1103 -0.4810  1.9155
   44DOPE  H14Y 5663   3.013   2.024  14.664  0.6468  1.5563 -3.6597
   44DOPE  C315 5664   2.858   1.888  14.713  0.3857  0.8820 -0.3786
   44DOPE  H15X 5665   2.902   1.800  14.661 -0.3904 -0.2637  0.8474
   44DOPE  H15Y 5666   2.748   1.888  14.726  0.5161  1.6763  0.8802
   44DOPE  C316 5667   2.911   1.892  14.860  0.0111 -0.0428 -0.1750
   44DOPE  H16X 5668   2.879   1.989  14.903  2.9952 -0.3028  3.0325
   44DOPE  H16Y 5669   3.019   1.888  14.837  0.0366  1.9168 -0.5789
   44DOPE  C317 5670   2.868   1.767  14.945 -0.1605  0.2317  0.0259
   44DOPE  H17X 5671   2.844   1.793  15.050 -0.4843 -1.9427  0.5321
   44DOPE  H17Y 5672   2.781   1.723  14.891  0.2598  1.0307 -1.3734
   44DOPE  C318 5673   2.975   1.659  14.956 -0.0595  0.1516  0.3994
   44DOPE  H18X 5674   3.059   1.692  15.020 -0.2917 -1.7783  1.7997
   44DOPE  H18Y 5675   2.933   1.564  14.996 -0.2197  1.0450  2.4718
   44DOPE  H18Z 5676   3.002   1.643  14.850  0.0276  2.2838  0.0553
   45DOPE     N 5677   4.334   1.293  13.003  0.2533  0.5107  0.8228
   45DOPE   HN1 5678   4.329   1.189  13.010  1.3142  0.2937 -0.9969
   45DOPE   HN2 5679   4.432   1.319  12.983  0.3506 -1.6316 -2.1220
   45DOPE   HN3 5680   4.314   1.327  13.099  1.6137 -1.4380  1.8661
   45DOPE   C12 5681   4.243   1.354  12.896  0.3892  0.7349 -0.3947
   45DOPE  H12A 5682   4.156   1.285  12.885  1.2458 -0.5138  0.3542
   45DOPE  H12B 5683   4.295   1.349  12.798 -0.0899 -0.8377 -0.5995
   45DOPE   C11 5684   4.197   1.500  12.935 -0.0409  0.1202 -0.2161
   45DOPE  H11A 5685   4.127   1.544  12.861  0.3528 -0.4829 -0.9632
   45DOPE  H11B 5686   4.291   1.559  12.936  0.2609 -0.2129 -2.5576
   45DOPE     P 5687   4.035   1.584  13.127 -0.0390  0.3735  0.2751
   45DOPE   O13 5688   3.935   1.497  13.195 -0.3874 -0.0940  0.1218
   45DOPE   O14 5689   3.980   1.666  13.016  0.2977 -0.4795 -0.0343
   45DOPE   O11 5690   4.121   1.668  13.236  0.6105 -0.6247  0.1492
   45DOPE   O12 5691   4.147   1.488  13.072 -0.2665  0.5349 -0.1753
   45DOPE    C1 5692   4.049   1.700  13.359 -0.5197 -0.4344  0.9087
   45DOPE    HA 5693   4.132   1.728  13.427  1.3160 -0.8296 -1.0446
   45DOPE    HB 5694   3.994   1.613  13.401  0.9852 -1.6051  0.5600
   45DOPE    C2 5695   3.950   1.819  13.349 -0.0330  0.3082 -0.9206
   45DOPE    HS 5696   3.873   1.786  13.276  1.2436 -2.7398 -1.0274
   45DOPE   O21 5697   4.023   1.939  13.308 -0.3250 -0.0137  0.7156
   45DOPE   C21 5698   3.939   2.030  13.251 -1.5286 -0.6148 -1.4670
   45DOPE   O22 5699   3.817   2.020  13.235 -0.8557 -0.2709 -0.2206
   45DOPE   C22 5700   4.021   2.154  13.223  1.2444 -0.1649  0.0429
   45DOPE   H2R 5701   3.966   2.234  13.168  0.1761 -0.4583  0.6446
   45DOPE   H2S 5702   4.097   2.127  13.147  1.1051 -0.2811 -0.0560
   45DOPE    C3 5703   3.868   1.838  13.485  0.0862 -0.1717 -0.1258
   45DOPE    HX 5704   3.816   1.742  13.509  1.3850 -1.0888 -0.8610
   45DOPE    HY 5705   3.789   1.909  13.452 -0.2483 -0.8066 -0.7198
   45DOPE   O31 5706   3.935   1.892  13.597 -0.3507 -0.1315 -0.9336
   45DOPE   C31 5707   4.016   1.824  13.670  0.1453  0.2029  0.6236
   45DOPE   O32 5708   4.027   1.703  13.671 -0.1001  0.5802 -0.1924
   45DOPE   C32 5709   4.097   1.921  13.750  0.2138  0.2223  0.0791
   45DOPE   H2X 5710   4.121   2.010  13.688 -1.0293  0.6327  0.1632
   45DOPE   H2Y 5711   4.038   1.962  13.834 -1.6075  0.2565 -1.1547
   45DOPE   C23 5712   4.085   2.217  13.351  0.6611 -0.6075  0.4736
   45DOPE   H3R 5713   4.180   2.247  13.302 -0.0984 -2.2186 -2.1624
   45DOPE   H3S 5714   4.113   2.140  13.426 -0.6148 -0.3297  1.2704
   45DOPE   C24 5715   4.005   2.324  13.417 -0.2082  0.2615  0.3419
   45DOPE   H4R 5716   3.984   2.408  13.347  3.1382  2.4342  1.7239
   45DOPE   H4S 5717   4.059   2.388  13.489 -3.2331  2.3962  0.8999
   45DOPE   C25 5718   3.885   2.270  13.491  0.1514 -0.5919 -0.0710
   45DOPE   H5R 5719   3.903   2.227  13.591 -0.0901  0.1189  0.2838
   45DOPE   H5S 5720   3.813   2.216  13.425 -1.8650  1.5557  0.2565
   45DOPE   C26 5721   3.791   2.389  13.535 -0.0290 -0.0493  0.0998
   45DOPE   H6R 5722   3.690   2.349  13.559  0.2437 -0.2450  0.9338
   45DOPE   H6S 5723   3.774   2.450  13.443 -0.1808  0.5440  0.5196
   45DOPE   C27 5724   3.856   2.490  13.635 -0.7592  0.0038 -0.2247
   45DOPE   H7R 5725   3.792   2.579  13.650  0.1960  0.4243  1.6374
   45DOPE   H7S 5726   3.948   2.519  13.579 -0.9373  0.5275 -0.2516
   45DOPE   C28 5727   3.873   2.427  13.772  0.2473  0.5553 -0.4309
   45DOPE   H8R 5728   3.931   2.503  13.828  1.0618 -1.5577  1.7631
   45DOPE   H8S 5729   3.949   2.347  13.783 -0.4737  0.1148  2.0275
   45DOPE   C29 5730   3.748   2.389  13.845  0.0692 -1.2432  0.4505
   45DOPE   H9R 5731   3.668   2.464  13.839  0.5383 -0.8183 -0.9715
   45DOPE  C210 5732   3.728   2.270  13.901  0.6902  0.3842 -0.4425
   45DOPE  H10R 5733   3.636   2.253  13.959  1.0884 -1.0049 -0.1918
   45DOPE  C211 5734   3.824   2.154  13.901  0.2175  0.3509  0.0886
   45DOPE  H11R 5735   3.927   2.179  13.933  1.1288 -0.4568 -2.0984
   45DOPE  H11S 5736   3.843   2.118  13.798  2.5122  0.1207  0.5401
   45DOPE  C212 5737   3.772   2.039  13.987 -0.1589  1.0212  1.0734
   45DOPE  H12R 5738   3.839   1.958  13.953 -0.1546  2.3453 -2.5092
   45DOPE  H12S 5739   3.666   2.008  13.974 -0.4291  1.7066  1.5758
   45DOPE  C213 5740   3.794   2.062  14.137  0.8800  0.0693 -0.8442
   45DOPE  H13R 5741   3.723   2.139  14.176  1.3718 -1.1077  2.7942
   45DOPE  H13S 5742   3.895   2.109  14.147  0.0942  1.5615  0.8724
   45DOPE  C214 5743   3.798   1.930  14.223  0.8407  0.0977 -0.7031
   45DOPE  H14R 5744   3.892   1.878  14.195  0.0240 -2.4931  0.9977
   45DOPE  H14S 5745   3.716   1.864  14.189 -0.3375 -0.4188  2.7432
   45DOPE  C215 5746   3.779   1.947  14.376 -0.0979 -0.0909 -0.2459
   45DOPE  H15R 5747   3.681   1.989  14.407  0.9206  0.8419  1.8958
   45DOPE  H15S 5748   3.846   2.033  14.397 -0.0998  0.1014 -1.0004
   45DOPE  C216 5749   3.822   1.822  14.448  0.2476  0.3548 -0.0022
   45DOPE  H16R 5750   3.827   1.830  14.559 -0.2494 -0.4923  0.0873
   45DOPE  H16S 5751   3.927   1.806  14.414  0.0505  0.0073 -0.4435
   45DOPE  C217 5752   3.735   1.698  14.414 -0.1214 -0.4038 -0.9444
   45DOPE  H17R 5753   3.733   1.682  14.304 -1.3003 -1.3249 -0.8051
   45DOPE  H17S 5754   3.628   1.723  14.430  0.4029  0.5028  1.6826
   45DOPE  C218 5755   3.770   1.573  14.493 -0.3858  0.9106 -0.0902
   45DOPE  H18R 5756   3.759   1.591  14.602 -1.3804 -0.4923  0.0780
   45DOPE  H18S 5757   3.868   1.532  14.462 -0.3089  1.3972 -0.4926
   45DOPE  H18T 5758   3.696   1.493  14.472  0.6479 -0.3601  0.9102
   45DOPE   C33 5759   4.243   1.873  13.794  0.2827  1.0083  0.1141
   45DOPE   H3X 5760   4.299   1.964  13.824  0.8186  0.5323  0.6053
   45DOPE   H3Y 5761   4.296   1.829  13.707 -5.6806 -0.9032 -3.1285
   45DOPE   C34 5762   4.243   1.777  13.915 -0.3831  0.3303 -0.3186
   45DOPE   H4X 5763   4.182   1.688  13.888 -1.4308  1.4266 -1.6224
   45DOPE   H4Y 5764   4.348   1.739  13.920 -1.5808 -3.2964  0.4363
   45DOPE   C35 5765   4.192   1.838  14.046 -0.1512  0.5493 -0.2820
   45DOPE   H5X 5766   4.156   1.752  14.106 -1.1940 -0.0254 -1.6874
   45DOPE   H5Y 5767   4.105   1.906  14.030 -0.0981  0.4861 -0.8528
   45DOPE   C36 5768   4.291   1.921  14.132 -0.2571  0.0521 -0.0694
   45DOPE   H6X 5769   4.325   2.010  14.074 -0.9180 -0.3259 -1.0487
   45DOPE   H6Y 5770   4.383   1.861  14.149 -0.7179 -0.5377  0.3630
   45DOPE   C37 5771   4.255   1.975  14.268  0.5117  0.7798  0.2540
   45DOPE   H7X 5772   4.151   2.014  14.265 -0.5136 -1.7670 -0.0688
   45DOPE   H7Y 5773   4.251   1.883  14.330 -1.1304  1.1868  0.8036
   45DOPE   C38 5774   4.361   2.076  14.324 -0.2105  0.3485  0.0856
   45DOPE   H8X 5775   4.363   2.164  14.257 -0.6820  2.3042  2.4718
   45DOPE   H8Y 5776   4.454   2.020  14.305 -0.6090 -0.4110  0.3132
   45DOPE   C39 5777   4.359   2.116  14.470 -0.1692 -0.4568 -0.2775
   45DOPE   H9X 5778   4.295   2.054  14.535  1.2701  0.9607  2.6907
   45DOPE  C310 5779   4.416   2.226  14.512 -0.3964 -0.0479  0.1951
   45DOPE  H10X 5780   4.415   2.242  14.621 -0.7349 -1.0578  0.3472
   45DOPE  C311 5781   4.490   2.318  14.416 -1.0445  0.0795 -0.1454
   45DOPE  H11X 5782   4.436   2.321  14.319  0.7886  0.1547 -1.1962
   45DOPE  H11Y 5783   4.492   2.424  14.449  0.3346 -0.1097  0.4362
   45DOPE  C312 5784   4.640   2.280  14.391  0.4305  0.4391  0.3115
   45DOPE  H12X 5785   4.671   2.332  14.298  0.5779 -1.4521 -0.7516
   45DOPE  H12Y 5786   4.649   2.170  14.374 -1.3682  0.7174 -3.1013
   45DOPE  C313 5787   4.738   2.313  14.508 -0.6351  0.1178  0.3047
   45DOPE  H13X 5788   4.698   2.265  14.600  1.4918 -0.9236  0.7433
   45DOPE  H13Y 5789   4.838   2.270  14.486 -0.1556  1.6271 -0.5627
   45DOPE  C314 5790   4.757   2.464  14.527  0.5190 -0.6748  0.2605
   45DOPE  H14X 5791   4.833   2.473  14.607  2.2875 -0.3358 -1.3868
   45DOPE  H14Y 5792   4.658   2.514  14.541  0.5181 -0.2605 -1.0649
   45DOPE  C315 5793   4.819   2.527  14.400  0.1246 -0.4555 -0.3650
   45DOPE  H15X 5794   4.744   2.535  14.318 -0.6682 -0.9916  0.2852
   45DOPE  H15Y 5795   4.892   2.453  14.361 -0.9247 -2.7319  1.7276
   45DOPE  C316 5796   4.889   2.660  14.434  0.0363  0.3916  0.2763
   45DOPE  H16X 5797   4.951   2.666  14.526 -1.2658  1.3705  1.1439
   45DOPE  H16Y 5798   4.800   2.726  14.448 -0.4647  0.1506 -1.5775
   45DOPE  C317 5799   4.978   2.700  14.312  0.6258 -0.0119  0.2349
   45DOPE  H17X 5800   5.060   2.626  14.304  0.2328 -0.4669  0.3497
   45DOPE  H17Y 5801   4.903   2.689  14.231  0.1385  1.9550  0.3671
   45DOPE  C318 5802   5.017   2.842  14.304  0.2534 -0.1639 -0.4659
   45DOPE  H18X 5803   4.932   2.910  14.326  0.1667 -0.3542 -0.2163
   45DOPE  H18Y 5804   5.094   2.869  14.380  0.6337 -0.7593 -0.6287
   45DOPE  H18Z 5805   5.072   2.862  14.209  0.3078  0.2777 -0.3427
   46DOPE     N 5806   3.526   7.467  12.942  0.3983  0.2969  0.0980
   46DOPE   HN1 5807   3.596   7.391  12.931  0.0491 -0.1180  0.7003
   46DOPE   HN2 5808   3.465   7.442  13.022  0.1260  2.7059  0.7132
   46DOPE   HN3 5809   3.476   7.466  12.851  0.9459 -0.5253 -0.2077
   46DOPE   C12 5810   3.603   7.597  12.975  0.1241 -0.4219  0.0858
   46DOPE  H12A 5811   3.521   7.671  12.983 -1.4315 -1.9862 -0.8950
   46DOPE  H12B 5812   3.658   7.630  12.884  0.6647  0.1491  0.6082
   46DOPE   C11 5813   3.706   7.582  13.089 -0.0209  0.1488  0.5006
   46DOPE  H11A 5814   3.655   7.571  13.187 -0.4728 -1.2968  0.1357
   46DOPE  H11B 5815   3.771   7.672  13.092 -0.0762  0.1879  0.4986
   46DOPE     P 5816   3.924   7.479  12.980  0.1738  0.1274  0.2441
   46DOPE   O13 5817   3.909   7.600  12.895 -0.1621  0.2459  0.7087
   46DOPE   O14 5818   3.959   7.350  12.919 -0.2436 -0.3404 -0.3292
   46DOPE   O11 5819   4.020   7.502  13.101  0.2069 -0.0485  0.1734
   46DOPE   O12 5820   3.781   7.467  13.051 -0.4297  0.5155  0.3039
   46DOPE    C1 5821   3.999   7.430  13.226  0.1113  0.5962  0.1734
   46DOPE    HA 5822   4.021   7.322  13.214 -1.2853 -0.0484  2.6609
   46DOPE    HB 5823   3.895   7.439  13.264  0.8376  1.6608  2.1059
   46DOPE    C2 5824   4.103   7.479  13.331 -0.1359 -0.0463 -0.1575
   46DOPE    HS 5825   4.077   7.457  13.436  0.6048  0.9535  0.2602
   46DOPE   O21 5826   4.105   7.617  13.325 -0.4710  0.3098 -0.1138
   46DOPE   C21 5827   3.998   7.696  13.359 -0.4095 -0.6039  0.2387
   46DOPE   O22 5828   3.902   7.657  13.420  0.0618 -0.0174  0.1975
   46DOPE   C22 5829   4.028   7.840  13.310  0.0157 -0.0044 -0.4273
   46DOPE   H2R 5830   3.936   7.896  13.283 -0.3789 -0.5349 -0.2105
   46DOPE   H2S 5831   4.087   7.828  13.216 -1.2490 -1.0005 -1.1426
   46DOPE    C3 5832   4.244   7.419  13.304  0.1024  0.1674 -0.4360
   46DOPE    HX 5833   4.281   7.454  13.206  0.3263  0.0263 -0.4012
   46DOPE    HY 5834   4.235   7.309  13.292 -2.9798  0.3961 -1.0379
   46DOPE   O31 5835   4.332   7.459  13.413 -0.3254 -0.0670  1.0078
   46DOPE   C31 5836   4.412   7.560  13.393  0.4204  0.2159  0.1084
   46DOPE   O32 5837   4.394   7.648  13.307 -0.1234  0.7997 -0.1435
   46DOPE   C32 5838   4.529   7.556  13.486 -0.0438  0.1073 -0.1726
   46DOPE   H2X 5839   4.526   7.474  13.561 -1.9668 -0.8945 -1.2376
   46DOPE   H2Y 5840   4.617   7.543  13.419 -0.3360 -0.8216 -0.3927
   46DOPE   C23 5841   4.101   7.932  13.412  0.1814 -0.3613 -0.4293
   46DOPE   H3R 5842   4.177   7.998  13.365  0.1199  1.7114  2.1276
   46DOPE   H3S 5843   4.156   7.871  13.487 -2.3329 -1.8145  0.3582
   46DOPE   C24 5844   4.007   8.018  13.482  0.1531 -0.0236  0.5600
   46DOPE   H4R 5845   3.931   7.966  13.545  0.3066 -1.6817 -0.5636
   46DOPE   H4S 5846   3.947   8.072  13.407 -0.5785  1.8300  2.3818
   46DOPE   C25 5847   4.081   8.121  13.566  0.7688 -0.2213 -0.3420
   46DOPE   H5R 5848   4.148   8.184  13.504 -0.4759  0.2009 -1.3146
   46DOPE   H5S 5849   4.156   8.066  13.627  1.8717  1.4025 -0.1616
   46DOPE   C26 5850   3.986   8.216  13.648 -0.1393  0.2930  1.4326
   46DOPE   H6R 5851   3.921   8.165  13.722 -2.3915  1.1750  0.1591
   46DOPE   H6S 5852   3.929   8.261  13.565 -0.4614 -0.1010  1.4368
   46DOPE   C27 5853   4.046   8.331  13.719 -0.0366 -0.2915 -0.1304
   46DOPE   H7R 5854   3.966   8.407  13.735 -0.6840 -0.6569 -1.4557
   46DOPE   H7S 5855   4.122   8.376  13.651 -0.1961 -0.7743 -0.6347
   46DOPE   C28 5856   4.118   8.293  13.847 -0.7026 -0.5313  0.5368
   46DOPE   H8R 5857   4.187   8.206  13.832  0.7844  0.3245  2.0802
   46DOPE   H8S 5858   4.058   8.256  13.933 -0.2742  2.9196  2.4608
   46DOPE   C29 5859   4.209   8.407  13.903 -0.7819  0.3206  0.0169
   46DOPE   H9R 5860   4.306   8.420  13.852 -1.5702  2.4762 -1.0724
   46DOPE  C210 5861   4.184   8.488  14.004 -0.4116 -0.4346 -0.1859
   46DOPE  H10R 5862   4.262   8.561  14.033 -1.3401 -0.1455  1.7856
   46DOPE  C211 5863   4.060   8.489  14.088 -0.2731 -0.2510 -0.1961
   46DOPE  H11R 5864   4.073   8.416  14.171 -3.2317 -0.3963  0.2676
   46DOPE  H11S 5865   3.968   8.458  14.035 -1.0635 -0.2625  1.1298
   46DOPE  C212 5866   4.013   8.630  14.135  0.4368  1.0629 -0.2969
   46DOPE  H12R 5867   3.974   8.694  14.053 -0.7702 -0.7694 -1.2213
   46DOPE  H12S 5868   4.101   8.681  14.181  1.7413 -0.4529 -1.0294
   46DOPE  C213 5869   3.908   8.619  14.244  0.3024  0.0103 -0.4613
   46DOPE  H13R 5870   3.966   8.565  14.322  0.1441  2.1735  1.2685
   46DOPE  H13S 5871   3.823   8.559  14.206 -0.7424  0.7781  0.5727
   46DOPE  C214 5872   3.867   8.759  14.305 -0.3689  0.7846 -0.3140
   46DOPE  H14R 5873   3.821   8.817  14.222 -2.2459 -0.1794 -0.0087
   46DOPE  H14S 5874   3.951   8.821  14.344  0.9998 -1.0293 -0.2489
   46DOPE  C215 5875   3.757   8.729  14.407  0.9150 -0.5593  0.1417
   46DOPE  H15R 5876   3.799   8.656  14.479  1.6253 -1.9329 -1.5663
   46DOPE  H15S 5877   3.671   8.667  14.374 -0.7502  1.3762  0.6335
   46DOPE  C216 5878   3.701   8.857  14.470  0.5550  0.2625 -0.5541
   46DOPE  H16R 5879   3.664   8.920  14.386  0.3789  2.2299  0.9035
   46DOPE  H16S 5880   3.778   8.907  14.532  0.3390  1.7281 -1.4140
   46DOPE  C217 5881   3.583   8.829  14.561  0.6111 -0.1728 -0.0789
   46DOPE  H17R 5882   3.603   8.739  14.622 -0.0493 -0.3974 -0.1859
   46DOPE  H17S 5883   3.502   8.803  14.490 -0.5314  3.8218 -0.5165
   46DOPE  C218 5884   3.534   8.951  14.646  0.0972 -0.2332 -0.0365
   46DOPE  H18R 5885   3.511   9.028  14.569  0.9923 -1.2110 -1.3221
   46DOPE  H18S 5886   3.602   9.002  14.718 -1.5621  2.6713 -0.3710
   46DOPE  H18T 5887   3.443   8.919  14.701  0.4200  1.1534  1.3911
   46DOPE   C33 5888   4.546   7.680  13.573 -0.0517 -0.2027  0.1233
   46DOPE   H3X 5889   4.565   7.758  13.496  1.3803 -0.6841 -0.0264
   46DOPE   H3Y 5890   4.633   7.671  13.640 -1.0004 -1.8680  1.2054
   46DOPE   C34 5891   4.407   7.724  13.634  0.2642  0.3698  0.5235
   46DOPE   H4X 5892   4.413   7.830  13.668  1.0570  0.5990 -0.2860
   46DOPE   H4Y 5893   4.335   7.727  13.549 -0.0648  1.6695  0.8326
   46DOPE   C35 5894   4.340   7.618  13.726  0.4318  0.5553  0.0588
   46DOPE   H5X 5895   4.414   7.552  13.776  1.1545  1.4048  0.1404
   46DOPE   H5Y 5896   4.282   7.553  13.657  1.2880  0.8838 -1.0022
   46DOPE   C36 5897   4.245   7.680  13.825 -0.1762 -0.3808 -0.0440
   46DOPE   H6X 5898   4.251   7.791  13.824 -0.4215 -0.3456  1.2595
   46DOPE   H6Y 5899   4.270   7.652  13.929 -0.7651  0.7897  0.4301
   46DOPE   C37 5900   4.100   7.638  13.796 -0.1401 -0.1450 -0.2319
   46DOPE   H7X 5901   4.074   7.686  13.699 -1.6684  1.2070  0.7827
   46DOPE   H7Y 5902   4.085   7.528  13.791 -2.1616 -0.1266  2.6090
   46DOPE   C38 5903   4.001   7.701  13.896 -0.2831  0.2036  0.2356
   46DOPE   H8X 5904   4.027   7.684  14.003  0.1985  1.7112  0.3897
   46DOPE   H8Y 5905   3.897   7.676  13.870 -1.0364  3.7794 -0.7658
   46DOPE   C39 5906   4.018   7.843  13.874  0.9579  0.4588  0.5390
   46DOPE   H9X 5907   3.995   7.864  13.769  2.4290 -1.7119 -0.2955
   46DOPE  C310 5908   4.050   7.935  13.965 -0.1212 -0.8814 -0.7218
   46DOPE  H10X 5909   4.028   8.037  13.933  0.7612  0.0611  1.4660
   46DOPE  C311 5910   4.066   7.909  14.103 -0.4385 -0.5348 -0.8872
   46DOPE  H11X 5911   3.966   7.886  14.146 -0.1240  0.5246  0.4916
   46DOPE  H11Y 5912   4.129   7.819  14.122  0.4932  0.3636  0.5230
   46DOPE  C312 5913   4.125   8.018  14.194 -0.1916  0.3298  0.5789
   46DOPE  H12X 5914   4.052   8.101  14.205 -0.0819  0.7502 -1.4403
   46DOPE  H12Y 5915   4.229   8.046  14.166  0.9921 -3.1234  1.0527
   46DOPE  C313 5916   4.157   7.955  14.334 -0.0664  0.4906  0.3295
   46DOPE  H13X 5917   4.078   7.888  14.375 -0.3560  0.1075 -0.8280
   46DOPE  H13Y 5918   4.241   7.887  14.312 -1.6889 -1.0660 -1.4820
   46DOPE  C314 5919   4.164   8.070  14.438 -0.6117 -0.0300  0.1149
   46DOPE  H14X 5920   4.172   8.018  14.536 -3.1840 -1.2415 -0.2305
   46DOPE  H14Y 5921   4.081   8.143  14.444 -0.9507 -0.1798 -2.1018
   46DOPE  C315 5922   4.303   8.135  14.414 -0.3013  0.2300  0.1466
   46DOPE  H15X 5923   4.304   8.184  14.315 -0.9317 -0.5839 -0.2821
   46DOPE  H15Y 5924   4.382   8.057  14.409  1.1160  1.6477  0.0033
   46DOPE  C316 5925   4.344   8.232  14.523 -0.0166  0.2297  0.0299
   46DOPE  H16X 5926   4.443   8.276  14.496  0.5736 -0.8988  0.2903
   46DOPE  H16Y 5927   4.366   8.174  14.615 -1.2003  1.0440  0.8410
   46DOPE  C317 5928   4.229   8.327  14.552 -0.3143 -0.3520  0.7024
   46DOPE  H17X 5929   4.188   8.366  14.457  0.1007 -0.9393  0.2763
   46DOPE  H17Y 5930   4.150   8.261  14.595 -1.8357  0.5317 -0.6342
   46DOPE  C318 5931   4.265   8.440  14.653  0.6663  0.1920 -0.0342
   46DOPE  H18X 5932   4.178   8.509  14.649 -0.5084 -1.2601 -0.3835
   46DOPE  H18Y 5933   4.274   8.406  14.758 -0.2096  0.7653  0.2421
   46DOPE  H18Z 5934   4.360   8.487  14.621  0.7909 -1.7073 -2.8089
   47DOPE     N 5935   1.321   5.265  12.685  0.8676  0.3455 -0.6836
   47DOPE   HN1 5936   1.246   5.289  12.753  1.3749  3.3225 -1.0157
   47DOPE   HN2 5937   1.271   5.296  12.600  1.2379  2.4136 -0.2163
   47DOPE   HN3 5938   1.337   5.163  12.688  0.8918  0.3521 -0.5161
   47DOPE   C12 5939   1.440   5.343  12.725 -0.5476 -0.7735 -0.7084
   47DOPE  H12A 5940   1.423   5.451  12.703  0.1220 -0.4798  0.1743
   47DOPE  H12B 5941   1.522   5.312  12.657  1.5937  1.7132  0.5920
   47DOPE   C11 5942   1.484   5.303  12.872 -0.5368  0.1742  0.0909
   47DOPE  H11A 5943   1.413   5.345  12.947 -0.8495 -1.0701  0.5202
   47DOPE  H11B 5944   1.584   5.344  12.895 -0.1436 -0.5281 -0.3394
   47DOPE     P 5945   1.483   5.063  13.004  0.0766  0.1019 -0.1240
   47DOPE   O13 5946   1.576   4.954  12.975 -0.2910  0.3703  0.0211
   47DOPE   O14 5947   1.342   5.025  13.028  0.5290  0.5018  0.3587
   47DOPE   O11 5948   1.538   5.158  13.112  0.0195  0.4349  0.6453
   47DOPE   O12 5949   1.486   5.162  12.882 -0.0664 -0.1530  0.6181
   47DOPE    C1 5950   1.679   5.206  13.107  0.2642  0.2983 -0.5980
   47DOPE    HA 5951   1.687   5.310  13.144 -1.0597  0.6496 -1.2198
   47DOPE    HB 5952   1.728   5.207  13.007 -0.1822 -0.2928 -0.8289
   47DOPE    C2 5953   1.771   5.125  13.209 -0.4656 -0.3824  0.0140
   47DOPE    HS 5954   1.783   5.021  13.171  1.9440 -0.6667  1.3439
   47DOPE   O21 5955   1.707   5.145  13.335  0.3189 -0.4596  0.0322
   47DOPE   C21 5956   1.633   5.039  13.374 -0.7344  0.4311 -0.1999
   47DOPE   O22 5957   1.643   4.930  13.322  0.5800  0.7478  0.3697
   47DOPE   C22 5958   1.572   5.076  13.506 -0.0873 -0.1255  1.1722
   47DOPE   H2R 5959   1.464   5.088  13.483 -0.0351 -0.1388  0.9220
   47DOPE   H2S 5960   1.621   5.169  13.541 -0.3744 -0.7944  3.5314
   47DOPE    C3 5961   1.922   5.171  13.213 -0.2391 -0.1325  1.1540
   47DOPE    HX 5962   1.955   5.152  13.109 -0.2642 -2.7915  1.5712
   47DOPE    HY 5963   1.975   5.095  13.273  1.9698 -0.6180 -1.2365
   47DOPE   O31 5964   1.942   5.316  13.240 -1.2240 -0.4475 -0.0585
   47DOPE   C31 5965   1.972   5.343  13.366  0.0362  1.1074  0.5956
   47DOPE   O32 5966   1.988   5.260  13.453 -0.6660  0.0808  0.1730
   47DOPE   C32 5967   1.992   5.490  13.388  0.7235  0.2749 -0.4753
   47DOPE   H2X 5968   2.071   5.515  13.314  1.3423 -0.9204 -0.2379
   47DOPE   H2Y 5969   1.898   5.547  13.373  0.1946 -0.8336 -1.6111
   47DOPE   C23 5970   1.559   4.960  13.599 -0.4370  1.1055 -0.7913
   47DOPE   H3R 5971   1.513   4.876  13.542 -1.0473  1.0364 -0.2091
   47DOPE   H3S 5972   1.487   4.967  13.684 -0.1445  0.1668 -0.4528
   47DOPE   C24 5973   1.693   4.928  13.653  0.3364  0.2730  0.7953
   47DOPE   H4R 5974   1.747   5.019  13.687  1.9786  0.9120 -3.0585
   47DOPE   H4S 5975   1.753   4.887  13.569 -0.5585  2.0792 -0.8138
   47DOPE   C25 5976   1.678   4.817  13.764  0.0288 -0.1344  0.5418
   47DOPE   H5R 5977   1.780   4.771  13.761  0.1137 -0.0792  2.0805
   47DOPE   H5S 5978   1.603   4.739  13.738 -1.1841  1.5073 -1.0575
   47DOPE   C26 5979   1.633   4.882  13.889  0.3065 -0.7400 -0.2164
   47DOPE   H6R 5980   1.531   4.921  13.871  0.9770  0.3581 -1.9704
   47DOPE   H6S 5981   1.691   4.971  13.922 -3.1745  1.5669  0.1982
   47DOPE   C27 5982   1.643   4.780  14.009  0.2215  0.5439  0.2363
   47DOPE   H7R 5983   1.750   4.756  14.029 -0.0196 -1.1732 -0.3902
   47DOPE   H7S 5984   1.586   4.690  13.978  0.6280  0.1035  0.7387
   47DOPE   C28 5985   1.564   4.839  14.127 -0.0491  0.2237 -0.4043
   47DOPE   H8R 5986   1.527   4.745  14.174 -0.6766 -0.8261 -2.7851
   47DOPE   H8S 5987   1.470   4.890  14.097 -0.2458  0.5817  0.7866
   47DOPE   C29 5988   1.641   4.925  14.218 -0.0622 -0.2438  0.4226
   47DOPE   H9R 5989   1.744   4.889  14.236 -0.3260 -0.7102  1.0119
   47DOPE  C210 5990   1.599   5.031  14.291 -0.0573  0.0242  0.6676
   47DOPE  H10R 5991   1.680   5.076  14.350  0.1440  0.4862  0.0445
   47DOPE  C211 5992   1.456   5.090  14.293  0.0581 -0.3708  0.4473
   47DOPE  H11R 5993   1.399   5.067  14.200  2.1679  1.1681 -1.3296
   47DOPE  H11S 5994   1.467   5.200  14.295  1.5577 -0.4988  0.4883
   47DOPE  C212 5995   1.372   5.040  14.407  0.1257  0.5567 -0.2651
   47DOPE  H12R 5996   1.431   5.051  14.500  0.5673 -1.6500 -0.2373
   47DOPE  H12S 5997   1.357   4.930  14.402  3.2078 -0.0909  2.1067
   47DOPE  C213 5998   1.249   5.114  14.426 -0.2811  0.0700 -0.2273
   47DOPE  H13R 5999   1.187   5.117  14.333 -3.1663 -0.5875  1.5649
   47DOPE  H13S 6000   1.276   5.219  14.449  2.1194 -0.6425  0.5071
   47DOPE  C214 6001   1.177   5.040  14.539  0.0300  0.0433 -0.5165
   47DOPE  H14R 6002   1.200   4.931  14.540  0.7945  0.1751 -1.5669
   47DOPE  H14S 6003   1.067   5.053  14.524 -0.2166 -0.8385  0.4269
   47DOPE  C215 6004   1.214   5.092  14.680 -0.3326  0.0878  0.1184
   47DOPE  H15R 6005   1.198   5.202  14.684 -2.8048 -0.1764 -0.9526
   47DOPE  H15S 6006   1.323   5.081  14.697 -0.4856 -0.1983  0.9421
   47DOPE  C216 6007   1.147   5.029  14.798 -0.3613  0.1164  0.3024
   47DOPE  H16R 6008   1.145   4.919  14.778 -0.4927 -0.0609  1.2490
   47DOPE  H16S 6009   1.040   5.057  14.804 -0.9235 -1.3895 -1.5085
   47DOPE  C217 6010   1.206   5.057  14.933 -0.2218  0.0602 -0.3455
   47DOPE  H17R 6011   1.178   5.162  14.956  1.8778  1.2974 -2.8689
   47DOPE  H17S 6012   1.317   5.059  14.931 -0.1289  4.1208 -0.3834
   47DOPE  C218 6013   1.160   4.965  15.042  0.4511  0.4011 -0.0790
   47DOPE  H18R 6014   1.055   4.995  15.063 -0.1640  0.3682 -2.7290
   47DOPE  H18S 6015   1.220   4.997  15.130  0.2807  0.9074 -0.1456
   47DOPE  H18T 6016   1.158   4.857  15.014 -3.2117  0.1797  0.5811
   47DOPE   C33 6017   2.055   5.511  13.526  0.8317  0.3084  0.0897
   47DOPE   H3X 6018   2.147   5.449  13.522  0.9265  0.4122  0.6317
   47DOPE   H3Y 6019   1.982   5.479  13.603  0.1417  1.1762 -0.1844
   47DOPE   C34 6020   2.082   5.659  13.566  0.2355  0.0467  1.3777
   47DOPE   H4X 6021   2.157   5.699  13.494 -1.7853  1.5605  0.0127
   47DOPE   H4Y 6022   1.984   5.712  13.571  0.5392  0.9684 -1.0077
   47DOPE   C35 6023   2.149   5.642  13.703  0.0424 -0.0033 -1.2075
   47DOPE   H5X 6024   2.255   5.608  13.703 -0.0224 -0.7052  2.8763
   47DOPE   H5Y 6025   2.093   5.573  13.769 -0.2716  0.8005 -0.6223
   47DOPE   C36 6026   2.139   5.770  13.785 -0.2833 -0.7203 -1.1187
   47DOPE   H6X 6027   2.145   5.855  13.714  0.3321  1.0978  0.9898
   47DOPE   H6Y 6028   2.235   5.791  13.838 -0.9792 -1.3530  0.4741
   47DOPE   C37 6029   2.016   5.785  13.870 -0.2930  0.8400  0.1135
   47DOPE   H7X 6030   1.980   5.888  13.890  1.4472  1.1145  2.1074
   47DOPE   H7Y 6031   1.927   5.741  13.820 -1.7180  1.4741  1.9806
   47DOPE   C38 6032   2.016   5.721  14.013  0.1404  0.5988  0.2208
   47DOPE   H8X 6033   2.067   5.622  14.012 -4.1064 -1.8350  0.2526
   47DOPE   H8Y 6034   1.914   5.681  14.028  1.2524 -1.2883  4.3554
   47DOPE   C39 6035   2.060   5.805  14.118 -0.6711 -0.0122  0.3163
   47DOPE   H9X 6036   2.167   5.797  14.143 -0.8754 -1.2741  0.8562
   47DOPE  C310 6037   1.976   5.882  14.188 -0.1847 -0.2879 -0.0685
   47DOPE  H10X 6038   2.023   5.946  14.264  0.2202 -0.0716 -0.4861
   47DOPE  C311 6039   1.823   5.883  14.160  0.0427  0.2436  0.3927
   47DOPE  H11X 6040   1.797   5.990  14.173  1.0928  0.4322  1.0070
   47DOPE  H11Y 6041   1.814   5.862  14.051  0.5296 -0.3066  0.4508
   47DOPE  C312 6042   1.749   5.786  14.248 -0.1244  0.3817  0.4049
   47DOPE  H12X 6043   1.785   5.812  14.350  1.1388  0.9642 -0.1616
   47DOPE  H12Y 6044   1.772   5.681  14.219 -0.8794 -0.0758  1.4263
   47DOPE  C313 6045   1.598   5.803  14.244  0.3593 -0.0030  0.5895
   47DOPE  H13X 6046   1.570   5.903  14.282 -0.9036  0.6243 -1.8009
   47DOPE  H13Y 6047   1.560   5.800  14.140  1.6906  0.3780  0.0655
   47DOPE  C314 6048   1.524   5.697  14.330  1.0387 -0.1661  0.6549
   47DOPE  H14X 6049   1.566   5.710  14.432  0.9937  2.0711  0.4464
   47DOPE  H14Y 6050   1.553   5.595  14.298  0.5890 -0.2449  0.4958
   47DOPE  C315 6051   1.377   5.709  14.345  0.3344 -1.0566  0.1258
   47DOPE  H15X 6052   1.319   5.700  14.250  0.4405 -3.2333  0.2137
   47DOPE  H15Y 6053   1.354   5.804  14.398 -0.2344 -1.6646  0.9991
   47DOPE  C316 6054   1.308   5.600  14.424 -0.1143  0.3150 -0.4708
   47DOPE  H16X 6055   1.350   5.499  14.403 -3.1397 -1.4224  1.1856
   47DOPE  H16Y 6056   1.201   5.595  14.395 -0.3066  0.1939  0.2557
   47DOPE  C317 6057   1.317   5.618  14.575  0.5234 -0.2844 -1.4346
   47DOPE  H17X 6058   1.311   5.524  14.633 -0.6539  0.2054 -0.7095
   47DOPE  H17Y 6059   1.417   5.654  14.604  1.4111 -2.6445 -1.3624
   47DOPE  C318 6060   1.206   5.706  14.632 -0.4963 -0.0249 -0.3655
   47DOPE  H18X 6061   1.110   5.664  14.595  1.0520 -2.3974 -1.9364
   47DOPE  H18Y 6062   1.201   5.709  14.743  1.5009 -0.9432 -0.2153
   47DOPE  H18Z 6063   1.226   5.808  14.593  1.3180  0.6795  2.1449
   48DOPE     N 6064   6.696   0.984  12.679 -0.0797  0.5655  0.2345
   48DOPE   HN1 6065   6.748   1.073  12.678 -0.7279  0.9512 -0.1727
   48DOPE   HN2 6066   6.722   0.936  12.590 -0.7336  0.0478  0.3099
   48DOPE   HN3 6067   6.592   0.990  12.678 -0.3498 -2.2092  1.7046
   48DOPE   C12 6068   6.743   0.888  12.785  0.5149 -0.1260 -0.9805
   48DOPE  H12A 6069   6.838   0.840  12.753  1.2454 -0.5869  1.6324
   48DOPE  H12B 6070   6.674   0.802  12.796  0.0041  0.2008 -1.5729
   48DOPE   C11 6071   6.765   0.964  12.919  0.1961 -0.0495  0.1729
   48DOPE  H11A 6072   6.852   1.030  12.901 -0.6577  0.9524 -0.4526
   48DOPE  H11B 6073   6.788   0.895  13.003 -1.2349 -1.4532 -0.5104
   48DOPE     P 6074   6.531   1.004  13.026  0.1221  0.0164 -0.0038
   48DOPE   O13 6075   6.533   0.864  13.047  0.0746  0.0287  0.3354
   48DOPE   O14 6076   6.418   1.055  12.945  0.2926  0.3123 -0.3705
   48DOPE   O11 6077   6.538   1.078  13.163  0.3259 -0.2560  0.0951
   48DOPE   O12 6078   6.655   1.052  12.941  0.2203 -0.0300  0.3827
   48DOPE    C1 6079   6.634   1.167  13.215 -0.1764  0.4584 -0.1800
   48DOPE    HA 6080   6.578   1.248  13.266 -0.1090 -0.8160  2.0878
   48DOPE    HB 6081   6.707   1.211  13.144 -0.5434  2.1287  0.4345
   48DOPE    C2 6082   6.712   1.104  13.333  0.6138  0.2503 -0.1916
   48DOPE    HS 6083   6.749   1.006  13.297 -3.0578 -0.5001 -2.3797
   48DOPE   O21 6084   6.625   1.071  13.437 -0.1402 -0.1583 -0.1938
   48DOPE   C21 6085   6.660   0.961  13.518 -0.2578  0.0285  0.4528
   48DOPE   O22 6086   6.772   0.917  13.521  0.2283  0.3283  0.6610
   48DOPE   C22 6087   6.536   0.909  13.582  0.5059 -0.4558 -0.6023
   48DOPE   H2R 6088   6.489   0.846  13.503 -1.2692  1.1712 -0.9163
   48DOPE   H2S 6089   6.459   0.984  13.610  0.4062 -2.1584  4.6968
   48DOPE    C3 6090   6.838   1.191  13.380  0.4938 -0.8901 -0.2475
   48DOPE    HX 6091   6.904   1.174  13.292 -0.5510  0.8529 -1.4526
   48DOPE    HY 6092   6.877   1.152  13.476 -1.6698 -2.4593  0.0701
   48DOPE   O31 6093   6.805   1.329  13.406 -0.3780  0.5681 -0.3203
   48DOPE   C31 6094   6.862   1.422  13.327 -0.1314 -0.3815 -0.4630
   48DOPE   O32 6095   6.938   1.389  13.235 -0.2856 -0.1946  0.0833
   48DOPE   C32 6096   6.821   1.564  13.371 -0.1467 -0.1826 -0.0088
   48DOPE   H2X 6097   6.864   1.640  13.303  1.4069 -0.3792  0.7183
   48DOPE   H2Y 6098   6.710   1.570  13.363 -0.4150 -2.4733  1.0562
   48DOPE   C23 6099   6.550   0.823  13.707  0.6544  0.0547 -0.3098
   48DOPE   H3R 6100   6.639   0.758  13.697  0.5089 -0.3924  1.0830
   48DOPE   H3S 6101   6.467   0.752  13.730  0.6383  0.3715  0.6548
   48DOPE   C24 6102   6.578   0.890  13.841 -0.0445 -0.4809 -1.0782
   48DOPE   H4R 6103   6.498   0.962  13.866  1.5281  0.9224  0.1073
   48DOPE   H4S 6104   6.673   0.947  13.848 -0.1880 -0.2551 -0.9848
   48DOPE   C25 6105   6.599   0.787  13.961 -0.0402  0.8876 -0.3634
   48DOPE   H5R 6106   6.701   0.745  13.949 -0.1855 -0.1946  1.6890
   48DOPE   H5S 6107   6.524   0.705  13.959  0.3282  0.3810  2.3026
   48DOPE   C26 6108   6.610   0.856  14.101  0.3420 -0.3438  0.3204
   48DOPE   H6R 6109   6.514   0.903  14.131 -0.7190 -2.9782  1.3455
   48DOPE   H6S 6110   6.697   0.924  14.103  0.8200 -0.9612  0.9989
   48DOPE   C27 6111   6.651   0.750  14.214  0.5581  0.2948 -0.3224
   48DOPE   H7R 6112   6.738   0.690  14.179  0.8807  2.4116 -3.6255
   48DOPE   H7S 6113   6.563   0.683  14.230 -0.2794  1.1315 -1.2489
   48DOPE   C28 6114   6.695   0.819  14.354 -0.1084 -0.0288  0.5500
   48DOPE   H8R 6115   6.597   0.854  14.391 -1.2365 -2.5009  0.1321
   48DOPE   H8S 6116   6.758   0.909  14.335 -2.3080  1.6046  0.6269
   48DOPE   C29 6117   6.761   0.719  14.453  0.2227  0.7698  0.3197
   48DOPE   H9R 6118   6.869   0.725  14.435  0.2409 -1.4584 -0.6044
   48DOPE  C210 6119   6.710   0.641  14.549  0.3373  0.7863  0.3555
   48DOPE  H10R 6120   6.779   0.570  14.596  1.3263  1.2540 -0.3500
   48DOPE  C211 6121   6.565   0.626  14.583 -0.2155 -0.0448 -0.6323
   48DOPE  H11R 6122   6.512   0.717  14.548 -1.2606  0.0454  1.0782
   48DOPE  H11S 6123   6.551   0.622  14.693  0.5476  2.3460 -0.3833
   48DOPE  C212 6124   6.495   0.505  14.525  0.2829  0.4055  0.0357
   48DOPE  H12R 6125   6.551   0.417  14.562 -1.0077 -0.4562 -0.0047
   48DOPE  H12S 6126   6.503   0.509  14.414  1.9472  3.0144  0.1515
   48DOPE  C213 6127   6.346   0.504  14.572 -0.2645  0.3985 -0.1029
   48DOPE  H13R 6128   6.341   0.498  14.682  0.8100 -0.4591 -0.0802
   48DOPE  H13S 6129   6.297   0.412  14.532 -0.5834  0.2010  0.7271
   48DOPE  C214 6130   6.257   0.622  14.521  0.1264 -0.2126  1.3725
   48DOPE  H14R 6131   6.263   0.613  14.410 -0.4050  3.0773  0.9801
   48DOPE  H14S 6132   6.299   0.721  14.550  1.0408  0.0302 -0.5635
   48DOPE  C215 6133   6.108   0.620  14.554 -0.6651 -0.2896 -0.0589
   48DOPE  H15R 6134   6.069   0.528  14.508 -1.2164  1.0650 -2.4699
   48DOPE  H15S 6135   6.061   0.709  14.506 -0.5204  0.9878  2.0427
   48DOPE  C216 6136   6.081   0.615  14.704 -0.8590  0.2725 -0.1034
   48DOPE  H16R 6137   6.131   0.703  14.750  0.5050  0.5504 -2.0008
   48DOPE  H16S 6138   6.120   0.525  14.755 -0.9228  0.2893 -0.0229
   48DOPE  C217 6139   5.932   0.629  14.731  0.0131  0.3871 -0.1809
   48DOPE  H17R 6140   5.873   0.566  14.661  0.7723  1.1287 -1.5185
   48DOPE  H17S 6141   5.898   0.731  14.704 -0.3118  0.2799 -0.1831
   48DOPE  C218 6142   5.889   0.603  14.879 -0.0169  0.3237 -0.2135
   48DOPE  H18R 6143   5.786   0.633  14.907  1.8631  4.9356  3.0912
   48DOPE  H18S 6144   5.951   0.657  14.954 -2.5006  0.6188  1.7337
   48DOPE  H18T 6145   5.908   0.494  14.891 -0.1986  0.3553  0.4109
   48DOPE   C33 6146   6.853   1.592  13.525  0.4991 -1.3220  0.1914
   48DOPE   H3X 6147   6.778   1.548  13.594 -0.6809 -0.0232 -0.2058
   48DOPE   H3Y 6148   6.837   1.701  13.534 -1.8407 -1.7258  1.5862
   48DOPE   C34 6149   7.002   1.548  13.558  0.3456  0.5483 -0.3627
   48DOPE   H4X 6150   7.009   1.437  13.547 -2.0939  0.4166 -0.9734
   48DOPE   H4Y 6151   7.063   1.586  13.474  1.1704 -0.9585 -0.4908
   48DOPE   C35 6152   7.054   1.591  13.694 -0.8107  0.0538 -0.1470
   48DOPE   H5X 6153   7.028   1.696  13.719 -1.1393 -0.1447  0.3661
   48DOPE   H5Y 6154   7.165   1.585  13.689 -0.8506 -0.3364 -0.5519
   48DOPE   C36 6155   7.002   1.507  13.805  0.6082 -0.3911 -0.6199
   48DOPE   H6X 6156   6.989   1.405  13.764 -1.3635 -0.2906 -0.3510
   48DOPE   H6Y 6157   6.897   1.539  13.820  0.5629 -1.2243  1.1144
   48DOPE   C37 6158   7.089   1.496  13.939 -0.5133 -0.0889 -0.3880
   48DOPE   H7X 6159   7.028   1.437  14.012 -2.2436  1.6093 -0.3906
   48DOPE   H7Y 6160   7.175   1.439  13.899 -0.8007  1.1148 -2.8564
   48DOPE   C38 6161   7.135   1.627  14.000 -0.7724  0.8507 -0.5694
   48DOPE   H8X 6162   7.198   1.676  13.922  2.1205 -1.3067  0.1871
   48DOPE   H8Y 6163   7.211   1.611  14.080 -0.2209 -1.4476 -1.4572
   48DOPE   C39 6164   7.023   1.710  14.053 -0.2133  0.8712  0.5545
   48DOPE   H9X 6165   6.946   1.739  13.981  0.3366  0.4334 -0.2251
   48DOPE  C310 6166   7.014   1.756  14.182 -0.4416  0.6105  0.3985
   48DOPE  H10X 6167   6.929   1.818  14.214 -1.7388 -0.4918 -0.7985
   48DOPE  C311 6168   7.120   1.729  14.294  0.1389 -0.6245 -0.2484
   48DOPE  H11X 6169   7.134   1.620  14.306 -1.9707 -0.8271  0.8908
   48DOPE  H11Y 6170   7.219   1.760  14.254  0.0651  1.4707  1.0296
   48DOPE  C312 6171   7.099   1.813  14.422  0.0655 -0.5496  0.5856
   48DOPE  H12X 6172   7.098   1.920  14.394  0.9610 -0.3863  1.1469
   48DOPE  H12Y 6173   7.181   1.812  14.496  0.8530  1.9337 -0.1676
   48DOPE  C313 6174   6.963   1.788  14.492  0.4838  0.2033  0.4780
   48DOPE  H13X 6175   6.880   1.804  14.421  0.6494  0.1046  0.2611
   48DOPE  H13Y 6176   6.975   1.680  14.515  2.1423 -0.2992 -2.2841
   48DOPE  C314 6177   6.946   1.869  14.618 -0.4883 -0.5058 -0.7982
   48DOPE  H14X 6178   6.953   1.979  14.604 -0.3377 -0.3410  0.4662
   48DOPE  H14Y 6179   7.026   1.845  14.690 -1.9756 -1.2233  0.6749
   48DOPE  C315 6180   6.808   1.846  14.682  0.1249 -0.4759  0.6978
   48DOPE  H15X 6181   6.788   1.740  14.709 -1.6609  0.3071  2.7088
   48DOPE  H15Y 6182   6.741   1.885  14.602 -0.4650  2.0447  2.3043
   48DOPE  C316 6183   6.763   1.923  14.806  0.4052 -0.3130 -0.0616
   48DOPE  H16X 6184   6.799   2.027  14.818 -0.4122 -0.1375  0.9531
   48DOPE  H16Y 6185   6.810   1.868  14.890 -1.6938 -0.9148  0.7985
   48DOPE  C317 6186   6.612   1.911  14.813  0.4423 -0.3824 -0.2927
   48DOPE  H17X 6187   6.579   1.958  14.718  0.3952  0.5876  0.1939
   48DOPE  H17Y 6188   6.581   1.805  14.816 -0.0128 -0.2549 -0.3400
   48DOPE  C318 6189   6.527   1.988  14.923  0.2764 -0.1521 -0.3045
   48DOPE  H18X 6190   6.426   1.940  14.929 -0.1439  0.5267 -1.6001
   48DOPE  H18Y 6191   6.585   1.992  15.018  0.4002 -0.3457 -0.3712
   48DOPE  H18Z 6192   6.523   2.096  14.899  1.7219  0.2854  1.2314
   49DOPE     N 6193   2.769   5.004  13.175  0.1835  0.8127 -0.6713
   49DOPE   HN1 6194   2.814   4.911  13.160 -0.0349  0.7996 -1.2713
   49DOPE   HN2 6195   2.672   4.982  13.147  0.2642 -0.3001 -0.1217
   49DOPE   HN3 6196   2.819   5.082  13.128  1.1934  2.9766  3.4775
   49DOPE   C12 6197   2.745   5.052  13.314  0.4370 -0.2563  0.7630
   49DOPE  H12A 6198   2.840   5.082  13.362 -0.1590  1.2734  1.0572
   49DOPE  H12B 6199   2.694   4.972  13.373 -1.5307  0.0692 -0.4095
   49DOPE   C11 6200   2.663   5.190  13.322 -0.2311 -0.2651 -0.5809
   49DOPE  H11A 6201   2.678   5.238  13.421  0.6609  0.2295 -0.9405
   49DOPE  H11B 6202   2.557   5.168  13.299  0.1598 -1.2490 -1.5179
   49DOPE     P 6203   2.697   5.432  13.236  0.4601 -0.4996 -0.6503
   49DOPE   O13 6204   2.587   5.464  13.145  0.2091 -0.1830 -0.4792
   49DOPE   O14 6205   2.832   5.492  13.213 -0.6706 -0.2044  0.2453
   49DOPE   O11 6206   2.656   5.453  13.388  0.2860  0.8195 -0.0746
   49DOPE   O12 6207   2.719   5.280  13.227  0.4140 -0.0057 -0.1821
   49DOPE    C1 6208   2.562   5.563  13.414 -0.0320  0.1026 -0.0013
   49DOPE    HA 6209   2.472   5.551  13.351 -0.2582 -1.7229  0.5922
   49DOPE    HB 6210   2.606   5.656  13.373  0.1562  0.2514  0.5267
   49DOPE    C2 6211   2.531   5.584  13.568  0.2462  0.1363 -0.2585
   49DOPE    HS 6212   2.445   5.652  13.580  0.8125  1.1155 -1.5786
   49DOPE   O21 6213   2.649   5.629  13.637  0.4128 -0.2824 -0.4864
   49DOPE   C21 6214   2.667   5.760  13.628  0.1615  0.2711  1.0878
   49DOPE   O22 6215   2.596   5.838  13.572 -0.3788  0.6773  0.5587
   49DOPE   C22 6216   2.784   5.800  13.714 -0.6189  0.2225 -0.6672
   49DOPE   H2R 6217   2.863   5.808  13.637  0.6647 -1.8986  0.3408
   49DOPE   H2S 6218   2.806   5.713  13.778  0.9587  1.3548  0.4086
   49DOPE    C3 6219   2.504   5.441  13.623 -0.0795  0.2327 -0.4314
   49DOPE    HX 6220   2.606   5.398  13.632 -0.1722 -0.2003 -1.2683
   49DOPE    HY 6221   2.435   5.387  13.554 -0.5311  1.3891 -0.8981
   49DOPE   O31 6222   2.446   5.455  13.757 -0.2957  0.1958  0.0191
   49DOPE   C31 6223   2.423   5.333  13.812 -0.5287  0.3871 -0.1748
   49DOPE   O32 6224   2.471   5.230  13.768  0.8125 -0.2343 -0.2897
   49DOPE   C32 6225   2.360   5.347  13.958 -0.4788 -0.5610 -0.1364
   49DOPE   H2X 6226   2.345   5.457  13.972  2.5113 -0.2647  1.4728
   49DOPE   H2Y 6227   2.266   5.288  13.962 -0.5909 -0.3519  0.5824
   49DOPE   C23 6228   2.759   5.920  13.811  0.5166  0.1223 -0.2052
   49DOPE   H3R 6229   2.674   5.896  13.879 -0.9927  2.2388 -1.2460
   49DOPE   H3S 6230   2.722   5.999  13.743 -0.8201 -0.8478 -0.6555
   49DOPE   C24 6231   2.889   5.967  13.884  0.2943 -0.5827  0.2085
   49DOPE   H4R 6232   2.882   6.063  13.938 -1.3162 -0.6580  0.1790
   49DOPE   H4S 6233   2.963   5.991  13.806  1.9244 -0.7406  1.6384
   49DOPE   C25 6234   2.939   5.859  13.988  0.4832 -0.5827  0.6617
   49DOPE   H5R 6235   2.966   5.772  13.924 -2.9285 -1.0183 -0.3899
   49DOPE   H5S 6236   2.857   5.826  14.055  0.0130  0.7783  0.7934
   49DOPE   C26 6237   3.051   5.905  14.082  0.0992 -0.0864 -0.1023
   49DOPE   H6R 6238   3.065   5.837  14.169  1.2076  0.4206  0.1371
   49DOPE   H6S 6239   3.019   6.001  14.129  0.3727  0.4408 -0.9711
   49DOPE   C27 6240   3.188   5.917  14.011  0.1946  0.1255  0.4212
   49DOPE   H7R 6241   3.178   5.995  13.933 -0.3543 -0.5674 -0.2104
   49DOPE   H7S 6242   3.220   5.827  13.953  0.0838  0.8718 -0.8317
   49DOPE   C28 6243   3.303   5.955  14.109 -0.5081 -1.3143 -0.4674
   49DOPE   H8R 6244   3.334   5.869  14.172  4.1052  0.0885 -0.4235
   49DOPE   H8S 6245   3.279   6.039  14.178  1.8927 -1.3127  0.4479
   49DOPE   C29 6246   3.432   5.991  14.033 -0.4745 -0.0750 -0.3938
   49DOPE   H9R 6247   3.413   6.030  13.931 -3.1448  1.1693  0.4907
   49DOPE  C210 6248   3.560   5.977  14.075 -0.0740 -1.0621  0.1924
   49DOPE  H10R 6249   3.647   5.995  14.010 -0.0189 -1.4405  0.1561
   49DOPE  C211 6250   3.600   5.929  14.216  0.8800 -0.0484  0.4568
   49DOPE  H11R 6251   3.635   5.824  14.206 -0.4161 -0.7843  2.9619
   49DOPE  H11S 6252   3.513   5.920  14.284 -0.1242 -0.5871 -0.8606
   49DOPE  C212 6253   3.703   6.011  14.289 -0.9459 -0.4282 -0.4111
   49DOPE  H12R 6254   3.800   5.999  14.236 -0.8108  1.0099 -0.5331
   49DOPE  H12S 6255   3.716   5.969  14.391 -0.9959 -0.6313 -0.4883
   49DOPE  C213 6256   3.676   6.164  14.293 -0.1494  0.3054  0.3754
   49DOPE  H13R 6257   3.575   6.180  14.334 -0.1598  0.1959  0.3922
   49DOPE  H13S 6258   3.689   6.204  14.190  0.2078  0.8502  0.6277
   49DOPE  C214 6259   3.775   6.230  14.391  0.0647  0.0054  0.5019
   49DOPE  H14R 6260   3.872   6.178  14.383 -1.2324 -2.6552  0.8319
   49DOPE  H14S 6261   3.743   6.223  14.497  1.0082 -0.9879  0.7359
   49DOPE  C215 6262   3.806   6.377  14.354  0.4953 -0.3969 -0.3356
   49DOPE  H15R 6263   3.709   6.429  14.346  0.0432 -0.9918  1.0712
   49DOPE  H15S 6264   3.853   6.386  14.253 -1.5252  2.0272 -1.1779
   49DOPE  C216 6265   3.891   6.440  14.466  0.0502  0.1801 -0.2314
   49DOPE  H16R 6266   3.893   6.382  14.561 -0.3088  1.8111  0.8201
   49DOPE  H16S 6267   3.854   6.543  14.485 -1.2156 -0.3755  0.4063
   49DOPE  C217 6268   4.031   6.456  14.418 -0.4660 -0.2998  0.1281
   49DOPE  H17R 6269   4.076   6.362  14.379  1.7272  0.7145  0.0729
   49DOPE  H17S 6270   4.102   6.467  14.503  0.5721 -2.7428 -0.3324
   49DOPE  C218 6271   4.052   6.560  14.312  0.8802  0.9296 -1.3462
   49DOPE  H18R 6272   3.985   6.540  14.226 -0.0470 -2.6082  0.0167
   49DOPE  H18S 6273   4.158   6.564  14.279  1.1207  1.3183 -0.5467
   49DOPE  H18T 6274   4.032   6.658  14.360  0.2054 -0.3683  1.1910
   49DOPE   C33 6275   2.451   5.281  14.057  0.0955 -0.4234 -1.0735
   49DOPE   H3X 6276   2.541   5.341  14.083 -2.5358  2.3657  2.7184
   49DOPE   H3Y 6277   2.484   5.180  14.025  0.3457 -1.4871  2.1176
   49DOPE   C34 6278   2.372   5.266  14.197 -0.7068  0.4499  0.6403
   49DOPE   H4X 6279   2.316   5.361  14.214 -2.1344 -0.3919  0.7901
   49DOPE   H4Y 6280   2.293   5.190  14.180 -0.3002  0.1668 -0.0386
   49DOPE   C35 6281   2.465   5.231  14.313 -0.1961 -0.4265  0.3130
   49DOPE   H5X 6282   2.553   5.298  14.313 -0.6549  0.2402  2.2187
   49DOPE   H5Y 6283   2.515   5.133  14.296 -0.5946 -0.3856 -1.2458
   49DOPE   C36 6284   2.402   5.225  14.449  0.7206  0.7448 -0.3400
   49DOPE   H6X 6285   2.351   5.320  14.477  2.8935  1.5645  1.1202
   49DOPE   H6Y 6286   2.475   5.206  14.531 -0.3096 -3.0999 -0.1137
   49DOPE   C37 6287   2.300   5.114  14.460 -0.3040  0.1797 -0.3240
   49DOPE   H7X 6288   2.203   5.143  14.415 -0.9225 -3.2065 -1.4620
   49DOPE   H7Y 6289   2.325   5.024  14.399 -1.3616 -1.3514  1.4029
   49DOPE   C38 6290   2.270   5.061  14.599  0.1756  0.1120  0.1881
   49DOPE   H8X 6291   2.360   5.031  14.657 -0.6775  0.0694  1.5389
   49DOPE   H8Y 6292   2.216   4.965  14.582 -0.2414  0.2493  0.6965
   49DOPE   C39 6293   2.175   5.150  14.674  0.3742 -0.3921 -0.0944
   49DOPE   H9X 6294   2.087   5.155  14.608  1.2742 -0.2995 -1.3107
   49DOPE  C310 6295   2.199   5.241  14.772  0.0941 -0.5893 -0.2337
   49DOPE  H10X 6296   2.119   5.307  14.811  0.7013 -0.0662  0.1512
   49DOPE  C311 6297   2.332   5.268  14.833  0.3732 -0.4416  0.1367
   49DOPE  H11X 6298   2.416   5.285  14.762  0.4864  1.0425  0.5913
   49DOPE  H11Y 6299   2.327   5.364  14.888 -0.4743 -1.2853  1.6191
   49DOPE  C312 6300   2.385   5.163  14.926 -0.4694 -0.1300 -0.5703
   49DOPE  H12X 6301   2.410   5.074  14.865 -2.3222  0.4559 -2.2762
   49DOPE  H12Y 6302   2.301   5.128  14.989  0.6921 -0.8999  0.5932
   49DOPE  C313 6303   2.511   5.207  15.009  1.0113 -0.1581  0.3829
   49DOPE  H13X 6304   2.572   5.114  15.004 -0.2070 -1.1539  2.5284
   49DOPE  H13Y 6305   2.568   5.278  14.946 -1.9216  0.2733 -1.9501
   49DOPE  C314 6306   2.479   5.243  15.157 -0.1751 -0.0585 -0.6901
   49DOPE  H14X 6307   2.390   5.308  15.173 -0.0528  0.0644 -0.4904
   49DOPE  H14Y 6308   2.559   5.310  15.195 -0.4385 -0.7961  1.2591
   49DOPE  C315 6309   2.472   5.111  15.240 -0.0157 -0.0251 -0.7711
   49DOPE  H15X 6310   2.552   5.041  15.208 -1.0842 -1.7241  0.0982
   49DOPE  H15Y 6311   2.377   5.056  15.224 -2.1837  2.5880  1.9307
   49DOPE  C316 6312   2.497   5.145  15.390 -0.2828 -0.9259  0.4843
   49DOPE  H16X 6313   2.506   5.047  15.441  1.1557 -0.7035  0.6739
   49DOPE  H16Y 6314   2.416   5.208  15.433  0.0955  0.5707 -0.8615
   49DOPE  C317 6315   2.631   5.212  15.422 -0.1488 -0.3813 -0.0932
   49DOPE  H17X 6316   2.694   5.126  15.454 -0.7434 -0.1950  1.6903
   49DOPE  H17Y 6317   2.681   5.262  15.337 -0.0121 -1.2985 -0.5589
   49DOPE  C318 6318   2.609   5.307  15.544 -0.0646  0.4408  0.8632
   49DOPE  H18X 6319   2.578   5.256  15.638  0.9707 -0.4784  0.7326
   49DOPE  H18Y 6320   2.702   5.366  15.556 -0.0304  0.6667 -0.3844
   49DOPE  H18Z 6321   2.534   5.380  15.508  0.4253  0.6784  0.3164
   50DOPE     N 6322   7.214   5.213  13.077 -0.3451 -1.0016  0.0501
   50DOPE   HN1 6323   7.275   5.296  13.066 -1.4381 -0.3074 -1.0979
   50DOPE   HN2 6324   7.153   5.213  12.992 -0.8354  0.1691  0.3858
   50DOPE   HN3 6325   7.143   5.224  13.152 -1.0159  0.7507 -0.7884
   50DOPE   C12 6326   7.292   5.084  13.093 -0.3120 -0.1236  0.2119
   50DOPE  H12A 6327   7.220   5.001  13.081 -0.6039  0.2052 -0.3123
   50DOPE  H12B 6328   7.324   5.075  13.199  0.5153 -1.1967 -0.1127
   50DOPE   C11 6329   7.408   5.085  13.003  0.0248 -0.4522 -0.0880
   50DOPE  H11A 6330   7.375   5.087  12.897 -0.5620  1.9959  0.0977
   50DOPE  H11B 6331   7.450   4.982  13.011 -0.9503 -0.9309 -0.9185
   50DOPE     P 6332   7.654   5.184  12.992  0.0087  0.2722  0.1370
   50DOPE   O13 6333   7.706   5.314  13.029  0.2965 -0.2331 -0.0959
   50DOPE   O14 6334   7.658   5.150  12.842 -0.1797  0.3867  0.2071
   50DOPE   O11 6335   7.723   5.073  13.077  0.5656  0.0004  0.5512
   50DOPE   O12 6336   7.502   5.186  13.043 -0.4413 -0.0246  0.1840
   50DOPE    C1 6337   7.862   5.086  13.100  0.7936  0.6667 -0.0127
   50DOPE    HA 6338   7.903   5.189  13.100  2.8563  0.1008 -4.3356
   50DOPE    HB 6339   7.908   5.026  13.018 -0.1802  0.6821 -0.5848
   50DOPE    C2 6340   7.915   5.005  13.232  0.4000  0.3384  0.3487
   50DOPE    HS 6341   7.914   4.896  13.212  0.5597 -0.0465  2.2171
   50DOPE   O21 6342   7.822   5.023  13.343 -0.8224 -0.4409  0.1139
   50DOPE   C21 6343   7.716   4.953  13.340  0.4974 -0.5087 -0.0375
   50DOPE   O22 6344   7.674   4.882  13.252  0.3832  1.1718  0.1593
   50DOPE   C22 6345   7.637   4.963  13.475  0.4797  0.4467 -0.2344
   50DOPE   H2R 6346   7.534   4.986  13.439  0.2309 -0.3439 -0.0527
   50DOPE   H2S 6347   7.680   5.052  13.525  1.0386  1.1360 -1.8693
   50DOPE    C3 6348   8.058   5.054  13.271 -0.1913 -0.0208  0.0057
   50DOPE    HX 6349   8.064   5.158  13.308  3.4878 -0.0217 -0.1672
   50DOPE    HY 6350   8.116   5.053  13.176  0.9930  0.7455  0.7042
   50DOPE   O31 6351   8.107   4.957  13.366 -0.4509 -0.1753 -0.0953
   50DOPE   C31 6352   8.180   5.013  13.466 -0.7190  0.7139  0.2889
   50DOPE   O32 6353   8.219   5.125  13.469  0.6734  0.0196  0.1030
   50DOPE   C32 6354   8.215   4.899  13.570 -0.7044 -0.6187  0.2298
   50DOPE   H2X 6355   8.134   4.822  13.569 -0.0589 -1.3349  1.1924
   50DOPE   H2Y 6356   8.313   4.852  13.549  0.8279  2.1213  0.8170
   50DOPE   C23 6357   7.655   4.841  13.564  0.0102 -0.2219 -0.1115
   50DOPE   H3R 6358   7.761   4.810  13.558 -0.4390 -2.7227  2.6792
   50DOPE   H3S 6359   7.608   4.756  13.510 -2.4988  0.6616  0.5659
   50DOPE   C24 6360   7.614   4.844  13.714  0.5343 -0.5097  0.0647
   50DOPE   H4R 6361   7.610   4.742  13.756 -0.4330 -0.3092  0.4799
   50DOPE   H4S 6362   7.511   4.884  13.706  1.2056  1.9342  2.1727
   50DOPE   C25 6363   7.712   4.935  13.794  0.9483 -0.4118  0.1342
   50DOPE   H5R 6364   7.756   5.014  13.729 -1.6577  0.9550 -0.1001
   50DOPE   H5S 6365   7.801   4.888  13.842  1.5814  2.3200  1.8769
   50DOPE   C26 6366   7.641   5.006  13.913  0.2159 -0.3271  0.0935
   50DOPE   H6R 6367   7.595   4.931  13.980 -0.1211 -0.0050  0.2238
   50DOPE   H6S 6368   7.559   5.067  13.869 -0.3895  1.0191  2.8575
   50DOPE   C27 6369   7.739   5.086  13.989  0.2057  0.0946 -0.2264
   50DOPE   H7R 6370   7.813   5.139  13.925  2.0875  1.1574  2.6238
   50DOPE   H7S 6371   7.799   5.018  14.053  0.6242  0.9774  0.3525
   50DOPE   C28 6372   7.676   5.180  14.096 -0.1765 -0.8603 -0.0554
   50DOPE   H8R 6373   7.761   5.206  14.163  0.0466 -2.4825  0.3228
   50DOPE   H8S 6374   7.601   5.128  14.157 -0.4164 -0.7222 -0.2299
   50DOPE   C29 6375   7.618   5.303  14.028 -0.3705  0.3040  0.6803
   50DOPE   H9R 6376   7.594   5.287  13.922  0.1708 -0.6379  0.6872
   50DOPE  C210 6377   7.590   5.424  14.078 -0.4671 -0.0912 -0.2061
   50DOPE  H10R 6378   7.537   5.495  14.013  0.8618  0.2348 -0.9785
   50DOPE  C211 6379   7.617   5.463  14.223  0.4769  0.1871  0.4139
   50DOPE  H11R 6380   7.656   5.374  14.276  0.5319 -0.0162  0.0333
   50DOPE  H11S 6381   7.526   5.495  14.278 -0.5442 -0.8823 -0.6062
   50DOPE  C212 6382   7.726   5.573  14.235  0.8503  1.0471  0.3746
   50DOPE  H12R 6383   7.820   5.548  14.181 -0.7463 -1.8254 -1.3134
   50DOPE  H12S 6384   7.743   5.588  14.344  1.3783 -0.9629  0.5996
   50DOPE  C213 6385   7.677   5.705  14.184 -0.5959 -0.6124  0.4630
   50DOPE  H13R 6386   7.605   5.752  14.255  0.4195  2.5540 -0.4539
   50DOPE  H13S 6387   7.632   5.694  14.083  0.5269 -0.1305 -0.1008
   50DOPE  C214 6388   7.791   5.810  14.167  0.2397  0.3475  0.5093
   50DOPE  H14R 6389   7.775   5.882  14.084 -0.2122  0.1128  0.3901
   50DOPE  H14S 6390   7.879   5.749  14.136  1.2258  2.2337 -0.6100
   50DOPE  C215 6391   7.823   5.891  14.301 -0.4221 -0.0880  0.6442
   50DOPE  H15R 6392   7.823   5.813  14.380 -0.8611  0.3776  1.1180
   50DOPE  H15S 6393   7.735   5.955  14.322  0.6743  2.0576 -0.8952
   50DOPE  C216 6394   7.948   5.978  14.311  0.5587  0.4091 -0.2460
   50DOPE  H16R 6395   7.949   6.077  14.260  2.3713  1.6146  1.9465
   50DOPE  H16S 6396   8.032   5.918  14.269  1.0853  2.3133 -2.1301
   50DOPE  C217 6397   7.974   6.015  14.462 -0.8946  0.0507 -0.7605
   50DOPE  H17R 6398   7.890   6.061  14.518 -0.8169  0.7981 -1.2511
   50DOPE  H17S 6399   8.063   6.082  14.467  0.5289 -1.7976 -0.1554
   50DOPE  C218 6400   8.008   5.892  14.546  0.0405  0.1478 -0.1448
   50DOPE  H18R 6401   8.064   5.923  14.637 -0.3148 -1.9841  0.8584
   50DOPE  H18S 6402   8.064   5.815  14.489  0.4117  0.4089 -0.1346
   50DOPE  H18T 6403   7.910   5.850  14.577  0.8901 -0.8012  1.4269
   50DOPE   C33 6404   8.236   4.943  13.712 -0.4766 -0.2453  0.2869
   50DOPE   H3X 6405   8.288   5.041  13.722 -0.8507  0.1483 -1.4467
   50DOPE   H3Y 6406   8.298   4.864  13.760  1.6780 -0.3066 -2.3574
   50DOPE   C34 6407   8.099   4.968  13.780  0.4394 -0.0222  0.5668
   50DOPE   H4X 6408   8.051   5.054  13.728 -0.1695 -2.1066 -2.6530
   50DOPE   H4Y 6409   8.039   4.878  13.753  0.0944  0.3008  0.2270
   50DOPE   C35 6410   8.100   4.975  13.932 -1.1878 -0.0923 -0.5398
   50DOPE   H5X 6411   8.092   4.874  13.978 -0.0051 -0.9734 -2.1745
   50DOPE   H5Y 6412   8.005   5.018  13.969 -0.5236 -0.4840  1.8049
   50DOPE   C36 6413   8.214   5.059  13.990  0.0235  0.7596  0.0185
   50DOPE   H6X 6414   8.203   5.156  13.937 -1.6183  0.7138  0.2232
   50DOPE   H6Y 6415   8.306   5.004  13.962  0.2354  2.2129 -2.4727
   50DOPE   C37 6416   8.210   5.070  14.142  0.2902  0.3140  0.2183
   50DOPE   H7X 6417   8.224   4.966  14.178 -2.4655  0.4607  2.0003
   50DOPE   H7Y 6418   8.305   5.115  14.179 -0.5064  1.3925  1.0122
   50DOPE   C38 6419   8.087   5.119  14.208 -0.3394 -0.1724 -0.5656
   50DOPE   H8X 6420   8.093   5.110  14.319 -0.5916 -1.8217 -0.6655
   50DOPE   H8Y 6421   8.001   5.053  14.186  0.1269 -1.4330  1.2101
   50DOPE   C39 6422   8.069   5.266  14.171 -0.7371  0.1714  0.1411
   50DOPE   H9X 6423   8.072   5.273  14.061 -0.2987  1.0439  0.2007
   50DOPE  C310 6424   8.057   5.372  14.251  0.7391  0.1334 -0.3209
   50DOPE  H10X 6425   8.068   5.469  14.201  2.1657  0.6634  0.9585
   50DOPE  C311 6426   8.042   5.385  14.404 -0.1365 -0.1517  0.1597
   50DOPE  H11X 6427   8.143   5.420  14.437  0.0713  1.1221 -1.6484
   50DOPE  H11Y 6428   7.986   5.481  14.418  0.4729  0.2087  0.1828
   50DOPE  C312 6429   7.970   5.279  14.483  0.5426 -0.2353 -0.2458
   50DOPE  H12X 6430   8.044   5.199  14.503  0.4012 -0.3621 -0.2221
   50DOPE  H12Y 6431   7.890   5.232  14.421  1.0917 -2.4083  0.6103
   50DOPE  C313 6432   7.928   5.340  14.622  0.6299  0.1827 -0.0729
   50DOPE  H13X 6433   7.887   5.442  14.611  0.0176 -0.0244  0.2234
   50DOPE  H13Y 6434   7.845   5.276  14.659  0.6749  0.6110  0.7733
   50DOPE  C314 6435   8.041   5.335  14.724  0.2343  1.8672 -0.4087
   50DOPE  H14X 6436   8.135   5.357  14.669  0.0724  1.9617 -0.6520
   50DOPE  H14Y 6437   8.046   5.231  14.761  0.6032  1.4010 -1.7263
   50DOPE  C315 6438   8.037   5.424  14.849  0.5196 -0.3139 -0.8011
   50DOPE  H15X 6439   8.002   5.528  14.834 -0.8437 -0.7569 -0.9076
   50DOPE  H15Y 6440   8.144   5.429  14.878  0.6488 -0.7117 -1.1875
   50DOPE  C316 6441   7.964   5.371  14.978 -0.7771 -0.4773  0.4979
   50DOPE  H16X 6442   7.938   5.265  14.960  0.6234 -0.7598 -0.0300
   50DOPE  H16Y 6443   7.868   5.422  15.000 -0.8429 -0.0004 -0.8294
   50DOPE  C317 6444   8.051   5.375  15.107 -0.2837  0.6808 -0.1838
   50DOPE  H17X 6445   8.149   5.333  15.076 -0.2162  2.1108 -2.1114
   50DOPE  H17Y 6446   8.068   5.482  15.132  1.9019 -0.2844  3.1112
   50DOPE  C318 6447   7.979   5.299  15.219  0.0255  0.3076  0.3210
   50DOPE  H18X 6448   8.037   5.305  15.313  3.4400 -0.2826 -1.5725
   50DOPE  H18Y 6449   7.876   5.338  15.232  0.4461  1.0674  1.6131
   50DOPE  H18Z 6450   7.972   5.194  15.184  2.7853  0.4891 -1.0721
   51DOPE     N 6451   2.427   6.846  12.864  0.3771 -0.1955  0.6542
   51DOPE   HN1 6452   2.450   6.947  12.876 -0.9409  0.4415 -1.5187
   51DOPE   HN2 6453   2.462   6.806  12.774 -1.3973 -3.7714  1.3924
   51DOPE   HN3 6454   2.323   6.842  12.861  0.2598  1.9922 -0.4695
   51DOPE   C12 6455   2.484   6.757  12.969 -0.0260  0.0886  0.1656
   51DOPE  H12A 6456   2.441   6.655  12.960  0.2857  0.0106 -0.4902
   51DOPE  H12B 6457   2.453   6.798  13.067 -0.4641 -0.5745  0.3045
   51DOPE   C11 6458   2.635   6.739  12.940  0.7783  0.4801  0.2170
   51DOPE  H11A 6459   2.647   6.693  12.840 -0.5639  0.1339  0.1949
   51DOPE  H11B 6460   2.677   6.664  13.011 -1.1609 -0.7686  0.1253
   51DOPE     P 6461   2.780   6.921  13.068 -0.1100 -0.3665 -0.1266
   51DOPE   O13 6462   2.780   7.069  13.047  0.0548  0.9082  0.1486
   51DOPE   O14 6463   2.909   6.856  13.084 -0.3411 -0.1291 -0.0632
   51DOPE   O11 6464   2.685   6.875  13.181 -0.1070 -0.4457 -0.0765
   51DOPE   O12 6465   2.704   6.859  12.939 -0.1446  0.2407  0.2223
   51DOPE    C1 6466   2.620   6.968  13.264  0.1261  0.1533  0.0145
   51DOPE    HA 6467   2.510   6.956  13.254  0.0231  2.3358 -2.6736
   51DOPE    HB 6468   2.634   7.075  13.238  1.9474 -0.5295 -2.0392
   51DOPE    C2 6469   2.684   6.960  13.407  0.1003  0.0018 -0.2645
   51DOPE    HS 6470   2.611   7.017  13.468  0.9337  0.6857  0.1126
   51DOPE   O21 6471   2.810   7.025  13.407  0.1100 -0.3299 -0.8589
   51DOPE   C21 6472   2.809   7.158  13.417  0.4973 -0.6001 -0.3165
   51DOPE   O22 6473   2.703   7.221  13.445 -0.3254  0.4004 -0.7086
   51DOPE   C22 6474   2.943   7.215  13.379  1.3532 -0.3698 -0.0174
   51DOPE   H2R 6475   2.931   7.324  13.367 -1.2437 -0.7846 -2.2237
   51DOPE   H2S 6476   2.971   7.190  13.274  1.4821  2.3504 -0.6890
   51DOPE    C3 6477   2.694   6.812  13.460 -0.3926 -0.4845  0.4978
   51DOPE    HX 6478   2.792   6.766  13.435 -0.2705 -0.3622  0.7372
   51DOPE    HY 6479   2.626   6.753  13.396 -0.8109 -0.9013  1.3087
   51DOPE   O31 6480   2.676   6.803  13.610  0.1422 -0.2113  0.0604
   51DOPE   C31 6481   2.545   6.782  13.640 -0.1664  0.0820  0.1095
   51DOPE   O32 6482   2.455   6.783  13.555 -0.4284  0.1035  0.0578
   51DOPE   C32 6483   2.522   6.766  13.788 -0.2253 -0.7637  0.5613
   51DOPE   H2X 6484   2.598   6.826  13.843 -0.1953  1.2398 -1.4852
   51DOPE   H2Y 6485   2.420   6.810  13.799  1.0312  2.7183 -0.2213
   51DOPE   C23 6486   3.044   7.189  13.491  0.5810  0.1467 -0.2229
   51DOPE   H3R 6487   3.142   7.235  13.466  0.3781  0.7438  0.0706
   51DOPE   H3S 6488   3.046   7.078  13.497 -2.9073 -0.0700 -1.1546
   51DOPE   C24 6489   3.008   7.254  13.632 -0.0338 -0.0175 -0.2284
   51DOPE   H4R 6490   2.900   7.239  13.656 -1.0074  2.4517 -2.5198
   51DOPE   H4S 6491   3.033   7.362  13.638  0.1574 -0.1481  2.7032
   51DOPE   C25 6492   3.102   7.194  13.735  1.1827 -0.3389 -0.5804
   51DOPE   H5R 6493   3.209   7.211  13.709  0.8181  1.6750 -0.9096
   51DOPE   H5S 6494   3.075   7.087  13.749 -0.7514  0.4336  2.7980
   51DOPE   C26 6495   3.084   7.270  13.869 -0.1334  0.1970  0.2679
   51DOPE   H6R 6496   2.975   7.267  13.889  0.2477 -0.1331  2.5875
   51DOPE   H6S 6497   3.129   7.372  13.867 -0.1499  0.2411  1.6417
   51DOPE   C27 6498   3.165   7.204  13.979  0.5575 -0.0161 -0.0976
   51DOPE   H7R 6499   3.269   7.178  13.951 -0.0365 -4.7794  1.0827
   51DOPE   H7S 6500   3.134   7.097  13.990  1.3533 -0.1971  0.4709
   51DOPE   C28 6501   3.144   7.260  14.122  0.1789  0.0445  0.0263
   51DOPE   H8R 6502   3.182   7.364  14.118 -0.5850  0.2902 -1.7607
   51DOPE   H8S 6503   3.221   7.198  14.173 -0.7596 -0.0762  1.3322
   51DOPE   C29 6504   3.008   7.261  14.179 -0.9880  0.1571  0.1224
   51DOPE   H9R 6505   2.945   7.338  14.133  0.2079  0.1856 -1.5490
   51DOPE  C210 6506   2.952   7.186  14.273 -0.1029  0.1736 -0.1180
   51DOPE  H10R 6507   2.846   7.180  14.301  0.1551 -0.5201  0.7581
   51DOPE  C211 6508   3.042   7.083  14.340 -0.3129 -1.4513  0.2094
   51DOPE  H11R 6509   3.133   7.132  14.380 -2.2493  1.6837  1.1268
   51DOPE  H11S 6510   3.066   6.998  14.272  1.1739 -0.0579 -1.0891
   51DOPE  C212 6511   2.970   7.027  14.463 -0.5147 -0.3554 -0.6626
   51DOPE  H12R 6512   2.892   6.955  14.429 -2.5593  0.0763  2.5904
   51DOPE  H12S 6513   2.937   7.109  14.531  1.6449 -1.3641  1.7620
   51DOPE  C213 6514   3.067   6.946  14.548 -0.3821  0.1077  0.0321
   51DOPE  H13R 6515   3.121   6.872  14.487 -2.4172 -0.6411 -0.9399
   51DOPE  H13S 6516   2.993   6.894  14.613 -2.5978  1.5547 -1.1936
   51DOPE  C214 6517   3.160   7.047  14.621 -0.1324 -0.3581  0.1347
   51DOPE  H14R 6518   3.114   7.147  14.607  0.4464 -0.3464 -2.0666
   51DOPE  H14S 6519   3.264   7.049  14.583  0.0698  0.2040  0.6951
   51DOPE  C215 6520   3.173   7.017  14.774  0.0991 -0.0649 -0.5506
   51DOPE  H15R 6521   3.238   7.096  14.818  0.0287 -0.3440  0.0629
   51DOPE  H15S 6522   3.226   6.920  14.789 -1.2684 -0.7683 -0.1817
   51DOPE  C216 6523   3.042   7.020  14.844  0.0673 -0.1486 -0.1928
   51DOPE  H16R 6524   2.963   7.051  14.772  0.4718 -0.2181 -0.6716
   51DOPE  H16S 6525   3.061   7.092  14.926 -1.2341 -0.8650  0.7827
   51DOPE  C217 6526   3.002   6.880  14.902 -0.1130  0.3310  0.0372
   51DOPE  H17R 6527   3.093   6.837  14.949  1.5394  0.2659 -2.9317
   51DOPE  H17S 6528   2.988   6.801  14.825  2.6371 -2.8375  2.4938
   51DOPE  C218 6529   2.879   6.882  14.990 -0.5471 -0.5251  0.4819
   51DOPE  H18R 6530   2.789   6.884  14.924  1.0364 -0.4617 -1.7812
   51DOPE  H18S 6531   2.871   6.973  15.053 -1.7714 -1.2345  1.4122
   51DOPE  H18T 6532   2.878   6.799  15.063 -0.7029  0.7962  2.0392
   51DOPE   C33 6533   2.514   6.616  13.839  0.1012  0.0323 -0.3957
   51DOPE   H3X 6534   2.609   6.574  13.798  0.3000  1.3810 -1.4129
   51DOPE   H3Y 6535   2.426   6.558  13.806 -0.1940  1.0928 -1.5417
   51DOPE   C34 6536   2.511   6.606  13.991 -0.0496  0.2412  0.0017
   51DOPE   H4X 6537   2.405   6.596  14.023 -0.4196  0.1810 -1.1691
   51DOPE   H4Y 6538   2.555   6.508  14.018 -0.4333  0.1251  0.2144
   51DOPE   C35 6539   2.587   6.714  14.070 -0.7836  0.4734 -0.1147
   51DOPE   H5X 6540   2.538   6.814  14.078  1.6244  1.8105 -0.9396
   51DOPE   H5Y 6541   2.682   6.738  14.019 -1.6179  1.5220 -1.2509
   51DOPE   C36 6542   2.616   6.674  14.217 -0.3936 -0.6380  0.1219
   51DOPE   H6X 6543   2.681   6.758  14.250 -0.9495  0.4527 -1.4073
   51DOPE   H6Y 6544   2.680   6.584  14.219  2.1904  1.0277 -1.7240
   51DOPE   C37 6545   2.488   6.664  14.307 -0.2748 -0.8502  0.5378
   51DOPE   H7X 6546   2.399   6.715  14.266  0.2404  1.5210  2.1884
   51DOPE   H7Y 6547   2.455   6.558  14.317  0.6125 -0.9968  2.4303
   51DOPE   C38 6548   2.508   6.713  14.456  0.9681  0.5679 -0.3553
   51DOPE   H8X 6549   2.573   6.803  14.458  0.8417  0.6821 -1.2708
   51DOPE   H8Y 6550   2.564   6.627  14.500 -0.9033 -0.1358  0.7649
   51DOPE   C39 6551   2.375   6.750  14.516 -0.5776  0.2242 -0.5553
   51DOPE   H9X 6552   2.303   6.797  14.447 -1.8040 -2.2679 -1.0966
   51DOPE  C310 6553   2.346   6.763  14.651 -0.8297  0.1673 -0.3767
   51DOPE  H10X 6554   2.246   6.798  14.679 -0.2416  1.8177 -0.2471
   51DOPE  C311 6555   2.439   6.743  14.773 -0.1645  0.1141 -0.0507
   51DOPE  H11X 6556   2.540   6.703  14.748  0.5232  1.7420 -0.0171
   51DOPE  H11Y 6557   2.455   6.833  14.835 -1.5672 -0.4293  1.1302
   51DOPE  C312 6558   2.388   6.623  14.860  0.2474  0.4708  0.4014
   51DOPE  H12X 6559   2.458   6.600  14.943  1.7376 -1.9377 -1.3776
   51DOPE  H12Y 6560   2.392   6.524  14.809 -0.5240 -0.1868  1.5783
   51DOPE  C313 6561   2.254   6.655  14.922  0.1490  0.3916  0.3203
   51DOPE  H13X 6562   2.257   6.749  14.981 -1.8827  0.2934  0.6609
   51DOPE  H13Y 6563   2.172   6.660  14.847  0.3729  0.0578  0.0503
   51DOPE  C314 6564   2.193   6.546  15.020 -0.7097 -0.5957 -0.4969
   51DOPE  H14X 6565   2.143   6.470  14.957 -1.7045 -0.6245  0.3123
   51DOPE  H14Y 6566   2.117   6.595  15.084  1.2797 -0.9205  2.3136
   51DOPE  C315 6567   2.288   6.488  15.121 -0.1267 -0.5031 -0.2224
   51DOPE  H15X 6568   2.320   6.580  15.175 -0.2535  1.2563 -2.9062
   51DOPE  H15Y 6569   2.381   6.443  15.081  2.9901  1.5367  3.9112
   51DOPE  C316 6570   2.223   6.386  15.220 -0.1747  0.4335  0.0394
   51DOPE  H16X 6571   2.184   6.301  15.161 -1.5914  1.9674 -1.3258
   51DOPE  H16Y 6572   2.135   6.435  15.266 -2.0753 -1.4516 -1.4142
   51DOPE  C317 6573   2.324   6.345  15.325  0.1709 -0.2126 -0.2938
   51DOPE  H17X 6574   2.423   6.310  15.288  0.9643  0.3078  1.2117
   51DOPE  H17Y 6575   2.356   6.441  15.371 -1.9634 -0.0895  1.0931
   51DOPE  C318 6576   2.268   6.246  15.428  0.4556  0.4747  0.2407
   51DOPE  H18X 6577   2.234   6.150  15.384  0.4685 -0.2700  1.8069
   51DOPE  H18Y 6578   2.339   6.217  15.508  2.5601  0.6290 -1.4547
   51DOPE  H18Z 6579   2.176   6.292  15.469  0.3217 -0.0929  0.5758
   52DOPE     N 6580   0.360   4.555  12.729 -0.5325 -0.5197  0.3717
   52DOPE   HN1 6581   0.413   4.490  12.790 -1.5557 -0.4217  1.3996
   52DOPE   HN2 6582   0.285   4.498  12.684 -0.9762 -0.7958  1.4378
   52DOPE   HN3 6583   0.414   4.600  12.652 -2.7068 -1.2418 -1.7104
   52DOPE   C12 6584   0.310   4.658  12.819  0.2480 -0.2611  0.8531
   52DOPE  H12A 6585   0.208   4.685  12.786 -0.9881 -2.4015  2.5973
   52DOPE  H12B 6586   0.376   4.746  12.805 -1.4147  1.1072  1.2787
   52DOPE   C11 6587   0.311   4.611  12.968  0.5343  0.0886 -0.0954
   52DOPE  H11A 6588   0.233   4.538  12.999 -0.4690  1.1215 -0.1291
   52DOPE  H11B 6589   0.265   4.697  13.019 -2.6363 -1.4231 -0.1764
   52DOPE     P 6590   0.509   4.451  13.036  0.2879  0.0187  0.1481
   52DOPE   O13 6591   0.652   4.472  13.052 -0.3167 -0.0662 -0.0740
   52DOPE   O14 6592   0.464   4.367  12.924  0.3238  0.2839  0.1675
   52DOPE   O11 6593   0.441   4.394  13.170 -0.6399  0.8767 -0.1874
   52DOPE   O12 6594   0.438   4.596  13.020  0.3922 -0.1303  0.4549
   52DOPE    C1 6595   0.440   4.469  13.285 -0.0915 -0.5559 -0.4632
   52DOPE    HA 6596   0.420   4.576  13.264 -0.4518 -0.5409 -0.0557
   52DOPE    HB 6597   0.542   4.467  13.331 -0.5312  1.5535  0.7628
   52DOPE    C2 6598   0.326   4.422  13.376  0.2779 -0.1011  0.7473
   52DOPE    HS 6599   0.321   4.499  13.456 -2.5206  1.6980 -0.9656
   52DOPE   O21 6600   0.358   4.281  13.411 -0.4766 -0.0529  0.2336
   52DOPE   C21 6601   0.336   4.262  13.543 -0.2356  0.2216  0.0804
   52DOPE   O22 6602   0.300   4.344  13.619 -0.1588 -0.2529 -0.1079
   52DOPE   C22 6603   0.358   4.113  13.570 -0.1850  0.3555 -0.2705
   52DOPE   H2R 6604   0.462   4.089  13.539  0.4642  0.7779  1.4493
   52DOPE   H2S 6605   0.284   4.053  13.513 -2.7605  1.2927  1.8608
   52DOPE    C3 6606   0.185   4.433  13.304 -0.3552  0.6042  0.0977
   52DOPE    HX 6607   0.182   4.351  13.229  0.7900  0.4422  0.2080
   52DOPE    HY 6608   0.177   4.526  13.246 -0.0018 -0.4507 -1.7153
   52DOPE   O31 6609   0.075   4.430  13.399 -0.0111  0.2428  0.8257
   52DOPE   C31 6610   0.021   4.304  13.417  0.1317 -0.5622 -0.2114
   52DOPE   O32 6611   0.062   4.204  13.360  0.1255 -0.3355 -0.0846
   52DOPE   C32 6612  -0.079   4.312  13.538 -0.4541 -0.0951 -0.4416
   52DOPE   H2X 6613  -0.057   4.230  13.610 -0.6086  1.1669  1.0909
   52DOPE   H2Y 6614  -0.044   4.401  13.594 -0.5343 -0.6369  0.4951
   52DOPE   C23 6615   0.364   4.091  13.721 -0.6160 -0.1215  0.0911
   52DOPE   H3R 6616   0.295   4.158  13.776  0.4657  1.5039 -0.4549
   52DOPE   H3S 6617   0.461   4.127  13.760  0.6296 -1.4097 -1.6743
   52DOPE   C24 6618   0.352   3.944  13.760 -0.3722  0.4369 -0.4773
   52DOPE   H4R 6619   0.423   3.876  13.708 -1.6188 -1.7780  0.5344
   52DOPE   H4S 6620   0.252   3.904  13.734 -0.3460  0.5935 -0.8194
   52DOPE   C25 6621   0.362   3.921  13.915  1.0492  0.7247 -0.3906
   52DOPE   H5R 6622   0.449   3.978  13.955  1.7988 -1.3964  1.2112
   52DOPE   H5S 6623   0.386   3.812  13.919  0.1386  0.4975 -0.9451
   52DOPE   C26 6624   0.235   3.969  13.984 -0.1076 -0.2077  0.1314
   52DOPE   H6R 6625   0.157   3.890  13.978 -0.6792  0.3468  0.1860
   52DOPE   H6S 6626   0.191   4.061  13.941 -1.8117 -2.2122 -2.7390
   52DOPE   C27 6627   0.254   3.995  14.134 -0.0232  0.2809  0.1873
   52DOPE   H7R 6628   0.317   4.087  14.132 -0.0972  0.5031 -4.7114
   52DOPE   H7S 6629   0.312   3.910  14.176 -2.5027 -0.2502  2.8162
   52DOPE   C28 6630   0.125   4.028  14.207  0.0371 -0.3017  0.0677
   52DOPE   H8R 6631   0.084   4.117  14.156 -1.6617 -1.2380 -0.2955
   52DOPE   H8S 6632   0.132   4.077  14.307 -2.6252  1.5573 -0.5487
   52DOPE   C29 6633   0.032   3.909  14.220  0.9213 -0.0825 -1.1708
   52DOPE   H9R 6634   0.074   3.813  14.253 -1.3101 -0.9030 -0.5390
   52DOPE  C210 6635  -0.097   3.909  14.194  0.3201  0.2837 -0.0829
   52DOPE  H10R 6636  -0.158   3.817  14.190 -1.6979  1.5939 -1.7549
   52DOPE  C211 6637  -0.172   4.032  14.140 -0.1640 -0.6398  0.1826
   52DOPE  H11R 6638  -0.134   4.117  14.199  1.0649 -1.4041  0.5291
   52DOPE  H11S 6639  -0.278   4.019  14.170 -0.0317 -0.4303  0.7387
   52DOPE  C212 6640  -0.155   4.057  13.992  0.2995  1.3501 -0.4090
   52DOPE  H12R 6641  -0.047   4.079  13.984  1.0766 -0.8467  2.2511
   52DOPE  H12S 6642  -0.214   4.140  13.949 -1.6064 -0.5764 -1.7421
   52DOPE  C213 6643  -0.173   3.936  13.906  0.1085 -0.1862 -0.4115
   52DOPE  H13R 6644  -0.277   3.898  13.912  0.4774 -1.2856 -0.8030
   52DOPE  H13S 6645  -0.105   3.851  13.929  0.1388  0.2587  1.2563
   52DOPE  C214 6646  -0.138   3.973  13.760 -0.5544  0.3614  0.8062
   52DOPE  H14R 6647  -0.031   3.999  13.750 -0.6431 -0.0223 -1.8777
   52DOPE  H14S 6648  -0.200   4.059  13.728 -0.8427 -0.7555 -1.9113
   52DOPE  C215 6649  -0.175   3.871  13.653 -0.3758  0.5297 -0.0316
   52DOPE  H15R 6650  -0.284   3.854  13.662 -0.1477 -0.7318  0.5268
   52DOPE  H15S 6651  -0.117   3.777  13.666  1.2973  1.6527  0.9800
   52DOPE  C216 6652  -0.154   3.928  13.513 -0.7204 -0.1705 -0.1695
   52DOPE  H16R 6653  -0.045   3.940  13.495 -1.0070 -0.3572 -2.3279
   52DOPE  H16S 6654  -0.211   4.023  13.504 -1.4283 -0.6180 -0.4813
   52DOPE  C217 6655  -0.196   3.827  13.405  0.0973 -0.5937  0.2972
   52DOPE  H17R 6656  -0.193   3.876  13.305 -1.9338 -1.5642 -0.2955
   52DOPE  H17S 6657  -0.303   3.802  13.420  0.0971 -0.3299  0.7542
   52DOPE  C218 6658  -0.119   3.702  13.404 -0.0665  0.4946  0.4617
   52DOPE  H18R 6659  -0.129   3.643  13.498  0.3169  1.3706  1.0629
   52DOPE  H18S 6660  -0.161   3.634  13.328  2.0526 -0.5890  0.1829
   52DOPE  H18T 6661  -0.010   3.721  13.395  0.0309  0.1993  0.9705
   52DOPE   C33 6662  -0.234   4.310  13.512  0.0947 -0.1208 -0.1087
   52DOPE   H3X 6663  -0.258   4.212  13.465  1.8516 -0.3167 -0.6743
   52DOPE   H3Y 6664  -0.263   4.392  13.442  0.1955  0.7991  0.9131
   52DOPE   C34 6665  -0.300   4.323  13.651  0.6564 -0.9109  0.4103
   52DOPE   H4X 6666  -0.407   4.295  13.640  0.7826 -0.6033 -2.1233
   52DOPE   H4Y 6667  -0.264   4.259  13.734 -0.1847  0.6985  2.1029
   52DOPE   C35 6668  -0.300   4.467  13.705 -0.4512 -0.0601 -0.2776
   52DOPE   H5X 6669  -0.342   4.535  13.627 -2.7648 -0.6276  0.3954
   52DOPE   H5Y 6670  -0.201   4.496  13.746 -0.3604  1.7611 -1.6516
   52DOPE   C36 6671  -0.401   4.479  13.823  0.0407  0.3772 -0.0129
   52DOPE   H6X 6672  -0.373   4.399  13.894  1.7987 -0.6995 -1.7811
   52DOPE   H6Y 6673  -0.505   4.459  13.789  0.5317 -1.5015 -0.5050
   52DOPE   C37 6674  -0.393   4.615  13.895 -0.7074  0.5010  0.4835
   52DOPE   H7X 6675  -0.292   4.659  13.882 -1.8177  3.5505  1.2625
   52DOPE   H7Y 6676  -0.455   4.680  13.830 -0.6804 -0.3852 -0.4559
   52DOPE   C38 6677  -0.446   4.598  14.041  0.2962 -0.6067  0.7121
   52DOPE   H8X 6678  -0.528   4.524  14.025 -0.7256  1.0849 -3.2046
   52DOPE   H8Y 6679  -0.501   4.690  14.072 -0.5141 -0.3797 -1.2380
   52DOPE   C39 6680  -0.365   4.535  14.147 -1.0350  0.3792 -0.0303
   52DOPE   H9X 6681  -0.311   4.443  14.119 -0.1130  0.0928  2.4275
   52DOPE  C310 6682  -0.341   4.586  14.270  0.0123  0.6867 -0.2349
   52DOPE  H10X 6683  -0.267   4.540  14.337 -2.1032 -1.4638  0.7558
   52DOPE  C311 6684  -0.393   4.720  14.325 -0.3058  0.0598 -0.3332
   52DOPE  H11X 6685  -0.312   4.794  14.342  1.9696 -2.1862 -0.7778
   52DOPE  H11Y 6686  -0.473   4.751  14.253 -1.0964  0.2763  0.6194
   52DOPE  C312 6687  -0.458   4.703  14.462 -0.6551 -0.0421 -0.0361
   52DOPE  H12X 6688  -0.398   4.639  14.531  2.3239  0.2041 -2.2281
   52DOPE  H12Y 6689  -0.561   4.663  14.455 -1.3356  1.6430 -0.1472
   52DOPE  C313 6690  -0.461   4.848  14.519  0.2395 -0.5264 -0.5377
   52DOPE  H13X 6691  -0.357   4.886  14.533 -0.1658  0.4899 -0.2121
   52DOPE  H13Y 6692  -0.516   4.916  14.450 -0.0884 -1.1145 -0.8683
   52DOPE  C314 6693  -0.532   4.870  14.653  0.4653 -0.2332  0.3006
   52DOPE  H14X 6694  -0.639   4.846  14.638  0.5199  0.8272 -2.2731
   52DOPE  H14Y 6695  -0.516   4.977  14.680 -1.0920  0.6010 -1.8609
   52DOPE  C315 6696  -0.472   4.786  14.770  0.0358  0.1557 -0.4130
   52DOPE  H15X 6697  -0.363   4.804  14.767  0.4544 -2.1140 -0.6531
   52DOPE  H15Y 6698  -0.480   4.676  14.751  1.0306  0.1393 -0.7698
   52DOPE  C316 6699  -0.530   4.824  14.908  0.3845  1.5443 -0.2384
   52DOPE  H16X 6700  -0.635   4.788  14.908  0.9552 -0.2444 -0.9611
   52DOPE  H16Y 6701  -0.531   4.934  14.923  1.0955  1.1801  3.0627
   52DOPE  C317 6702  -0.446   4.761  15.025  0.0939  0.0659 -0.0615
   52DOPE  H17X 6703  -0.440   4.650  15.023 -1.8012 -0.1024  1.2070
   52DOPE  H17Y 6704  -0.342   4.793  15.004  0.0033 -0.0135 -0.6627
   52DOPE  C318 6705  -0.513   4.793  15.160  0.3433  0.2516 -0.7273
   52DOPE  H18X 6706  -0.436   4.757  15.232  0.3104 -2.5562 -1.9774
   52DOPE  H18Y 6707  -0.520   4.902  15.175  1.0262  0.1130  0.8644
   52DOPE  H18Z 6708  -0.602   4.734  15.192  0.3647  1.8113  2.6574
   53DOPE     N 6709   5.294   0.225  13.154 -0.1902 -0.2227  0.1403
   53DOPE   HN1 6710   5.223   0.155  13.186 -2.6660  0.7195 -2.8008
   53DOPE   HN2 6711   5.229   0.299  13.119  0.2956 -0.5704 -1.5667
   53DOPE   HN3 6712   5.348   0.195  13.071 -0.5710 -0.9538  0.1557
   53DOPE   C12 6713   5.390   0.286  13.247 -0.8461 -0.0235 -0.1396
   53DOPE  H12A 6714   5.480   0.221  13.253 -0.7607 -0.1299 -2.0244
   53DOPE  H12B 6715   5.346   0.301  13.348  2.9555  1.8880  1.4020
   53DOPE   C11 6716   5.411   0.432  13.192 -0.2708  0.4033  0.1053
   53DOPE  H11A 6717   5.457   0.495  13.271  0.0254  0.8928 -0.4552
   53DOPE  H11B 6718   5.309   0.475  13.186 -1.2735 -1.6645  1.2016
   53DOPE     P 6719   5.643   0.424  13.062 -0.2173 -0.5518 -0.1191
   53DOPE   O13 6720   5.697   0.550  12.998 -0.6162  0.1113  0.5045
   53DOPE   O14 6721   5.677   0.296  12.994  0.4290  0.3668  0.2675
   53DOPE   O11 6722   5.688   0.408  13.214  0.9716 -0.4012 -1.0754
   53DOPE   O12 6723   5.489   0.433  13.074  0.2140  0.2820  0.4066
   53DOPE    C1 6724   5.815   0.440  13.271 -0.1935 -0.1656  0.4408
   53DOPE    HA 6725   5.816   0.548  13.295 -1.8100  0.5291 -2.2177
   53DOPE    HB 6726   5.897   0.423  13.198 -0.0008  2.9548 -0.1750
   53DOPE    C2 6727   5.838   0.351  13.399 -0.2068 -0.1544  0.0761
   53DOPE    HS 6728   5.817   0.244  13.383  0.3124  0.0197 -1.9881
   53DOPE   O21 6729   5.767   0.406  13.507  0.1297  0.3937 -0.1036
   53DOPE   C21 6730   5.647   0.373  13.520 -0.7448  0.6198  0.1901
   53DOPE   O22 6731   5.594   0.263  13.497  0.1837  0.4104 -0.1590
   53DOPE   C22 6732   5.569   0.490  13.564  1.0257 -0.5461  0.3171
   53DOPE   H2R 6733   5.537   0.532  13.466 -0.9247 -0.2459  1.0297
   53DOPE   H2S 6734   5.626   0.573  13.612  2.1083 -1.5328  0.7735
   53DOPE    C3 6735   5.993   0.336  13.436  0.0824 -0.3644 -0.3411
   53DOPE    HX 6736   6.035   0.439  13.432 -0.9881  0.0765 -0.6390
   53DOPE    HY 6737   6.050   0.271  13.365 -0.9229 -1.7441  0.0629
   53DOPE   O31 6738   6.009   0.281  13.566 -0.0251  0.0109  0.4391
   53DOPE   C31 6739   5.972   0.146  13.587 -0.0035 -0.3675  0.4457
   53DOPE   O32 6740   5.923   0.076  13.500 -0.6233 -0.3105  0.3422
   53DOPE   C32 6741   5.994   0.111  13.735  0.5692 -0.4152  0.6396
   53DOPE   H2X 6742   6.087   0.167  13.755  1.0254 -1.1083  0.4915
   53DOPE   H2Y 6743   5.910   0.153  13.795 -0.6689 -0.8824 -0.6991
   53DOPE   C23 6744   5.442   0.447  13.646 -0.5623 -0.3627 -0.6594
   53DOPE   H3R 6745   5.368   0.372  13.610 -1.7160  0.7103 -0.6014
   53DOPE   H3S 6746   5.382   0.541  13.643 -0.0241  0.1576  2.2291
   53DOPE   C24 6747   5.480   0.430  13.792 -0.2929 -0.2378  0.1415
   53DOPE   H4R 6748   5.388   0.442  13.853 -0.1137 -0.5709  0.4764
   53DOPE   H4S 6749   5.552   0.509  13.823 -0.3557  0.9808 -2.4908
   53DOPE   C25 6750   5.556   0.300  13.829 -0.0582 -0.2367  0.3487
   53DOPE   H5R 6751   5.646   0.289  13.765 -1.7713 -2.4185 -1.8899
   53DOPE   H5S 6752   5.485   0.216  13.817 -1.0465  0.7872 -1.4260
   53DOPE   C26 6753   5.613   0.301  13.970 -0.5726  0.2031  0.7817
   53DOPE   H6R 6754   5.536   0.334  14.043  0.0652  0.2441  1.4516
   53DOPE   H6S 6755   5.696   0.374  13.984  1.4392 -2.2608  2.4514
   53DOPE   C27 6756   5.656   0.158  14.014 -0.8558  0.3022  0.1704
   53DOPE   H7R 6757   5.750   0.118  13.971 -1.8117 -0.8555 -0.8937
   53DOPE   H7S 6758   5.588   0.078  13.979 -1.8733  1.4147 -0.4669
   53DOPE   C28 6759   5.653   0.158  14.172  0.4443 -0.3595 -0.1054
   53DOPE   H8R 6760   5.553   0.199  14.200  0.4729  0.3229 -0.9883
   53DOPE   H8S 6761   5.737   0.223  14.202  2.9659 -1.6434 -3.6987
   53DOPE   C29 6762   5.668   0.028  14.244 -0.0700  0.4186  0.1544
   53DOPE   H9R 6763   5.772  -0.004  14.256 -0.3386 -0.0337  1.4467
   53DOPE  C210 6764   5.573  -0.041  14.311  0.2166 -0.1891 -1.0156
   53DOPE  H10R 6765   5.608  -0.128  14.369 -2.4454 -0.4639  0.3354
   53DOPE  C211 6766   5.433   0.009  14.329 -0.6518  0.9281  0.1736
   53DOPE  H11R 6767   5.368  -0.081  14.341  1.9441 -1.2586 -1.2415
   53DOPE  H11S 6768   5.392   0.061  14.240  0.0142  2.0402  0.4975
   53DOPE  C212 6769   5.409   0.104  14.448  0.5893 -0.0515  0.1738
   53DOPE  H12R 6770   5.301   0.129  14.446  1.2715  3.4459  0.6894
   53DOPE  H12S 6771   5.478   0.191  14.441  1.8010 -0.9739  0.3493
   53DOPE  C213 6772   5.448   0.049  14.589  0.1314  0.5063  0.4920
   53DOPE  H13R 6773   5.425   0.133  14.657 -1.6121  1.4899 -1.2298
   53DOPE  H13S 6774   5.558   0.028  14.588  0.2080  0.9002  0.2323
   53DOPE  C214 6775   5.385  -0.083  14.623  0.7809  0.4782  0.4101
   53DOPE  H14R 6776   5.431  -0.167  14.566  1.0096  0.1313  1.0891
   53DOPE  H14S 6777   5.275  -0.082  14.610  0.7530 -1.1203  0.2620
   53DOPE  C215 6778   5.390  -0.104  14.778  0.0080 -0.1303  0.4622
   53DOPE  H15R 6779   5.340  -0.028  14.842  1.6998  0.8464  0.6836
   53DOPE  H15S 6780   5.500  -0.093  14.793  0.0600  0.4274 -0.2726
   53DOPE  C216 6781   5.343  -0.245  14.821 -0.1944  0.1759 -0.4233
   53DOPE  H16R 6782   5.412  -0.323  14.781  0.9074  0.9337 -0.0564
   53DOPE  H16S 6783   5.237  -0.255  14.789 -0.0517  1.0179 -1.2093
   53DOPE  C217 6784   5.346  -0.260  14.975  0.0348  0.3593 -0.5240
   53DOPE  H17R 6785   5.289  -0.176  15.020  0.6756  0.5519 -0.0474
   53DOPE  H17S 6786   5.452  -0.245  15.006  0.2219 -1.4748 -0.1720
   53DOPE  C218 6787   5.299  -0.393  15.019 -0.2130  0.9302  0.1884
   53DOPE  H18R 6788   5.323  -0.410  15.126  0.1688 -0.9785 -0.1621
   53DOPE  H18S 6789   5.350  -0.473  14.961 -1.4224 -0.5781  1.1508
   53DOPE  H18T 6790   5.189  -0.398  15.004 -0.3160  2.8933  0.0446
   53DOPE   C33 6791   6.027  -0.036  13.761  0.3867  0.6866 -0.0690
   53DOPE   H3X 6792   6.119  -0.052  13.702 -0.1384  0.2428 -0.7810
   53DOPE   H3Y 6793   5.944  -0.103  13.729 -0.6321  1.0792  1.6370
   53DOPE   C34 6794   6.076  -0.069  13.903  0.2570 -0.3715  0.5167
   53DOPE   H4X 6795   6.110  -0.175  13.901  1.9260  0.1473 -0.5825
   53DOPE   H4Y 6796   6.165  -0.007  13.928  0.2697  0.3138 -1.0989
   53DOPE   C35 6797   5.979  -0.064  14.015  0.3333 -0.2716  0.3059
   53DOPE   H5X 6798   5.892  -0.125  13.981  0.8716 -1.2070  0.5502
   53DOPE   H5Y 6799   5.947   0.040  14.035 -0.0825 -0.1467 -0.9334
   53DOPE   C36 6800   6.019  -0.130  14.151  0.6634  0.8506  0.3010
   53DOPE   H6X 6801   5.945  -0.100  14.228  0.0758 -0.4356  0.2508
   53DOPE   H6Y 6802   6.114  -0.088  14.191  1.5719 -0.3412 -0.5432
   53DOPE   C37 6803   6.035  -0.278  14.148  0.1068  0.9006 -0.6121
   53DOPE   H7X 6804   5.957  -0.329  14.088 -0.3991 -0.7556  1.3267
   53DOPE   H7Y 6805   6.136  -0.306  14.110  1.1964  1.1441  1.8719
   53DOPE   C38 6806   6.024  -0.343  14.290  0.3511 -1.0578 -0.4625
   53DOPE   H8X 6807   6.073  -0.273  14.360  2.3142 -3.4791  0.7282
   53DOPE   H8Y 6808   6.091  -0.432  14.289  1.8662 -0.0234  1.6060
   53DOPE   C39 6809   5.880  -0.363  14.329 -0.1571 -0.7865 -0.9163
   53DOPE   H9X 6810   5.822  -0.430  14.264  2.0802 -4.2010  0.3070
   53DOPE  C310 6811   5.819  -0.305  14.435  0.1492  0.4440 -0.0859
   53DOPE  H10X 6812   5.719  -0.346  14.455 -0.0869  0.8682 -0.3747
   53DOPE  C311 6813   5.885  -0.216  14.533 -0.5879 -0.7636  0.1723
   53DOPE  H11X 6814   5.982  -0.175  14.497 -0.3134 -1.1206  0.5095
   53DOPE  H11Y 6815   5.811  -0.134  14.544 -0.9407 -1.2509  1.6605
   53DOPE  C312 6816   5.915  -0.288  14.668 -0.4159  0.6181 -0.3799
   53DOPE  H12X 6817   5.976  -0.213  14.722  3.0147 -0.6112 -2.1851
   53DOPE  H12Y 6818   5.983  -0.375  14.651 -1.4518 -0.1540 -0.6597
   53DOPE  C313 6819   5.789  -0.331  14.746 -0.4929  0.1984 -0.6575
   53DOPE  H13X 6820   5.699  -0.268  14.755  1.7823  4.2260 -3.0666
   53DOPE  H13Y 6821   5.757  -0.422  14.691  0.6103 -1.5711  1.4492
   53DOPE  C314 6822   5.827  -0.387  14.885  0.5078 -0.0271 -0.6356
   53DOPE  H14X 6823   5.866  -0.309  14.954 -0.8403  0.5011 -0.4358
   53DOPE  H14Y 6824   5.907  -0.461  14.865  2.4927  1.5603  0.9930
   53DOPE  C315 6825   5.718  -0.468  14.943 -0.1251 -0.0557  0.3572
   53DOPE  H15X 6826   5.718  -0.566  14.890  1.7250 -0.1060  0.3770
   53DOPE  H15Y 6827   5.620  -0.417  14.931  0.7982  1.5419 -0.8969
   53DOPE  C316 6828   5.734  -0.500  15.096 -0.2692 -0.4603  0.5824
   53DOPE  H16X 6829   5.731  -0.403  15.150 -1.5785 -0.5305  0.6564
   53DOPE  H16Y 6830   5.835  -0.539  15.122 -0.2837  0.3196  1.9216
   53DOPE  C317 6831   5.619  -0.592  15.143  0.1347 -0.0080  0.6494
   53DOPE  H17X 6832   5.518  -0.547  15.129 -0.5224 -2.0007 -1.7020
   53DOPE  H17Y 6833   5.611  -0.684  15.080 -1.5708  0.3670  0.2644
   53DOPE  C318 6834   5.628  -0.649  15.284 -0.7416 -0.3781 -0.5207
   53DOPE  H18X 6835   5.721  -0.709  15.293 -1.2335 -1.1047 -0.2029
   53DOPE  H18Y 6836   5.644  -0.572  15.363  1.5890  0.5594 -1.7853
   53DOPE  H18Z 6837   5.531  -0.698  15.307 -1.1523  0.6889  0.0976
   54DOPE     N 6838   0.423   2.558  13.070  0.0220 -0.4548  0.9083
   54DOPE   HN1 6839   0.505   2.620  13.056 -0.5855 -0.1974 -2.1525
   54DOPE   HN2 6840   0.453   2.460  13.090 -0.1640 -0.7443 -0.2155
   54DOPE   HN3 6841   0.385   2.548  12.974  2.4671 -0.1504 -0.1752
   54DOPE   C12 6842   0.325   2.620  13.171  0.1965 -0.0502  0.6150
   54DOPE  H12A 6843   0.313   2.726  13.142 -0.4696 -0.4801 -0.7907
   54DOPE  H12B 6844   0.376   2.593  13.267  0.5444 -0.4889  0.3154
   54DOPE   C11 6845   0.196   2.540  13.153  0.9041  0.2297 -0.1044
   54DOPE  H11A 6846   0.130   2.572  13.236  0.0705  2.6948 -1.5787
   54DOPE  H11B 6847   0.213   2.434  13.181 -0.1200  0.1850  0.3947
   54DOPE     P 6848   0.067   2.672  12.969  0.1459 -0.1489  0.1096
   54DOPE   O13 6849  -0.039   2.637  12.873  0.0933 -0.3178 -0.8593
   54DOPE   O14 6850   0.172   2.760  12.920 -0.8294  0.1012 -0.1817
   54DOPE   O11 6851   0.026   2.746  13.094 -0.0671  0.1783 -0.6936
   54DOPE   O12 6852   0.124   2.543  13.025 -0.7160  0.1853  0.0616
   54DOPE    C1 6853  -0.110   2.759  13.137 -0.1057  0.0014  0.4755
   54DOPE    HA 6854  -0.154   2.662  13.170 -1.5506  0.4182 -0.1156
   54DOPE    HB 6855  -0.175   2.792  13.053 -0.6324 -1.0401  0.4576
   54DOPE    C2 6856  -0.139   2.855  13.256  0.1435 -0.0884 -0.5619
   54DOPE    HS 6857  -0.125   2.959  13.219 -0.5186  0.4753  0.6886
   54DOPE   O21 6858  -0.055   2.838  13.369 -0.3168  0.3837  0.6850
   54DOPE   C21 6859   0.070   2.874  13.360 -0.7210  0.1820  1.0570
   54DOPE   O22 6860   0.123   2.936  13.268 -0.2210 -0.8336  0.1461
   54DOPE   C22 6861   0.149   2.816  13.475 -0.1993  0.7298  0.7810
   54DOPE   H2R 6862   0.258   2.833  13.462  0.1319 -2.0605 -0.8649
   54DOPE   H2S 6863   0.137   2.706  13.487 -1.0677  0.7337  0.0447
   54DOPE    C3 6864  -0.278   2.827  13.316  0.5019 -0.2642 -0.3430
   54DOPE    HX 6865  -0.302   2.718  13.317 -1.1222  0.0636  0.1386
   54DOPE    HY 6866  -0.362   2.862  13.252 -2.2576 -3.9630  0.8652
   54DOPE   O31 6867  -0.288   2.875  13.455  0.0610  0.3308  0.8389
   54DOPE   C31 6868  -0.329   3.000  13.458 -0.4096 -0.0047  0.2023
   54DOPE   O32 6869  -0.381   3.065  13.363  0.0505  0.5833  0.0462
   54DOPE   C32 6870  -0.310   3.054  13.601 -0.2458 -0.3672  0.2706
   54DOPE   H2X 6871  -0.205   3.089  13.610 -0.1063  0.0335 -2.1578
   54DOPE   H2Y 6872  -0.370   3.146  13.616  0.3911  0.0616  0.2372
   54DOPE   C23 6873   0.116   2.879  13.607 -0.5573 -0.9487 -0.2515
   54DOPE   H3R 6874   0.008   2.880  13.634 -0.6340  0.2352 -0.5306
   54DOPE   H3S 6875   0.141   2.988  13.612  5.0385 -1.9442  0.0346
   54DOPE   C24 6876   0.199   2.816  13.723  0.6501 -0.3538 -0.1639
   54DOPE   H4R 6877   0.180   2.706  13.722 -0.0474 -0.2763  1.5885
   54DOPE   H4S 6878   0.168   2.846  13.825  0.0380 -1.5529  0.0260
   54DOPE   C25 6879   0.352   2.839  13.715  0.9401  0.8739  0.3365
   54DOPE   H5R 6880   0.391   2.789  13.623  1.8692  2.3632 -0.1103
   54DOPE   H5S 6881   0.389   2.801  13.812  0.6128  1.9167  0.8833
   54DOPE   C26 6882   0.401   2.980  13.699 -1.0009 -0.3056  0.0352
   54DOPE   H6R 6883   0.368   3.043  13.785 -0.2538  1.9023 -1.2162
   54DOPE   H6S 6884   0.357   3.022  13.607 -0.5037  1.7900  0.7039
   54DOPE   C27 6885   0.559   2.994  13.687 -0.2584 -0.1154 -0.0737
   54DOPE   H7R 6886   0.594   2.936  13.599  2.5722  1.2773  0.0369
   54DOPE   H7S 6887   0.620   2.959  13.773 -0.0243 -0.3042 -0.3136
   54DOPE   C28 6888   0.604   3.133  13.636  0.9580 -0.0631  0.4808
   54DOPE   H8R 6889   0.545   3.151  13.544  0.0042 -0.9212  0.9154
   54DOPE   H8S 6890   0.712   3.140  13.609  0.9087 -0.7993  0.0556
   54DOPE   C29 6891   0.573   3.233  13.742  0.6236 -0.0801  0.0694
   54DOPE   H9R 6892   0.467   3.254  13.761  0.7587 -0.6538  1.6395
   54DOPE  C210 6893   0.653   3.314  13.810  1.0324  0.0608  0.1161
   54DOPE  H10R 6894   0.602   3.375  13.887 -1.7552 -0.0768 -1.4832
   54DOPE  C211 6895   0.804   3.331  13.808  0.2412  0.0703 -0.7143
   54DOPE  H11R 6896   0.836   3.424  13.756  1.2907  0.1671  0.0566
   54DOPE  H11S 6897   0.851   3.248  13.752  0.2858  0.6721 -1.5963
   54DOPE  C212 6898   0.847   3.335  13.955 -0.2791 -0.7299 -0.6809
   54DOPE  H12R 6899   0.825   3.431  14.006 -0.9679 -0.7729 -0.8849
   54DOPE  H12S 6900   0.958   3.332  13.956 -0.2447 -0.0917 -1.5907
   54DOPE  C213 6901   0.800   3.225  14.051  0.1107  0.4686  0.0665
   54DOPE  H13R 6902   0.847   3.135  14.006 -0.9191 -0.5813  0.9863
   54DOPE  H13S 6903   0.690   3.215  14.064 -0.1345  2.1417 -0.4687
   54DOPE  C214 6904   0.850   3.237  14.190  0.1611  0.0706 -0.0473
   54DOPE  H14R 6905   0.811   3.156  14.256 -1.4159  0.2525 -0.7241
   54DOPE  H14S 6906   0.797   3.326  14.230  0.2289  0.4594 -0.7961
   54DOPE  C215 6907   1.010   3.234  14.201 -0.4252  0.1528 -0.0150
   54DOPE  H15R 6908   1.057   3.304  14.128 -1.1032  0.2830 -0.3311
   54DOPE  H15S 6909   1.052   3.133  14.182  3.2147  1.1546  1.6863
   54DOPE  C216 6910   1.053   3.275  14.343  0.2004 -0.2178  0.6213
   54DOPE  H16R 6911   1.163   3.291  14.341  0.2325 -0.1350  1.8128
   54DOPE  H16S 6912   1.026   3.189  14.408  0.6160  0.5166  1.8009
   54DOPE  C217 6913   0.993   3.402  14.390  0.3872 -0.7793 -0.0305
   54DOPE  H17R 6914   0.886   3.393  14.418  0.0909  0.1906 -0.7822
   54DOPE  H17S 6915   1.003   3.480  14.311 -0.9787 -1.7865 -1.2290
   54DOPE  C218 6916   1.052   3.442  14.521 -0.4313 -0.2096  0.2784
   54DOPE  H18R 6917   1.049   3.356  14.592  1.9508 -1.0513 -0.5456
   54DOPE  H18S 6918   0.996   3.530  14.560 -1.4649 -0.0545 -1.4525
   54DOPE  H18T 6919   1.159   3.469  14.512 -0.6539  0.6192  0.0131
   54DOPE   C33 6920  -0.344   2.941  13.699  0.5676 -0.4487 -0.3766
   54DOPE   H3X 6921  -0.287   2.845  13.698  0.0634 -0.8077  1.4979
   54DOPE   H3Y 6922  -0.451   2.911  13.688 -0.3892  1.4388  2.6168
   54DOPE   C34 6923  -0.331   3.010  13.841 -0.5884 -0.8729  0.2750
   54DOPE   H4X 6924  -0.374   3.112  13.829  1.3808 -0.1665 -1.1391
   54DOPE   H4Y 6925  -0.377   2.954  13.926 -0.1439  0.5068  1.4613
   54DOPE   C35 6926  -0.183   3.026  13.878 -0.5389  0.2123  0.1388
   54DOPE   H5X 6927  -0.143   3.104  13.809 -1.4034 -0.4876 -1.1966
   54DOPE   H5Y 6928  -0.129   2.929  13.873  2.1464  1.6265 -0.3830
   54DOPE   C36 6929  -0.178   3.080  14.024 -0.0438  0.1502  0.3281
   54DOPE   H6X 6930  -0.245   3.019  14.089 -2.0030  2.3352  0.4476
   54DOPE   H6Y 6931  -0.223   3.181  14.036 -0.9085 -0.1216 -0.5379
   54DOPE   C37 6932  -0.034   3.092  14.079  0.7536 -0.6741  0.6154
   54DOPE   H7X 6933  -0.002   2.987  14.099 -2.0099 -1.1716  3.2012
   54DOPE   H7Y 6934   0.042   3.127  14.006  1.0192 -0.6704  0.8897
   54DOPE   C38 6935  -0.019   3.173  14.207  0.2188  0.6148 -0.3337
   54DOPE   H8X 6936  -0.089   3.259  14.200 -0.5095 -0.0524 -1.5974
   54DOPE   H8Y 6937   0.086   3.210  14.211  0.2052  0.7577 -1.0548
   54DOPE   C39 6938  -0.072   3.112  14.346 -0.9651 -0.0697  0.4728
   54DOPE   H9X 6939  -0.170   3.062  14.346 -2.2774  2.2933  2.2321
   54DOPE  C310 6940   0.007   3.095  14.457  0.1142 -0.2640  0.6469
   54DOPE  H10X 6941  -0.043   3.039  14.537  0.2916 -0.1302  0.8520
   54DOPE  C311 6942   0.154   3.130  14.484 -0.3427  0.2323 -0.0130
   54DOPE  H11X 6943   0.202   3.057  14.553 -1.2263 -0.4690 -0.1141
   54DOPE  H11Y 6944   0.207   3.126  14.387  2.7593 -1.2526  1.6087
   54DOPE  C312 6945   0.173   3.268  14.548  0.0505 -0.8500 -0.2797
   54DOPE  H12X 6946   0.109   3.341  14.496 -1.1507 -1.4634  0.3087
   54DOPE  H12Y 6947   0.278   3.300  14.533  0.0229 -1.1700 -1.2210
   54DOPE  C313 6948   0.147   3.274  14.699  0.7000  0.3104 -0.4726
   54DOPE  H13X 6949   0.144   3.382  14.723  0.5491  0.3551 -0.6891
   54DOPE  H13Y 6950   0.044   3.237  14.716  1.1218 -0.6553  0.0377
   54DOPE  C314 6951   0.260   3.198  14.785 -0.4026 -0.1529 -0.9724
   54DOPE  H14X 6952   0.354   3.255  14.764 -0.6158 -0.3831 -2.7031
   54DOPE  H14Y 6953   0.270   3.093  14.750  0.3476 -0.8722  1.2577
   54DOPE  C315 6954   0.238   3.195  14.936 -0.2400 -0.0450  0.3565
   54DOPE  H15X 6955   0.162   3.115  14.945  1.1401 -1.6702 -1.5313
   54DOPE  H15Y 6956   0.199   3.296  14.961 -0.3879  0.0488 -0.2283
   54DOPE  C316 6957   0.366   3.161  15.008 -0.0418 -0.3042  0.2336
   54DOPE  H16X 6958   0.445   3.238  14.996 -0.6884  0.1795 -1.1010
   54DOPE  H16Y 6959   0.411   3.069  14.964  0.2145 -0.0932  0.0476
   54DOPE  C317 6960   0.356   3.146  15.157  0.1002  0.1852 -0.4787
   54DOPE  H17X 6961   0.315   3.241  15.196 -0.1975  0.7174 -2.0240
   54DOPE  H17Y 6962   0.287   3.064  15.186  1.5828 -1.6541 -1.8150
   54DOPE  C318 6963   0.494   3.112  15.223  0.4868 -0.6903  0.3039
   54DOPE  H18X 6964   0.530   3.010  15.196  0.1208 -0.8788  0.5173
   54DOPE  H18Y 6965   0.555   3.199  15.193  2.3439 -1.4043  1.8244
   54DOPE  H18Z 6966   0.482   3.127  15.333  1.9405 -0.8581  0.4960
   55DOPE     N 6967   7.680   5.601  12.916  0.7523  0.0965 -0.1225
   55DOPE   HN1 6968   7.645   5.581  13.012 -0.7604 -1.0511 -0.8594
   55DOPE   HN2 6969   7.606   5.653  12.864 -0.4923 -0.8536  0.6526
   55DOPE   HN3 6970   7.691   5.513  12.861  1.8803  0.7825 -1.0561
   55DOPE   C12 6971   7.808   5.681  12.908  0.4601  0.2257  0.4065
   55DOPE  H12A 6972   7.874   5.622  12.841 -1.9670 -1.6749 -0.4575
   55DOPE  H12B 6973   7.862   5.686  13.006  1.7777 -0.0800 -0.2742
   55DOPE   C11 6974   7.779   5.823  12.850  0.6790  0.2599 -0.3753
   55DOPE  H11A 6975   7.727   5.812  12.752  1.4615  0.7622 -0.8613
   55DOPE  H11B 6976   7.873   5.881  12.836  1.1317  0.3861  2.5720
   55DOPE     P 6977   7.734   6.007  13.039  0.3993 -0.4499  0.7611
   55DOPE   O13 6978   7.637   6.021  13.148 -0.1036 -0.2024 -0.1417
   55DOPE   O14 6979   7.747   6.125  12.953  0.3612 -0.3851  0.2637
   55DOPE   O11 6980   7.877   5.971  13.098  0.1656 -0.0761  0.0762
   55DOPE   O12 6981   7.692   5.885  12.952  0.0736  0.6271  0.1692
   55DOPE    C1 6982   7.876   5.883  13.206  0.0053  0.8883 -0.0818
   55DOPE    HA 6983   7.972   5.827  13.200 -0.7323 -0.2911 -1.3584
   55DOPE    HB 6984   7.801   5.801  13.199  0.8329  0.2421 -2.4589
   55DOPE    C2 6985   7.862   5.942  13.347  0.2666 -0.0498 -0.6157
   55DOPE    HS 6986   7.772   6.008  13.344 -1.5026 -2.1160  2.0084
   55DOPE   O21 6987   7.983   6.006  13.384  0.2235  0.7834  0.6036
   55DOPE   C21 6988   7.999   6.133  13.367 -0.2114 -0.4381 -0.7135
   55DOPE   O22 6989   7.925   6.207  13.306 -0.2155 -0.6471 -1.2252
   55DOPE   C22 6990   8.121   6.183  13.442 -0.0541  0.2090 -0.3276
   55DOPE   H2R 6991   8.200   6.199  13.365 -0.1898  1.6998 -0.1729
   55DOPE   H2S 6992   8.147   6.102  13.514 -1.1328  0.5430  0.4649
   55DOPE    C3 6993   7.826   5.853  13.466  1.1966  0.3908 -0.7363
   55DOPE    HX 6994   7.906   5.780  13.489  0.8588  0.3971  0.5485
   55DOPE    HY 6995   7.738   5.794  13.433  0.8702  0.3563  0.1743
   55DOPE   O31 6996   7.790   5.928  13.588 -0.6404  0.2387  0.1403
   55DOPE   C31 6997   7.896   5.955  13.667 -0.1713  0.4462  0.4014
   55DOPE   O32 6998   8.008   5.915  13.645 -0.2626  0.9804 -0.2208
   55DOPE   C32 6999   7.856   6.039  13.782 -0.4524 -0.0961 -0.0979
   55DOPE   H2X 7000   7.760   6.090  13.757 -1.1040 -0.9909  0.5070
   55DOPE   H2Y 7001   7.833   5.969  13.865 -1.0693 -0.7786 -0.8355
   55DOPE   C23 7002   8.100   6.313  13.513 -0.6019 -0.4592 -0.4408
   55DOPE   H3R 7003   8.022   6.323  13.592 -0.9962  0.0600 -0.8948
   55DOPE   H3S 7004   8.053   6.382  13.440  2.0493  0.8315 -1.0186
   55DOPE   C24 7005   8.233   6.380  13.561  0.2229  0.2643  0.1006
   55DOPE   H4R 7006   8.219   6.490  13.571  1.0087  0.4252 -0.4650
   55DOPE   H4S 7007   8.315   6.371  13.487 -0.7175 -1.1559 -0.8250
   55DOPE   C25 7008   8.273   6.328  13.702 -0.1683 -0.0709  0.2636
   55DOPE   H5R 7009   8.211   6.376  13.780 -0.0133  1.2075 -0.3713
   55DOPE   H5S 7010   8.368   6.385  13.715  0.0230  0.1695 -1.8383
   55DOPE   C26 7011   8.313   6.180  13.723  0.5649 -0.5282  0.4245
   55DOPE   H6R 7012   8.374   6.140  13.639  0.7507 -0.7254  0.6516
   55DOPE   H6S 7013   8.217   6.124  13.719  0.1573  0.2294 -1.1145
   55DOPE   C27 7014   8.389   6.151  13.855 -0.1633 -0.2023  0.0348
   55DOPE   H7R 7015   8.332   6.196  13.940 -0.6348  0.0547 -0.4157
   55DOPE   H7S 7016   8.481   6.211  13.872  0.3019 -0.7727 -0.4523
   55DOPE   C28 7017   8.410   5.999  13.882  0.3965 -0.1700 -0.3006
   55DOPE   H8R 7018   8.322   5.940  13.849 -1.0830  1.2349  0.9529
   55DOPE   H8S 7019   8.408   5.981  13.991 -0.2049 -3.7808 -0.7959
   55DOPE   C29 7020   8.538   5.946  13.820 -0.3957  0.6310 -0.4359
   55DOPE   H9R 7021   8.538   5.930  13.711 -0.7607 -0.1820 -0.3279
   55DOPE  C210 7022   8.654   5.916  13.876  0.6034 -0.3377  0.6555
   55DOPE  H10R 7023   8.730   5.906  13.798 -1.0552  0.3415 -1.1329
   55DOPE  C211 7024   8.707   5.917  14.015  0.3947  0.3088 -0.3687
   55DOPE  H11R 7025   8.634   5.958  14.088  0.1791 -1.2322  0.3470
   55DOPE  H11S 7026   8.798   5.976  14.039  0.9775 -0.9413  0.6283
   55DOPE  C212 7027   8.751   5.765  14.055 -0.1079 -0.0728 -0.4594
   55DOPE  H12R 7028   8.654   5.716  14.077 -1.1924  2.3609  0.6518
   55DOPE  H12S 7029   8.805   5.782  14.151 -2.0188  1.5119  0.4148
   55DOPE  C213 7030   8.840   5.685  13.955  0.1835  0.3389  0.5377
   55DOPE  H13R 7031   8.778   5.637  13.876 -0.6116 -1.3117  2.0809
   55DOPE  H13S 7032   8.886   5.599  14.009 -0.7045 -0.6662 -0.2670
   55DOPE  C214 7033   8.961   5.761  13.901  0.0544  0.1035 -0.2233
   55DOPE  H14R 7034   9.005   5.816  13.988  1.3467 -1.2164 -0.0047
   55DOPE  H14S 7035   8.933   5.847  13.836  0.0483 -0.0474 -0.4182
   55DOPE  C215 7036   9.072   5.676  13.836  0.2240  0.2483 -0.2798
   55DOPE  H15R 7037   9.031   5.603  13.763 -0.3514 -0.7655  1.0263
   55DOPE  H15S 7038   9.121   5.618  13.917 -1.0982  0.2278  0.5315
   55DOPE  C216 7039   9.167   5.773  13.769  0.1570  0.2242 -0.2296
   55DOPE  H16R 7040   9.212   5.846  13.840  1.0290 -2.0853  1.7622
   55DOPE  H16S 7041   9.117   5.821  13.683  0.7773  0.6320 -0.3676
   55DOPE  C217 7042   9.295   5.705  13.717  0.4715 -0.0382 -0.0046
   55DOPE  H17R 7043   9.323   5.643  13.804 -0.5719  1.8184  1.7282
   55DOPE  H17S 7044   9.368   5.783  13.686  0.1474  0.3461  0.1799
   55DOPE  C218 7045   9.259   5.618  13.598 -0.0672 -0.3462  0.2254
   55DOPE  H18R 7046   9.354   5.595  13.545 -0.4446 -0.6540 -0.3283
   55DOPE  H18S 7047   9.190   5.672  13.530  0.1783  0.3675  0.5397
   55DOPE  H18T 7048   9.195   5.529  13.620  0.2275 -0.7812 -0.6273
   55DOPE   C33 7049   7.960   6.126  13.855 -0.0947 -0.1374  0.1323
   55DOPE   H3X 7050   8.004   6.202  13.787  0.5895 -1.6228 -1.1691
   55DOPE   H3Y 7051   8.042   6.057  13.884  0.5052 -0.2019 -1.5904
   55DOPE   C34 7052   7.892   6.185  13.979 -0.3380 -0.3342 -0.2973
   55DOPE   H4X 7053   7.817   6.258  13.941 -0.0600  1.2729  2.0079
   55DOPE   H4Y 7054   7.835   6.108  14.036 -2.4555  0.2177 -1.5842
   55DOPE   C35 7055   7.981   6.273  14.064  0.1442  0.7805 -0.2462
   55DOPE   H5X 7056   8.049   6.336  14.003 -0.0798  0.9859 -0.2862
   55DOPE   H5Y 7057   8.041   6.210  14.134 -0.1815 -1.6957 -2.0734
   55DOPE   C36 7058   7.908   6.374  14.153  0.1066 -0.1331  0.3163
   55DOPE   H6X 7059   7.850   6.320  14.231  0.9704 -0.2814  0.8647
   55DOPE   H6Y 7060   7.844   6.445  14.096 -0.5929 -1.3552 -0.4682
   55DOPE   C37 7061   7.999   6.470  14.233 -0.1651 -0.5238  0.0041
   55DOPE   H7X 7062   8.069   6.403  14.286  0.3527  0.4581  0.5856
   55DOPE   H7Y 7063   8.056   6.538  14.165 -0.8804 -0.0072 -0.0935
   55DOPE   C38 7064   7.917   6.545  14.335  0.0512 -0.6091  0.2910
   55DOPE   H8X 7065   7.857   6.470  14.390  1.2753 -0.4087  1.9662
   55DOPE   H8Y 7066   7.848   6.609  14.277  0.5452 -1.1001 -0.8715
   55DOPE   C39 7067   7.995   6.633  14.434  0.2615 -1.2371 -0.6413
   55DOPE   H9X 7068   7.997   6.739  14.404  0.0663 -1.1147 -0.2348
   55DOPE  C310 7069   8.067   6.607  14.550  0.7685 -0.7585  0.3921
   55DOPE  H10X 7070   8.113   6.689  14.608  1.4359 -0.7556 -0.1301
   55DOPE  C311 7071   8.078   6.467  14.603 -0.0842  0.4430  0.0284
   55DOPE  H11X 7072   8.067   6.469  14.714  3.1663  1.4097  0.4389
   55DOPE  H11Y 7073   7.998   6.407  14.555  2.3484 -3.5118  0.4720
   55DOPE  C312 7074   8.211   6.402  14.550 -0.3449 -0.0979  0.0648
   55DOPE  H12X 7075   8.239   6.432  14.446 -0.0207 -1.0331 -0.1330
   55DOPE  H12Y 7076   8.199   6.292  14.540  2.2447 -0.2611 -2.7910
   55DOPE  C313 7077   8.337   6.425  14.632 -0.4857  0.2030 -1.1544
   55DOPE  H13X 7078   8.353   6.535  14.639  0.7454  0.2849 -4.0016
   55DOPE  H13Y 7079   8.331   6.373  14.730 -0.1143 -1.3899 -1.9405
   55DOPE  C314 7080   8.465   6.365  14.574  0.1011  0.0501  0.6212
   55DOPE  H14X 7081   8.555   6.389  14.634 -0.0265  1.2874  0.3471
   55DOPE  H14Y 7082   8.481   6.410  14.473 -1.9692 -1.8478 -0.6413
   55DOPE  C315 7083   8.465   6.212  14.561 -0.7183  0.0013  0.0085
   55DOPE  H15X 7084   8.377   6.169  14.508 -0.4806  0.4182 -0.7268
   55DOPE  H15Y 7085   8.472   6.174  14.665 -1.6839  0.0219  0.0853
   55DOPE  C316 7086   8.584   6.151  14.472  0.2215  0.0638  0.4944
   55DOPE  H16X 7087   8.685   6.158  14.518  0.0938 -1.6833  1.0957
   55DOPE  H16Y 7088   8.574   6.212  14.379 -1.1023 -0.2714  0.3906
   55DOPE  C317 7089   8.577   5.993  14.440  0.0182 -0.3898 -0.1939
   55DOPE  H17X 7090   8.570   5.952  14.543  0.8929  2.6929  1.2101
   55DOPE  H17Y 7091   8.489   5.954  14.384  0.5396 -0.4832 -0.9651
   55DOPE  C318 7092   8.717   5.950  14.375  0.6505  0.3113 -1.0151
   55DOPE  H18X 7093   8.792   5.952  14.457 -1.1796  0.6554  0.7410
   55DOPE  H18Y 7094   8.717   5.846  14.339  4.1001 -0.3903  0.6640
   55DOPE  H18Z 7095   8.748   6.019  14.293 -0.0623  0.9786 -0.7437
   56DOPE     N 7096   1.218   5.889  13.319  0.1318  0.3182 -0.0285
   56DOPE   HN1 7097   1.200   5.955  13.398  1.1954 -0.7955  1.2068
   56DOPE   HN2 7098   1.260   5.944  13.242 -0.9382  0.0486 -0.8263
   56DOPE   HN3 7099   1.128   5.861  13.276 -0.4016  2.6029 -0.5228
   56DOPE   C12 7100   1.310   5.780  13.364  0.2690  0.2781 -0.2799
   56DOPE  H12A 7101   1.271   5.737  13.458  3.1887  1.2602  1.5029
   56DOPE  H12B 7102   1.411   5.824  13.382  0.6448 -0.8069  0.3644
   56DOPE   C11 7103   1.320   5.676  13.245 -0.4288 -0.2360 -1.3471
   56DOPE  H11A 7104   1.379   5.587  13.277 -2.5435 -1.2738 -0.1375
   56DOPE  H11B 7105   1.383   5.717  13.164  1.3036 -2.5123 -1.2638
   56DOPE     P 7106   1.174   5.559  13.062 -0.1435  0.0393  0.4950
   56DOPE   O13 7107   1.301   5.533  12.998 -0.4590  0.3444 -0.1222
   56DOPE   O14 7108   1.083   5.638  12.972 -0.1934  0.1461  0.2044
   56DOPE   O11 7109   1.106   5.425  13.111 -0.1640 -0.8138  0.4255
   56DOPE   O12 7110   1.194   5.646  13.193 -0.6935  0.4420 -0.2142
   56DOPE    C1 7111   0.972   5.421  13.140 -0.0784 -0.1812 -1.3000
   56DOPE    HA 7112   0.941   5.316  13.119 -0.5272 -0.0640 -1.2330
   56DOPE    HB 7113   0.921   5.491  13.070  0.9607  1.2126 -0.7162
   56DOPE    C2 7114   0.942   5.465  13.288 -0.1130  0.2151  0.1755
   56DOPE    HS 7115   0.986   5.567  13.297 -0.3978  0.4769 -1.2173
   56DOPE   O21 7116   1.015   5.374  13.369 -0.0824  0.1529 -0.0380
   56DOPE   C21 7117   1.087   5.416  13.470 -0.6144 -0.3663  0.2016
   56DOPE   O22 7118   1.093   5.528  13.510  0.6174 -0.2428  0.4113
   56DOPE   C22 7119   1.172   5.300  13.520 -0.4199 -0.8001 -0.1518
   56DOPE   H2R 7120   1.275   5.341  13.523 -1.0668  0.8902 -0.2276
   56DOPE   H2S 7121   1.176   5.216  13.447  0.8444 -0.9693  0.0953
   56DOPE    C3 7122   0.793   5.462  13.319 -0.4400 -0.5378  0.8127
   56DOPE    HX 7123   0.764   5.364  13.274  2.4467 -1.6925  1.2572
   56DOPE    HY 7124   0.742   5.545  13.266 -0.8340 -0.2919  1.5549
   56DOPE   O31 7125   0.756   5.463  13.460 -0.9791 -0.2305 -0.4430
   56DOPE   C31 7126   0.756   5.588  13.500  0.3743 -0.1115  0.0927
   56DOPE   O32 7127   0.813   5.683  13.440  0.2416 -0.0537  0.3251
   56DOPE   C32 7128   0.708   5.607  13.645  0.2321  0.5419 -0.5585
   56DOPE   H2X 7129   0.709   5.715  13.671  0.6767  0.3448  0.2934
   56DOPE   H2Y 7130   0.601   5.578  13.652 -0.0778  1.5615 -0.8400
   56DOPE   C23 7131   1.146   5.259  13.667 -0.5261  0.1229 -0.0521
   56DOPE   H3R 7132   1.064   5.184  13.666  0.1596 -0.6379 -0.3213
   56DOPE   H3S 7133   1.113   5.340  13.735  1.0348  0.3482  0.4692
   56DOPE   C24 7134   1.264   5.199  13.742 -0.5224 -0.0214 -0.1626
   56DOPE   H4R 7135   1.315   5.131  13.670 -2.0370  0.2419 -1.5518
   56DOPE   H4S 7136   1.224   5.145  13.830 -0.3236  1.3463  0.8121
   56DOPE   C25 7137   1.360   5.308  13.799 -0.3402 -0.3061 -0.0772
   56DOPE   H5R 7138   1.307   5.394  13.845  0.9285 -0.5251  1.9104
   56DOPE   H5S 7139   1.433   5.343  13.724 -0.9033  0.5277 -0.2421
   56DOPE   C26 7140   1.443   5.252  13.911 -0.1101  0.6042 -0.7598
   56DOPE   H6R 7141   1.468   5.144  13.899 -0.4792  0.0028  2.7636
   56DOPE   H6S 7142   1.379   5.255  14.002  1.3462 -0.5168  0.3497
   56DOPE   C27 7143   1.579   5.333  13.933 -0.0223  0.8209 -0.3587
   56DOPE   H7R 7144   1.594   5.376  14.034  2.2689 -1.5277  0.4110
   56DOPE   H7S 7145   1.586   5.411  13.854  1.2022  0.8319 -0.2570
   56DOPE   C28 7146   1.712   5.249  13.902 -0.1323 -0.0479 -0.1220
   56DOPE   H8R 7147   1.700   5.203  13.802 -1.5520  0.8247 -0.3846
   56DOPE   H8S 7148   1.724   5.170  13.979  0.0218  0.1466  0.0551
   56DOPE   C29 7149   1.832   5.339  13.881 -0.5257  0.0117 -0.0284
   56DOPE   H9R 7150   1.828   5.411  13.798 -1.6095 -1.6752 -1.5073
   56DOPE  C210 7151   1.942   5.330  13.951 -0.9656  0.0122 -0.9080
   56DOPE  H10R 7152   2.025   5.398  13.927 -0.3663  0.6451  2.3809
   56DOPE  C211 7153   1.970   5.237  14.065  1.3534  0.4958  0.0042
   56DOPE  H11R 7154   2.080   5.241  14.074  1.5977  0.9801 -2.3690
   56DOPE  H11S 7155   1.939   5.133  14.039 -0.9122  0.6852  1.6981
   56DOPE  C212 7156   1.904   5.256  14.199 -0.0353 -0.5604 -0.9436
   56DOPE  H12R 7157   1.914   5.161  14.255 -4.3626  0.0486  1.3002
   56DOPE  H12S 7158   1.798   5.286  14.185  0.0869  2.5924  3.0009
   56DOPE  C213 7159   1.970   5.359  14.296 -0.0779 -0.2932  0.8554
   56DOPE  H13R 7160   1.957   5.463  14.258 -2.1816  0.2078  2.6927
   56DOPE  H13S 7161   2.079   5.338  14.303 -0.3550 -1.9472  0.5902
   56DOPE  C214 7162   1.912   5.361  14.436 -0.2557  0.0467 -0.5961
   56DOPE  H14R 7163   1.971   5.433  14.497 -2.7918  2.1590 -0.4557
   56DOPE  H14S 7164   1.922   5.257  14.474 -1.2484  0.1479 -0.0281
   56DOPE  C215 7165   1.764   5.407  14.439 -0.2479  0.3371  0.0906
   56DOPE  H15R 7166   1.703   5.338  14.378 -1.5234  0.0331  1.6568
   56DOPE  H15S 7167   1.736   5.510  14.407 -0.8739 -0.1651 -0.9876
   56DOPE  C216 7168   1.709   5.394  14.582  1.0947  0.1239  0.3153
   56DOPE  H16R 7169   1.734   5.491  14.631  3.1319 -0.1131 -0.1585
   56DOPE  H16S 7170   1.770   5.316  14.632  1.2337  2.3315  3.9792
   56DOPE  C217 7171   1.554   5.357  14.599  0.1290 -0.4521 -0.0724
   56DOPE  H17R 7172   1.533   5.277  14.525 -0.7989  0.6813 -1.0831
   56DOPE  H17S 7173   1.515   5.453  14.560  2.7238  0.2097 -1.2642
   56DOPE  C218 7174   1.518   5.327  14.742 -0.4528  0.3847 -0.6893
   56DOPE  H18R 7175   1.558   5.227  14.771  0.9709  1.7161  2.3203
   56DOPE  H18S 7176   1.411   5.331  14.770 -0.2549  0.7738  0.0398
   56DOPE  H18T 7177   1.566   5.406  14.803 -0.2795  1.7506 -2.5054
   56DOPE   C33 7178   0.792   5.530  13.752 -0.6241  0.0864  0.4765
   56DOPE   H3X 7179   0.782   5.568  13.856 -0.7446  1.0900  0.1111
   56DOPE   H3Y 7180   0.894   5.538  13.710 -1.1088 -0.3977 -0.8490
   56DOPE   C34 7181   0.760   5.378  13.764  0.5933  0.5489  0.0122
   56DOPE   H4X 7182   0.652   5.366  13.742  0.5586  0.5309  0.1848
   56DOPE   H4Y 7183   0.795   5.325  13.673  2.3976  2.2065 -0.3189
   56DOPE   C35 7184   0.784   5.315  13.903 -0.1874 -0.3184  0.5222
   56DOPE   H5X 7185   0.757   5.207  13.900 -0.9422 -0.2608  2.8827
   56DOPE   H5Y 7186   0.713   5.353  13.979  0.9910  1.0892  0.9583
   56DOPE   C36 7187   0.933   5.323  13.952  0.4019  0.0843  0.4837
   56DOPE   H6X 7188   0.976   5.425  13.946  1.4340 -0.2840  1.2482
   56DOPE   H6Y 7189   1.003   5.268  13.885  1.7663  2.2585  0.0428
   56DOPE   C37 7190   0.961   5.289  14.100 -0.4055  0.4983  0.6292
   56DOPE   H7X 7191   0.951   5.179  14.113 -3.2833  0.3938 -1.5422
   56DOPE   H7Y 7192   1.064   5.329  14.113 -0.1111 -0.1377  0.3404
   56DOPE   C38 7193   0.872   5.361  14.197  0.7704 -0.2903 -0.1483
   56DOPE   H8X 7194   0.776   5.305  14.189  0.6047 -0.0915  0.4210
   56DOPE   H8Y 7195   0.856   5.464  14.160  2.2750 -0.2742 -0.8473
   56DOPE   C39 7196   0.944   5.354  14.327  0.0138  0.2492 -0.8459
   56DOPE   H9X 7197   1.053   5.368  14.325  0.4482 -2.5591 -0.4692
   56DOPE  C310 7198   0.886   5.317  14.449 -0.2627 -0.7385  0.3951
   56DOPE  H10X 7199   0.952   5.320  14.538  1.0337 -0.9745 -0.5315
   56DOPE  C311 7200   0.745   5.270  14.469  0.2091  0.0705 -0.8469
   56DOPE  H11X 7201   0.682   5.360  14.488  0.1659  0.3596 -2.2732
   56DOPE  H11Y 7202   0.704   5.213  14.383 -0.3156 -0.8562 -0.0122
   56DOPE  C312 7203   0.724   5.183  14.591 -0.1557 -0.4095 -0.6019
   56DOPE  H12X 7204   0.781   5.089  14.578 -1.1697 -0.6983 -3.5377
   56DOPE  H12Y 7205   0.618   5.151  14.587 -0.2000 -0.6344  1.2172
   56DOPE  C313 7206   0.742   5.265  14.719 -0.0668 -1.0427 -0.6965
   56DOPE  H13X 7207   0.849   5.284  14.741 -1.2009  1.9392  3.5513
   56DOPE  H13Y 7208   0.687   5.360  14.704 -0.0433 -1.1563 -1.5432
   56DOPE  C314 7209   0.672   5.190  14.831  0.6710  0.3993  0.3858
   56DOPE  H14X 7210   0.676   5.080  14.824 -2.3793  0.2733 -0.9661
   56DOPE  H14Y 7211   0.565   5.220  14.837  0.3018 -0.6116 -0.9261
   56DOPE  C315 7212   0.742   5.226  14.966 -0.0240  0.4221 -0.0637
   56DOPE  H15X 7213   0.739   5.334  14.993  1.6124 -0.2214  3.1741
   56DOPE  H15Y 7214   0.847   5.193  14.953 -0.3211 -1.1427  1.1754
   56DOPE  C316 7215   0.681   5.145  15.086  0.1194 -0.4603 -0.6328
   56DOPE  H16X 7216   0.695   5.036  15.067 -0.4176 -1.0365  1.9074
   56DOPE  H16Y 7217   0.570   5.149  15.094  0.0447  0.6999 -1.7807
   56DOPE  C317 7218   0.751   5.172  15.222  0.8566 -0.2338  0.4675
   56DOPE  H17X 7219   0.859   5.170  15.195  1.3464 -2.1234  2.2987
   56DOPE  H17Y 7220   0.721   5.274  15.256  0.2612 -0.3381  0.2679
   56DOPE  C318 7221   0.719   5.071  15.331 -0.3281 -0.0542 -0.0566
   56DOPE  H18X 7222   0.618   5.078  15.378 -0.1694  0.4218  0.2186
   56DOPE  H18Y 7223   0.742   4.968  15.299 -2.3199 -1.1658  1.7845
   56DOPE  H18Z 7224   0.783   5.094  15.419 -1.6523  2.5534  0.3341
   57DOPE     N 7225   1.037   2.983  12.748 -0.4601  0.1728 -0.5193
   57DOPE   HN1 7226   1.033   2.888  12.705  2.8073 -0.3637  0.0841
   57DOPE   HN2 7227   1.080   3.040  12.672 -1.7918  1.6309 -0.2424
   57DOPE   HN3 7228   1.102   2.968  12.828 -1.2708 -0.2137  0.0780
   57DOPE   C12 7229   0.905   3.031  12.809 -0.4685  0.2245  0.1627
   57DOPE  H12A 7230   0.834   3.035  12.723  0.9697 -2.9762 -1.3109
   57DOPE  H12B 7231   0.924   3.131  12.855 -0.4010  0.5321 -0.5276
   57DOPE   C11 7232   0.870   2.943  12.936 -0.1373  0.0678  0.8820
   57DOPE  H11A 7233   0.790   2.996  12.992 -1.2884  0.8196 -1.3333
   57DOPE  H11B 7234   0.960   2.956  12.999  2.4950  0.3436 -2.6633
   57DOPE     P 7235   0.780   2.691  12.980  0.0259 -0.4516 -0.2744
   57DOPE   O13 7236   0.824   2.566  12.911  0.3526 -0.8860 -0.5991
   57DOPE   O14 7237   0.634   2.709  13.008 -0.2738  1.0431  0.0831
   57DOPE   O11 7238   0.862   2.701  13.125 -0.0245 -0.3871 -0.0873
   57DOPE   O12 7239   0.854   2.810  12.894  0.4371  0.1675 -0.3131
   57DOPE    C1 7240   1.000   2.663  13.117 -0.1586 -0.5184 -0.2794
   57DOPE    HA 7241   1.058   2.719  13.042  0.2352  2.4171  2.0359
   57DOPE    HB 7242   1.010   2.556  13.087  2.2204 -0.0408 -1.3862
   57DOPE    C2 7243   1.080   2.687  13.252 -0.1131 -0.7091  0.4356
   57DOPE    HS 7244   1.177   2.633  13.253  0.5912  0.4370  2.9029
   57DOPE   O21 7245   1.007   2.651  13.368  0.3085  0.2606 -0.3467
   57DOPE   C21 7246   0.995   2.521  13.375 -0.6392  0.1740  0.5480
   57DOPE   O22 7247   1.046   2.441  13.293  0.1220 -0.1600  0.2757
   57DOPE   C22 7248   0.916   2.483  13.495  0.2415  0.1334 -0.6344
   57DOPE   H2R 7249   0.889   2.376  13.479 -2.2574  0.4517  0.9858
   57DOPE   H2S 7250   0.822   2.542  13.494  0.8473  1.1409 -0.1441
   57DOPE    C3 7251   1.114   2.838  13.257  0.4237 -0.3628 -0.0228
   57DOPE    HX 7252   1.016   2.887  13.243  1.7828  2.4459 -0.4692
   57DOPE    HY 7253   1.171   2.868  13.166  3.3816 -1.6273  1.2575
   57DOPE   O31 7254   1.188   2.885  13.374  0.1504 -0.3063  0.4907
   57DOPE   C31 7255   1.121   2.972  13.451  0.1587  0.4717 -0.0047
   57DOPE   O32 7256   1.008   3.012  13.430  0.0060 -0.2021 -0.0325
   57DOPE   C32 7257   1.212   3.002  13.575  0.1977  0.1989  0.2030
   57DOPE   H2X 7258   1.295   2.929  13.570 -0.5978 -0.6684 -0.7229
   57DOPE   H2Y 7259   1.261   3.101  13.560 -0.1312  0.5124  1.0854
   57DOPE   C23 7260   0.995   2.502  13.627  0.0686  0.0215  0.4673
   57DOPE   H3R 7261   1.020   2.610  13.623  2.2600 -0.4605 -0.7753
   57DOPE   H3S 7262   1.095   2.454  13.622  0.0758  0.1355 -0.8835
   57DOPE   C24 7263   0.922   2.474  13.758 -0.7118 -0.1515  0.1764
   57DOPE   H4R 7264   0.822   2.522  13.760 -0.5592  0.1949 -0.3285
   57DOPE   H4S 7265   0.982   2.531  13.832 -2.1343 -0.7927  1.8946
   57DOPE   C25 7266   0.915   2.321  13.799 -0.3634 -0.4770 -0.0467
   57DOPE   H5R 7267   0.929   2.265  13.704 -1.4826  0.6167 -0.8796
   57DOPE   H5S 7268   0.815   2.296  13.838  0.1391 -2.1471  0.2323
   57DOPE   C26 7269   1.015   2.273  13.904  0.1956  0.1048 -0.0223
   57DOPE   H6R 7270   1.009   2.163  13.917  2.9140 -0.1026  0.0729
   57DOPE   H6S 7271   1.004   2.325  14.001 -0.7548  1.0644 -0.6188
   57DOPE   C27 7272   1.163   2.294  13.850  0.9992 -0.1911  1.2030
   57DOPE   H7R 7273   1.168   2.399  13.815  0.5697 -1.0070 -1.5944
   57DOPE   H7S 7274   1.183   2.227  13.764  2.4453  3.1244 -1.2386
   57DOPE   C28 7275   1.266   2.261  13.956  0.0308 -0.6534 -0.1731
   57DOPE   H8R 7276   1.360   2.240  13.899 -0.8873 -1.8922 -1.3244
   57DOPE   H8S 7277   1.222   2.168  13.998 -1.6660  0.2171  0.0348
   57DOPE   C29 7278   1.280   2.371  14.061  0.1220  0.4162 -0.1805
   57DOPE   H9R 7279   1.287   2.473  14.020  1.3863  0.5907  0.4282
   57DOPE  C210 7280   1.286   2.355  14.196  0.2379  0.8025  0.2407
   57DOPE  H10R 7281   1.289   2.451  14.250  1.3305  0.5441  0.6582
   57DOPE  C211 7282   1.283   2.239  14.285  0.6069  0.8300  0.1631
   57DOPE  H11R 7283   1.379   2.242  14.340  1.5493 -0.1365 -1.3533
   57DOPE  H11S 7284   1.287   2.149  14.220  2.0462 -0.3732  1.8401
   57DOPE  C212 7285   1.159   2.225  14.372  0.4858  0.3468 -0.1329
   57DOPE  H12R 7286   1.148   2.119  14.401  3.1719 -0.7665 -2.6832
   57DOPE  H12S 7287   1.063   2.246  14.320 -0.1323 -2.9095 -0.4722
   57DOPE  C213 7288   1.162   2.318  14.493 -0.1376 -0.4544  0.1738
   57DOPE  H13R 7289   1.200   2.419  14.467  2.3080 -1.0126  1.2227
   57DOPE  H13S 7290   1.244   2.278  14.558  2.9439  1.9194 -1.9359
   57DOPE  C214 7291   1.032   2.328  14.576  0.3250  0.4739  0.5297
   57DOPE  H14R 7292   0.990   2.228  14.602  3.6555 -0.9641  0.8810
   57DOPE  H14S 7293   0.956   2.385  14.519 -0.8501  0.2325  1.7727
   57DOPE  C215 7294   1.062   2.415  14.701 -0.1527  0.6297 -0.1044
   57DOPE  H15R 7295   1.109   2.511  14.675 -1.7114  1.7485  0.9888
   57DOPE  H15S 7296   1.129   2.366  14.775  0.3570 -0.0884 -1.0318
   57DOPE  C216 7297   0.935   2.446  14.781 -0.2266  0.7725  0.5766
   57DOPE  H16R 7298   0.886   2.356  14.822  1.9851 -1.3888 -1.1984
   57DOPE  H16S 7299   0.854   2.484  14.715  0.8062  1.9559 -0.0554
   57DOPE  C217 7300   0.958   2.561  14.878  0.0460  0.1622 -0.6606
   57DOPE  H17R 7301   1.010   2.653  14.841 -1.2718  1.3886  0.4504
   57DOPE  H17S 7302   1.021   2.510  14.954  0.0798 -0.4529 -1.0935
   57DOPE  C218 7303   0.828   2.610  14.942 -0.3683 -0.4412 -0.2292
   57DOPE  H18R 7304   0.768   2.678  14.878  2.8498  3.9022  0.8998
   57DOPE  H18S 7305   0.856   2.667  15.033  0.9598 -1.1964 -0.1430
   57DOPE  H18T 7306   0.768   2.520  14.968  0.3273 -0.4189  1.5851
   57DOPE   C33 7307   1.141   3.019  13.709 -0.1658  0.3149  0.1750
   57DOPE   H3X 7308   1.060   3.093  13.694 -0.1076  0.8288  2.1804
   57DOPE   H3Y 7309   1.208   3.059  13.787 -1.8659  0.8838  1.4041
   57DOPE   C34 7310   1.070   2.889  13.761 -0.1205 -0.3714  0.6592
   57DOPE   H4X 7311   0.989   2.878  13.685 -0.0908  0.9130  0.4296
   57DOPE   H4Y 7312   1.145   2.807  13.769 -0.2834 -0.6217 -0.2081
   57DOPE   C35 7313   1.021   2.926  13.899  0.4561  0.4982  0.2158
   57DOPE   H5X 7314   0.946   3.006  13.884  0.8184  0.5248 -1.8237
   57DOPE   H5Y 7315   1.103   2.984  13.948  1.0619  0.5357 -0.8031
   57DOPE   C36 7316   0.961   2.807  13.971 -0.1369  0.1343  0.5214
   57DOPE   H6X 7317   1.021   2.714  13.976  4.0906  2.6626  2.2491
   57DOPE   H6Y 7318   0.862   2.781  13.928  1.3715 -2.4116 -1.7449
   57DOPE   C37 7319   0.932   2.834  14.124 -0.0706 -0.5950  0.9485
   57DOPE   H7X 7320   1.034   2.854  14.164  0.4814  1.3511 -1.1881
   57DOPE   H7Y 7321   0.874   2.928  14.136  0.1567 -0.4054  0.6093
   57DOPE   C38 7322   0.861   2.724  14.206 -0.4801  0.6470  0.0766
   57DOPE   H8X 7323   0.757   2.701  14.174 -0.6775  0.9915  0.4631
   57DOPE   H8Y 7324   0.861   2.754  14.313 -0.0342  1.1345 -0.0575
   57DOPE   C39 7325   0.936   2.593  14.199  0.2771 -0.0529  0.3024
   57DOPE   H9X 7326   1.046   2.600  14.191  0.2523  0.1938  0.1828
   57DOPE  C310 7327   0.872   2.474  14.205  0.0506 -0.5101 -0.7398
   57DOPE  H10X 7328   0.937   2.386  14.198 -0.1920 -0.9014  1.2606
   57DOPE  C311 7329   0.721   2.439  14.209 -0.1090 -0.3482  0.1776
   57DOPE  H11X 7330   0.654   2.520  14.173 -1.5808 -1.6931 -0.2196
   57DOPE  H11Y 7331   0.714   2.357  14.134 -1.6302  0.9450 -1.1577
   57DOPE  C312 7332   0.659   2.400  14.341 -0.4195 -0.2367  0.3598
   57DOPE  H12X 7333   0.552   2.376  14.322 -0.4331 -0.8681  1.1734
   57DOPE  H12Y 7334   0.684   2.480  14.414  4.0098 -1.2220  0.1673
   57DOPE  C313 7335   0.686   2.257  14.395 -0.0289 -0.5844  0.4389
   57DOPE  H13X 7336   0.659   2.179  14.322 -1.2767  0.6766 -0.5124
   57DOPE  H13Y 7337   0.794   2.245  14.417  0.0855 -1.5059 -0.5647
   57DOPE  C314 7338   0.611   2.237  14.525  0.1819  0.1665  0.4008
   57DOPE  H14X 7339   0.501   2.251  14.515  0.1027 -0.6124  0.0441
   57DOPE  H14Y 7340   0.645   2.328  14.579  0.1344  1.4814 -1.6778
   57DOPE  C315 7341   0.662   2.116  14.608  0.1870  0.6968  0.2967
   57DOPE  H15X 7342   0.769   2.131  14.634  0.3463 -2.3929  1.8844
   57DOPE  H15Y 7343   0.659   2.016  14.558  1.4941  2.1005 -2.8442
   57DOPE  C316 7344   0.589   2.108  14.745 -0.7005 -0.1573  0.0948
   57DOPE  H16X 7345   0.481   2.097  14.725 -0.8152  1.0106  0.0529
   57DOPE  H16Y 7346   0.599   2.200  14.805  1.2763  1.6425 -2.7415
   57DOPE  C317 7347   0.632   1.979  14.828  0.0185 -1.0761 -0.5209
   57DOPE  H17X 7348   0.572   1.976  14.922 -1.2565  1.9577 -1.1349
   57DOPE  H17Y 7349   0.604   1.885  14.777 -0.0065 -2.0360  1.1647
   57DOPE  C318 7350   0.780   1.968  14.873  0.1497  0.9729  0.3415
   57DOPE  H18X 7351   0.798   2.060  14.932 -0.3153  0.7161  0.8888
   57DOPE  H18Y 7352   0.807   1.882  14.937 -1.3409 -1.1015 -1.6375
   57DOPE  H18Z 7353   0.847   1.973  14.784 -0.7910 -2.4137 -0.7151
   58DOPE     N 7354   5.971   7.664  13.245 -0.2577  0.0071 -0.6204
   58DOPE   HN1 7355   6.057   7.720  13.228  0.8552 -1.4975 -0.1095
   58DOPE   HN2 7356   5.894   7.692  13.181 -0.4925 -1.4961 -1.0300
   58DOPE   HN3 7357   5.939   7.682  13.342  1.6270  1.9719 -0.2808
   58DOPE   C12 7358   5.985   7.519  13.233  0.5483  0.2083 -0.5176
   58DOPE  H12A 7359   5.976   7.491  13.126 -0.5807 -0.8768 -0.1658
   58DOPE  H12B 7360   5.892   7.482  13.282 -1.5920  2.9924 -2.2083
   58DOPE   C11 7361   6.114   7.467  13.298 -0.0866 -0.8330 -0.4070
   58DOPE  H11A 7362   6.094   7.358  13.304 -1.7629 -0.5488 -0.0627
   58DOPE  H11B 7363   6.129   7.519  13.395 -2.5446  2.3525 -1.5550
   58DOPE     P 7364   6.323   7.406  13.157  0.0925  0.0015  0.0510
   58DOPE   O13 7365   6.441   7.470  13.092 -0.1971  0.2085  0.1163
   58DOPE   O14 7366   6.253   7.296  13.085  0.4543  0.1230 -0.1514
   58DOPE   O11 7367   6.370   7.347  13.291 -0.4640  0.0327  0.1348
   58DOPE   O12 7368   6.214   7.510  13.204 -0.3355  0.3744  0.0475
   58DOPE    C1 7369   6.502   7.366  13.345 -0.8149  0.8257 -1.1425
   58DOPE    HA 7370   6.539   7.468  13.323  0.3392  0.9261  0.9543
   58DOPE    HB 7371   6.579   7.296  13.306 -0.9802 -1.6352  2.4647
   58DOPE    C2 7372   6.505   7.344  13.498 -0.4617  0.7394  0.1870
   58DOPE    HS 7373   6.592   7.402  13.535 -0.3234  0.6137  0.0647
   58DOPE   O21 7374   6.513   7.196  13.516 -0.6611 -0.1061 -0.4906
   58DOPE   C21 7375   6.565   7.154  13.632 -0.2138  0.3417  0.1357
   58DOPE   O22 7376   6.594   7.228  13.724 -0.2572 -0.0309  0.7329
   58DOPE   C22 7377   6.586   7.000  13.640 -0.6350 -0.1386 -0.4783
   58DOPE   H2R 7378   6.692   6.976  13.618 -0.6663 -0.1223 -0.6484
   58DOPE   H2S 7379   6.521   6.953  13.564 -2.4126 -0.6064  1.2564
   58DOPE    C3 7380   6.382   7.407  13.557  0.1817  0.7674 -0.0641
   58DOPE    HX 7381   6.300   7.336  13.535 -1.0267  2.1592 -0.1857
   58DOPE    HY 7382   6.352   7.501  13.507  1.2062  1.2149  0.1375
   58DOPE   O31 7383   6.393   7.430  13.699  0.1262 -0.1354  0.3937
   58DOPE   C31 7384   6.469   7.534  13.735  0.3698  0.6063 -0.0561
   58DOPE   O32 7385   6.513   7.622  13.663  0.2014 -0.2154  0.0067
   58DOPE   C32 7386   6.460   7.552  13.886 -0.4935  0.4065 -0.4065
   58DOPE   H2X 7387   6.352   7.552  13.909 -0.7598 -2.2246 -1.3661
   58DOPE   H2Y 7388   6.516   7.462  13.919 -0.7669 -0.8903 -3.1445
   58DOPE   C23 7389   6.545   6.939  13.782  0.1092  0.1125  0.3285
   58DOPE   H3R 7390   6.444   6.965  13.819 -1.6148 -2.2631 -2.3450
   58DOPE   H3S 7391   6.619   6.971  13.859  0.0180  1.2414 -0.0409
   58DOPE   C24 7392   6.546   6.783  13.773  0.1093  0.4253 -0.5246
   58DOPE   H4R 7393   6.629   6.748  13.708 -0.3826 -0.1879 -0.8426
   58DOPE   H4S 7394   6.446   6.763  13.728  0.0976  1.5305 -1.0265
   58DOPE   C25 7395   6.539   6.702  13.901  0.2023  0.8365  0.5460
   58DOPE   H5R 7396   6.473   6.758  13.971  0.0076  1.6245 -0.2529
   58DOPE   H5S 7397   6.645   6.709  13.932  0.3703 -0.8983  0.4255
   58DOPE   C26 7398   6.508   6.557  13.868 -0.0858 -0.0719 -0.1978
   58DOPE   H6R 7399   6.418   6.552  13.802  0.0859  2.1811 -0.6877
   58DOPE   H6S 7400   6.499   6.500  13.963  2.8038 -3.6761 -1.8539
   58DOPE   C27 7401   6.623   6.472  13.808  0.3433  0.1440 -0.0927
   58DOPE   H7R 7402   6.716   6.524  13.840  0.4570 -1.1388  1.8176
   58DOPE   H7S 7403   6.616   6.478  13.697  0.7270  1.3462 -0.0712
   58DOPE   C28 7404   6.648   6.334  13.864  0.5212  0.2449  0.8134
   58DOPE   H8R 7405   6.670   6.328  13.972  0.0793  1.1870  0.9596
   58DOPE   H8S 7406   6.741   6.298  13.814  1.0943  3.2395 -0.4703
   58DOPE   C29 7407   6.536   6.235  13.832 -0.0129 -0.1230  0.4039
   58DOPE   H9R 7408   6.552   6.180  13.738  1.9939  1.5244 -0.2979
   58DOPE  C210 7409   6.451   6.191  13.921 -0.4587 -0.3198 -0.5968
   58DOPE  H10R 7410   6.363   6.136  13.884 -0.9244  0.1990 -0.2812
   58DOPE  C211 7411   6.442   6.228  14.067 -0.2874 -0.2102 -0.1960
   58DOPE  H11R 7412   6.519   6.299  14.102  0.4012  0.5679 -3.0198
   58DOPE  H11S 7413   6.467   6.132  14.117  0.8029 -0.6737 -1.5502
   58DOPE  C212 7414   6.306   6.297  14.097 -0.4991 -0.0418 -0.5431
   58DOPE  H12R 7415   6.279   6.379  14.027 -1.5740 -1.1506 -1.4794
   58DOPE  H12S 7416   6.330   6.345  14.194  2.5224 -2.7773  0.2580
   58DOPE  C213 7417   6.183   6.207  14.114  0.0517 -0.8462 -0.2604
   58DOPE  H13R 7418   6.207   6.120  14.179 -0.9138 -1.2433 -0.4316
   58DOPE  H13S 7419   6.150   6.169  14.016  4.1371  1.1434 -2.6850
   58DOPE  C214 7420   6.068   6.294  14.182 -0.1096 -0.0529 -0.0986
   58DOPE  H14R 7421   6.031   6.357  14.098  0.9516 -2.4099 -2.4760
   58DOPE  H14S 7422   6.111   6.368  14.252 -1.1648  0.5661 -0.0949
   58DOPE  C215 7423   5.964   6.207  14.255 -0.5628  1.2851  0.8013
   58DOPE  H15R 7424   6.011   6.153  14.339  0.3583  0.7258 -0.0523
   58DOPE  H15S 7425   5.926   6.132  14.182  1.5918  1.9147 -1.1008
   58DOPE  C216 7426   5.842   6.298  14.301  0.1314  0.0914  0.3794
   58DOPE  H16R 7427   5.887   6.381  14.359 -1.7248  1.3373  0.1261
   58DOPE  H16S 7428   5.774   6.241  14.368  0.3307  1.7007  2.0406
   58DOPE  C217 7429   5.755   6.370  14.197 -0.3417 -0.3133  0.1560
   58DOPE  H17R 7430   5.726   6.293  14.124  1.5617 -1.3615  0.4477
   58DOPE  H17S 7431   5.821   6.445  14.149  1.3381 -2.1662 -0.5291
   58DOPE  C218 7432   5.638   6.445  14.262 -0.2122 -0.4576 -0.0920
   58DOPE  H18R 7433   5.614   6.390  14.355  0.2772  0.2347  0.4515
   58DOPE  H18S 7434   5.552   6.447  14.192 -0.0795 -0.8316 -0.2668
   58DOPE  H18T 7435   5.661   6.550  14.290  3.4389 -1.5674  1.6021
   58DOPE   C33 7436   6.531   7.687  13.938  0.1990 -0.4276  0.1541
   58DOPE   H3X 7437   6.497   7.771  13.873 -0.2113 -0.0401  0.8533
   58DOPE   H3Y 7438   6.639   7.682  13.912 -0.4281  1.8938 -3.7401
   58DOPE   C34 7439   6.499   7.725  14.079 -0.1546  0.2254 -0.1862
   58DOPE   H4X 7440   6.523   7.832  14.097 -2.3643  0.8074 -0.3910
   58DOPE   H4Y 7441   6.392   7.705  14.101 -0.8419  1.7188 -1.8441
   58DOPE   C35 7442   6.582   7.644  14.180  0.2318  0.7419 -0.2668
   58DOPE   H5X 7443   6.688   7.676  14.171  0.2608  0.9760  0.7627
   58DOPE   H5Y 7444   6.564   7.535  14.172  0.3443  0.5121  1.8869
   58DOPE   C36 7445   6.530   7.673  14.331  0.1152  0.8860 -0.0213
   58DOPE   H6X 7446   6.423   7.646  14.335  0.4924 -0.5007  1.2686
   58DOPE   H6Y 7447   6.553   7.782  14.332  1.4333  0.6264  0.4478
   58DOPE   C37 7448   6.607   7.595  14.437  0.1676 -0.2193  0.2239
   58DOPE   H7X 7449   6.612   7.492  14.396 -2.9008  0.2530 -1.6625
   58DOPE   H7Y 7450   6.711   7.624  14.466 -0.5418  0.2192  2.5572
   58DOPE   C38 7451   6.520   7.584  14.568 -0.2214  0.5478  0.5699
   58DOPE   H8X 7452   6.556   7.497  14.626 -1.1386 -2.4298 -2.9386
   58DOPE   H8Y 7453   6.418   7.549  14.541 -0.0757  0.3025  0.3343
   58DOPE   C39 7454   6.520   7.713  14.641 -0.5040  0.0144 -0.3915
   58DOPE   H9X 7455   6.617   7.765  14.645 -0.1316 -0.6635 -0.4460
   58DOPE  C310 7456   6.415   7.771  14.699 -0.2496 -0.5399 -0.3017
   58DOPE  H10X 7457   6.429   7.869  14.747  1.3917 -1.0311  0.2730
   58DOPE  C311 7458   6.278   7.719  14.699  0.3885 -0.4051 -0.3446
   58DOPE  H11X 7459   6.207   7.801  14.721  0.7623 -0.4721  1.1525
   58DOPE  H11Y 7460   6.259   7.667  14.602  0.1155 -1.5409  0.3035
   58DOPE  C312 7461   6.264   7.612  14.808 -0.5126  0.4507  0.2777
   58DOPE  H12X 7462   6.339   7.530  14.799 -0.7805  0.2944 -0.6701
   58DOPE  H12Y 7463   6.161   7.572  14.814 -0.2666 -0.0718  4.7820
   58DOPE  C313 7464   6.295   7.659  14.950 -0.3670  0.3551 -0.9041
   58DOPE  H13X 7465   6.405   7.674  14.955 -0.5319  2.4257 -2.1932
   58DOPE  H13Y 7466   6.247   7.757  14.968 -0.3222  0.4472 -1.2719
   58DOPE  C314 7467   6.261   7.550  15.054 -0.4409 -0.3351  0.3959
   58DOPE  H14X 7468   6.258   7.452  15.002 -1.3077  0.8616 -1.9663
   58DOPE  H14Y 7469   6.152   7.553  15.078 -0.2037  0.5102  1.4332
   58DOPE  C315 7470   6.349   7.549  15.175 -0.5091  0.4877 -0.1259
   58DOPE  H15X 7471   6.455   7.541  15.143 -0.3131  0.0609  0.6096
   58DOPE  H15Y 7472   6.327   7.454  15.227 -0.6584  0.6824  0.1722
   58DOPE  C316 7473   6.341   7.672  15.272  0.3171  0.6708  0.3868
   58DOPE  H16X 7474   6.235   7.688  15.298 -0.5914 -1.7349 -1.3995
   58DOPE  H16Y 7475   6.374   7.758  15.211  0.3462  0.3189 -0.1007
   58DOPE  C317 7476   6.401   7.657  15.410  0.0694  0.2676  0.6750
   58DOPE  H17X 7477   6.367   7.742  15.473  0.0222  0.5746  0.2347
   58DOPE  H17Y 7478   6.362   7.562  15.454  1.6495 -0.5784  0.3184
   58DOPE  C318 7479   6.553   7.644  15.413  0.6747 -0.6493 -0.0092
   58DOPE  H18X 7480   6.608   7.726  15.361  3.7965 -1.3286  1.9838
   58DOPE  H18Y 7481   6.587   7.657  15.518  0.3261  1.4747 -0.1037
   58DOPE  H18Z 7482   6.585   7.544  15.378  0.7852 -0.8991  0.7912
   59DOPE     N 7483   1.010   0.515  13.026 -0.0470  0.1477 -0.2938
   59DOPE   HN1 7484   1.003   0.608  13.072  1.8960 -0.5413  1.5699
   59DOPE   HN2 7485   1.098   0.506  12.970  2.5232 -1.6705  3.5304
   59DOPE   HN3 7486   0.919   0.501  12.978 -1.6557 -1.4867  2.9439
   59DOPE   C12 7487   1.001   0.412  13.133  0.1334 -0.0653 -0.0476
   59DOPE  H12A 7488   1.086   0.430  13.202  1.4534  2.1405 -2.1183
   59DOPE  H12B 7489   1.006   0.312  13.084 -1.7637 -1.0110  1.5380
   59DOPE   C11 7490   0.867   0.417  13.201  0.1985 -0.6365  0.1530
   59DOPE  H11A 7491   0.874   0.521  13.240 -0.4234 -0.8543  0.8759
   59DOPE  H11B 7492   0.864   0.338  13.279  0.6199 -0.3934  0.4190
   59DOPE     P 7493   0.618   0.451  13.122 -0.0814  0.1137 -0.3089
   59DOPE   O13 7494   0.534   0.330  13.134 -0.0199 -0.1351 -0.2860
   59DOPE   O14 7495   0.595   0.539  13.011 -0.1605 -0.4529  0.0951
   59DOPE   O11 7496   0.619   0.531  13.258  0.1790  0.5975 -0.6657
   59DOPE   O12 7497   0.762   0.407  13.102  0.3237  0.2245 -0.3354
   59DOPE    C1 7498   0.496   0.561  13.331  0.6312  0.4318  0.8972
   59DOPE    HA 7499   0.425   0.476  13.337  0.7749  0.1460 -0.8506
   59DOPE    HB 7500   0.453   0.655  13.288  2.7936  0.7377 -0.8008
   59DOPE    C2 7501   0.517   0.598  13.476 -0.4183 -0.9793 -0.7073
   59DOPE    HS 7502   0.421   0.575  13.527 -0.4397 -2.4696 -1.3785
   59DOPE   O21 7503   0.555   0.736  13.479  0.3275  0.5162 -0.1408
   59DOPE   C21 7504   0.505   0.810  13.580  0.3426  0.3778  1.0472
   59DOPE   O22 7505   0.417   0.774  13.658 -0.5529  0.4608  0.2498
   59DOPE   C22 7506   0.587   0.938  13.592 -0.1473  0.1039 -0.4923
   59DOPE   H2R 7507   0.511   1.016  13.571 -0.3276  0.8492  2.4582
   59DOPE   H2S 7508   0.668   0.943  13.518 -0.0424  1.3927 -0.3196
   59DOPE    C3 7509   0.629   0.518  13.543  0.8983  0.2100  0.1222
   59DOPE    HX 7510   0.734   0.531  13.507  1.3534 -1.5477  0.7317
   59DOPE    HY 7511   0.610   0.410  13.527  0.0210  0.0195  2.1660
   59DOPE   O31 7512   0.633   0.532  13.691  0.5203  0.4109 -0.5301
   59DOPE   C31 7513   0.526   0.482  13.763 -0.5965 -0.8427  0.3057
   59DOPE   O32 7514   0.452   0.404  13.716  0.2722 -0.6980  0.0164
   59DOPE   C32 7515   0.531   0.531  13.915  0.2526 -0.3979 -0.1607
   59DOPE   H2X 7516   0.640   0.554  13.921  1.0120 -2.9993 -2.0695
   59DOPE   H2Y 7517   0.467   0.621  13.919  0.6391 -0.0214 -1.6100
   59DOPE   C23 7518   0.641   0.955  13.738 -0.2939  0.2890 -0.1658
   59DOPE   H3R 7519   0.691   0.866  13.782 -1.1792  0.0410  0.3521
   59DOPE   H3S 7520   0.557   0.978  13.807 -0.1535  0.2169  0.0314
   59DOPE   C24 7521   0.751   1.059  13.745 -0.0379  0.1078  0.2264
   59DOPE   H4R 7522   0.721   1.148  13.685 -3.2965 -1.0496 -0.0565
   59DOPE   H4S 7523   0.837   1.020  13.687  1.2631  1.9087  0.8609
   59DOPE   C25 7524   0.790   1.118  13.878  0.6397 -1.1699 -0.2319
   59DOPE   H5R 7525   0.708   1.175  13.928  0.8363 -1.3428  0.2946
   59DOPE   H5S 7526   0.875   1.189  13.868 -0.1713 -0.1722 -0.1912
   59DOPE   C26 7527   0.844   1.004  13.971  0.0365  0.0632  0.1672
   59DOPE   H6R 7528   0.907   0.933  13.914  1.2803  1.1079  0.2111
   59DOPE   H6S 7529   0.751   0.945  13.988 -1.1417  1.2675 -1.6701
   59DOPE   C27 7530   0.916   1.049  14.102  0.0701  0.1423 -0.5033
   59DOPE   H7R 7531   0.836   1.106  14.155 -0.0525 -0.2408 -0.2674
   59DOPE   H7S 7532   1.001   1.116  14.080  1.1325 -0.5902  1.1006
   59DOPE   C28 7533   0.959   0.929  14.184 -0.0687 -0.1026 -0.1140
   59DOPE   H8R 7534   1.030   0.868  14.124 -0.5922  0.0177 -0.8762
   59DOPE   H8S 7535   0.872   0.866  14.215  1.8759 -1.7972  2.2906
   59DOPE   C29 7536   1.021   0.974  14.311  0.3440 -0.0279  0.1773
   59DOPE   H9R 7537   0.958   1.052  14.357  0.7560  1.4815 -1.6921
   59DOPE  C210 7538   1.125   0.927  14.381  0.1183 -0.3369  0.0821
   59DOPE  H10R 7539   1.156   0.990  14.466  0.6208  0.6183 -0.8000
   59DOPE  C211 7540   1.217   0.810  14.351 -0.3076  0.7089  0.2868
   59DOPE  H11R 7541   1.229   0.788  14.243  0.9835  0.0351  0.5454
   59DOPE  H11S 7542   1.163   0.721  14.390 -0.7489  0.7299 -0.2632
   59DOPE  C212 7543   1.352   0.797  14.419  0.3901 -0.4043 -0.3608
   59DOPE  H12R 7544   1.402   0.713  14.367  1.2088  0.4298 -0.9436
   59DOPE  H12S 7545   1.352   0.762  14.525  2.2998  3.2368  1.0360
   59DOPE  C213 7546   1.427   0.935  14.396 -0.2275  0.3401 -0.4510
   59DOPE  H13R 7547   1.380   1.012  14.461 -0.9307 -0.0576 -0.4732
   59DOPE  H13S 7548   1.416   0.965  14.290 -0.2972  3.5211  0.3636
   59DOPE  C214 7549   1.574   0.941  14.445  0.8862  0.4409 -0.3743
   59DOPE  H14R 7550   1.575   0.956  14.555  1.3546 -1.2507 -0.1176
   59DOPE  H14S 7551   1.632   1.023  14.396  1.6463 -0.7188 -1.4746
   59DOPE  C215 7552   1.656   0.820  14.405 -0.3923  0.5847 -0.6789
   59DOPE  H15R 7553   1.597   0.733  14.441 -2.1863  1.7675 -0.6050
   59DOPE  H15S 7554   1.758   0.823  14.449  0.2102  2.7162 -2.0923
   59DOPE  C216 7555   1.677   0.806  14.250 -0.6922 -0.2394  0.2672
   59DOPE  H16R 7556   1.730   0.900  14.223  1.7840 -1.8101 -0.6585
   59DOPE  H16S 7557   1.580   0.793  14.197 -0.7329  1.6987 -0.2029
   59DOPE  C217 7558   1.768   0.689  14.204  0.0281 -0.6386  0.0195
   59DOPE  H17R 7559   1.715   0.595  14.230  0.2530 -0.4610  1.1649
   59DOPE  H17S 7560   1.865   0.697  14.258 -0.0001  1.3820 -0.1385
   59DOPE  C218 7561   1.807   0.697  14.056 -0.1930 -0.1256 -0.5487
   59DOPE  H18R 7562   1.713   0.676  14.000 -0.6689 -0.7714  0.4753
   59DOPE  H18S 7563   1.893   0.632  14.031 -0.1416 -0.6155  0.8541
   59DOPE  H18T 7564   1.843   0.800  14.036  0.4770  0.1074  1.6618
   59DOPE   C33 7565   0.495   0.421  14.010  0.0725  0.0906  0.0870
   59DOPE   H3X 7566   0.551   0.327  13.994  1.3508  0.8145  0.1748
   59DOPE   H3Y 7567   0.385   0.406  13.996 -0.1978  2.2057 -0.5539
   59DOPE   C34 7568   0.523   0.480  14.149 -0.3017  0.1633 -0.3663
   59DOPE   H4X 7569   0.628   0.464  14.180 -0.2992 -1.6174 -1.1811
   59DOPE   H4Y 7570   0.500   0.589  14.150  0.0595  0.2688  1.9016
   59DOPE   C35 7571   0.434   0.409  14.253 -0.6922 -0.1818  0.0874
   59DOPE   H5X 7572   0.430   0.299  14.239 -0.0675 -0.3271  1.0025
   59DOPE   H5Y 7573   0.327   0.429  14.233 -0.9792  0.4079  2.0329
   59DOPE   C36 7574   0.455   0.448  14.400  0.9142 -0.0120 -0.2277
   59DOPE   H6X 7575   0.446   0.559  14.396  0.2599 -0.0527  0.0614
   59DOPE   H6Y 7576   0.560   0.432  14.433  1.0920  3.0406  1.0314
   59DOPE   C37 7577   0.344   0.381  14.485  0.3353  0.6423 -0.6305
   59DOPE   H7X 7578   0.246   0.402  14.436 -0.4697  0.2183  0.7491
   59DOPE   H7Y 7579   0.356   0.271  14.475  4.9490  0.8322  0.4368
   59DOPE   C38 7580   0.352   0.412  14.640  0.4114  0.1936 -0.2819
   59DOPE   H8X 7581   0.265   0.350  14.670  0.2334  1.0025  0.9510
   59DOPE   H8Y 7582   0.327   0.519  14.656  0.7228  0.2652 -0.2610
   59DOPE   C39 7583   0.485   0.369  14.710  0.5717 -1.5907  0.6053
   59DOPE   H9X 7584   0.570   0.429  14.676 -0.1447 -1.0567 -0.2968
   59DOPE  C310 7585   0.503   0.258  14.789 -0.0238 -0.0280  1.0490
   59DOPE  H10X 7586   0.605   0.228  14.818  0.6681 -1.4718 -2.3593
   59DOPE  C311 7587   0.404   0.152  14.824  0.3114  0.1209 -0.3892
   59DOPE  H11X 7588   0.377   0.163  14.931 -0.8111 -0.0733 -0.6328
   59DOPE  H11Y 7589   0.310   0.169  14.767 -0.2821 -3.0016 -0.5127
   59DOPE  C312 7590   0.455   0.014  14.803 -0.0178  0.9975 -0.8477
   59DOPE  H12X 7591   0.540  -0.005  14.871 -0.6425  2.1718  0.2971
   59DOPE  H12Y 7592   0.501   0.003  14.702  1.4913 -0.7232 -0.0337
   59DOPE  C313 7593   0.339  -0.091  14.832  0.3621  0.1023  0.3094
   59DOPE  H13X 7594   0.286  -0.062  14.925 -0.1367  2.1156 -0.5354
   59DOPE  H13Y 7595   0.258  -0.087  14.756 -0.2695  0.9822  1.0166
   59DOPE  C314 7596   0.406  -0.226  14.865 -0.3045  0.5500  0.2478
   59DOPE  H14X 7597   0.363  -0.274  14.956 -0.6407  1.9829  0.8859
   59DOPE  H14Y 7598   0.512  -0.205  14.888  0.6952 -2.4643 -1.1738
   59DOPE  C315 7599   0.410  -0.312  14.738 -0.2319  0.9223 -0.2523
   59DOPE  H15X 7600   0.476  -0.279  14.655 -1.9364  0.4936 -1.8410
   59DOPE  H15Y 7601   0.305  -0.318  14.703 -1.0868 -1.9943  2.3883
   59DOPE  C316 7602   0.457  -0.457  14.775  0.3912 -0.1149  0.2646
   59DOPE  H16X 7603   0.392  -0.496  14.857 -0.0821 -1.4714 -0.7180
   59DOPE  H16Y 7604   0.559  -0.446  14.817 -0.0994  1.4436  1.1174
   59DOPE  C317 7605   0.453  -0.548  14.656  0.4925 -0.1546  0.0515
   59DOPE  H17X 7606   0.350  -0.557  14.615  1.0621  1.1407 -1.8217
   59DOPE  H17Y 7607   0.502  -0.499  14.569 -1.4524 -0.7953 -1.4878
   59DOPE  C318 7608   0.502  -0.694  14.680 -0.1902 -0.3001 -0.2933
   59DOPE  H18X 7609   0.507  -0.746  14.582 -1.8722  0.8015 -1.0209
   59DOPE  H18Y 7610   0.602  -0.701  14.727  0.7557  3.1915 -1.4389
   59DOPE  H18Z 7611   0.429  -0.740  14.749  0.1984  1.2049  1.1755
   60DOPE     N 7612   6.954   6.362  13.087  0.2921  0.2768 -0.1908
   60DOPE   HN1 7613   6.914   6.448  13.130 -1.0983 -0.1902 -0.5161
   60DOPE   HN2 7614   7.057   6.375  13.082  0.3211  1.0129  1.6265
   60DOPE   HN3 7615   6.909   6.365  12.994  0.2332 -0.9666 -0.2219
   60DOPE   C12 7616   6.912   6.243  13.166 -0.6292  0.1469 -0.1791
   60DOPE  H12A 7617   6.934   6.262  13.273 -3.1186 -0.2333  0.4703
   60DOPE  H12B 7618   6.979   6.160  13.135 -1.5952 -1.1451  1.0501
   60DOPE   C11 7619   6.761   6.194  13.150  0.3617 -0.0146 -0.5324
   60DOPE  H11A 7620   6.697   6.284  13.158 -0.0144 -0.1703 -1.6218
   60DOPE  H11B 7621   6.750   6.125  13.237  2.4840 -1.4129 -1.2807
   60DOPE     P 7622   6.751   5.969  13.007  0.0341 -0.0710 -0.0444
   60DOPE   O13 7623   6.720   5.945  12.859 -0.2983  0.2201  0.0327
   60DOPE   O14 7624   6.650   5.914  13.101 -0.1732 -0.1803  0.3026
   60DOPE   O11 7625   6.894   5.926  13.046 -0.6248 -0.2589 -0.8837
   60DOPE   O12 7626   6.741   6.126  13.027  0.2734 -0.1279  0.0501
   60DOPE    C1 7627   6.919   5.806  13.125 -0.0395 -0.3427 -0.2564
   60DOPE    HA 7628   7.024   5.774  13.110  0.4774  1.7478 -1.5503
   60DOPE    HB 7629   6.855   5.724  13.088 -1.2001 -1.0423  2.9920
   60DOPE    C2 7630   6.900   5.831  13.281 -0.4679 -0.0988  0.8738
   60DOPE    HS 7631   6.806   5.887  13.300 -0.3674  0.3710  0.0667
   60DOPE   O21 7632   7.009   5.920  13.326 -0.6836 -0.0487 -0.2417
   60DOPE   C21 7633   6.991   5.994  13.437 -0.4564  0.1617  0.0970
   60DOPE   O22 7634   6.882   6.014  13.487 -0.0109 -0.3483  0.3398
   60DOPE   C22 7635   7.121   6.065  13.481 -0.3495  0.3138  0.2684
   60DOPE   H2R 7636   7.157   6.110  13.386  0.0361  2.2533  1.2757
   60DOPE   H2S 7637   7.196   5.984  13.497  2.1466  2.4184 -0.0653
   60DOPE    C3 7638   6.909   5.700  13.357  0.6077 -0.2323  0.2690
   60DOPE    HX 7639   7.005   5.653  13.326 -0.1297 -0.2247 -2.2123
   60DOPE    HY 7640   6.832   5.629  13.321 -0.5542  1.4619 -0.7040
   60DOPE   O31 7641   6.900   5.711  13.498 -0.1948  0.0731  0.1070
   60DOPE   C31 7642   6.782   5.751  13.542 -0.1090  0.1239 -0.5184
   60DOPE   O32 7643   6.687   5.772  13.473  0.1835  0.6222 -0.4497
   60DOPE   C32 7644   6.793   5.772  13.701  0.2050 -0.1220 -0.0513
   60DOPE   H2X 7645   6.794   5.673  13.750  0.5099  0.4427  1.1305
   60DOPE   H2Y 7646   6.894   5.813  13.723  0.7326 -1.3931 -0.0512
   60DOPE   C23 7647   7.113   6.156  13.598 -0.1865 -0.6291 -0.1474
   60DOPE   H3R 7648   7.216   6.186  13.624 -0.7974  0.5469  1.0526
   60DOPE   H3S 7649   7.074   6.097  13.684 -0.1579 -0.4591 -0.0175
   60DOPE   C24 7650   7.019   6.280  13.561 -0.1194 -0.1695 -0.5699
   60DOPE   H4R 7651   6.915   6.246  13.548 -1.4686  2.4859  2.0860
   60DOPE   H4S 7652   7.059   6.320  13.466 -1.0986 -0.9764 -1.3371
   60DOPE   C25 7653   7.025   6.390  13.675 -0.1770 -0.2507  0.5916
   60DOPE   H5R 7654   6.927   6.438  13.659 -1.6140 -2.4346  2.1481
   60DOPE   H5S 7655   7.109   6.458  13.652 -0.5272 -0.2685 -0.8154
   60DOPE   C26 7656   7.037   6.339  13.820  0.0692 -0.2259  0.7436
   60DOPE   H6R 7657   7.129   6.277  13.823 -0.4329 -0.9858  0.5866
   60DOPE   H6S 7658   6.947   6.286  13.859 -0.1970  0.1962  0.7090
   60DOPE   C27 7659   7.071   6.458  13.911  0.1138  0.7124  0.3877
   60DOPE   H7R 7660   6.987   6.531  13.906 -1.0601 -0.5331  1.1591
   60DOPE   H7S 7661   7.169   6.500  13.880  0.1966  0.2878  0.0607
   60DOPE   C28 7662   7.094   6.411  14.055  0.1089  0.2132 -0.0180
   60DOPE   H8R 7663   7.155   6.318  14.058 -0.0356  0.0569 -1.2150
   60DOPE   H8S 7664   6.992   6.392  14.094 -0.7763 -0.1164 -2.3484
   60DOPE   C29 7665   7.150   6.521  14.137 -0.3319 -0.0540 -0.1721
   60DOPE   H9R 7666   7.088   6.612  14.145 -1.1607 -0.6698  0.6340
   60DOPE  C210 7667   7.270   6.521  14.203  0.8503 -0.0880  0.3287
   60DOPE  H10R 7668   7.310   6.615  14.243  0.1729  0.2421  0.2341
   60DOPE  C211 7669   7.358   6.397  14.204  0.0736 -0.7139  0.9302
   60DOPE  H11R 7670   7.292   6.309  14.190 -0.4155 -0.2609  0.3381
   60DOPE  H11S 7671   7.412   6.372  14.298 -3.9001 -2.8068  2.8672
   60DOPE  C212 7672   7.469   6.415  14.102 -0.5436 -0.5694 -1.0723
   60DOPE  H12R 7673   7.516   6.512  14.128 -0.8023 -0.6139 -0.4053
   60DOPE  H12S 7674   7.429   6.425  13.999 -0.0241  0.5467 -1.1763
   60DOPE  C213 7675   7.576   6.305  14.120  0.4294 -0.5867  0.1153
   60DOPE  H13R 7676   7.613   6.317  14.224 -1.1569  0.0974  0.6308
   60DOPE  H13S 7677   7.665   6.313  14.054  1.2986 -0.4919  1.2630
   60DOPE  C214 7678   7.528   6.164  14.113 -0.7492  0.2593  0.5897
   60DOPE  H14R 7679   7.463   6.139  14.200 -1.2907 -2.7945 -0.5609
   60DOPE  H14S 7680   7.620   6.102  14.121 -0.4110  0.2046 -2.6814
   60DOPE  C215 7681   7.473   6.120  13.973  0.1820  0.6950 -0.9842
   60DOPE  H15R 7682   7.556   6.114  13.898  0.6713 -0.0738 -0.3864
   60DOPE  H15S 7683   7.394   6.190  13.937  1.4048  1.8836 -1.4857
   60DOPE  C216 7684   7.388   5.989  13.979 -0.1317 -0.8458 -0.3585
   60DOPE  H16R 7685   7.295   6.007  14.038  0.2957  0.3980 -0.0376
   60DOPE  H16S 7686   7.458   5.912  14.018  2.6874  0.9465 -1.5717
   60DOPE  C217 7687   7.339   5.961  13.835  0.8023  0.2760  0.0792
   60DOPE  H17R 7688   7.297   6.049  13.781 -0.5892 -0.0877  0.5221
   60DOPE  H17S 7689   7.254   5.891  13.843 -1.2454  2.6597  0.3943
   60DOPE  C218 7690   7.455   5.899  13.750 -0.9546  0.5663 -0.0900
   60DOPE  H18R 7691   7.408   5.860  13.657 -2.1368  0.2427  0.6157
   60DOPE  H18S 7692   7.488   5.804  13.796 -0.1674  1.6002  1.5468
   60DOPE  H18T 7693   7.539   5.969  13.729 -0.7940 -0.0728 -1.7343
   60DOPE   C33 7694   6.676   5.866  13.764 -0.1322 -0.0419  0.6757
   60DOPE   H3X 7695   6.575   5.829  13.733  0.4675 -0.7397 -0.5150
   60DOPE   H3Y 7696   6.682   5.970  13.725  2.5760  0.2558  1.6729
   60DOPE   C34 7697   6.678   5.866  13.918  0.5999  0.2064 -0.2712
   60DOPE   H4X 7698   6.583   5.914  13.950  2.3471  3.7129  0.1190
   60DOPE   H4Y 7699   6.682   5.763  13.961  0.4726  0.2692 -0.1049
   60DOPE   C35 7700   6.801   5.938  13.973 -0.3176  0.0746 -0.7553
   60DOPE   H5X 7701   6.801   6.032  13.914  0.4827  0.2143 -0.5396
   60DOPE   H5Y 7702   6.893   5.878  13.955 -1.0823 -2.0431  1.8163
   60DOPE   C36 7703   6.789   5.982  14.115  0.0186 -0.5384 -0.0470
   60DOPE   H6X 7704   6.796   5.895  14.184  1.3297 -2.0484 -1.9769
   60DOPE   H6Y 7705   6.696   6.042  14.127  1.2966  1.4085  0.6478
   60DOPE   C37 7706   6.906   6.078  14.158 -0.4718  0.0903 -0.8849
   60DOPE   H7X 7707   7.005   6.030  14.139  0.3288  0.8040  1.2175
   60DOPE   H7Y 7708   6.914   6.175  14.105  0.8154  1.8345  2.2516
   60DOPE   C38 7709   6.902   6.103  14.313 -0.1942  0.5647 -0.0654
   60DOPE   H8X 7710   6.927   6.013  14.373 -0.4024 -0.0993 -0.9551
   60DOPE   H8Y 7711   6.796   6.127  14.335  0.5658  1.7501  2.6893
   60DOPE   C39 7712   6.996   6.209  14.356 -0.0236  1.0796  0.5292
   60DOPE   H9X 7713   6.951   6.310  14.359  1.0163  1.5354  1.3901
   60DOPE  C310 7714   7.121   6.201  14.398 -0.4505  0.3368 -0.4492
   60DOPE  H10X 7715   7.163   6.291  14.446 -0.7826 -0.7027  1.8791
   60DOPE  C311 7716   7.203   6.074  14.411 -0.2634 -0.4869  0.2720
   60DOPE  H11X 7717   7.146   5.983  14.383 -1.0460  0.7158 -2.3831
   60DOPE  H11Y 7718   7.285   6.087  14.337 -0.1195 -2.1125  0.1107
   60DOPE  C312 7719   7.260   6.044  14.546 -0.2200 -0.0904 -0.5956
   60DOPE  H12X 7720   7.198   5.974  14.606 -0.1424 -0.4486 -0.9306
   60DOPE  H12Y 7721   7.275   6.142  14.598  0.4337 -0.2440 -0.4829
   60DOPE  C313 7722   7.398   5.973  14.531  0.2269  0.2649  0.1254
   60DOPE  H13X 7723   7.382   5.889  14.461 -0.5195  2.5877 -2.7188
   60DOPE  H13Y 7724   7.463   6.046  14.478  2.1056 -1.7081 -0.4448
   60DOPE  C314 7725   7.473   5.923  14.657 -0.0497 -0.0648  0.2657
   60DOPE  H14X 7726   7.412   5.852  14.717  3.6444 -1.6614  2.5176
   60DOPE  H14Y 7727   7.489   6.017  14.714 -1.5202  0.6985 -0.5167
   60DOPE  C315 7728   7.609   5.854  14.628 -0.0756 -0.3635 -0.4915
   60DOPE  H15X 7729   7.686   5.928  14.598  2.2900 -3.1413 -1.7997
   60DOPE  H15Y 7730   7.595   5.780  14.546 -0.9449 -1.1755  0.3726
   60DOPE  C316 7731   7.670   5.775  14.743 -0.0904  0.0251 -0.1428
   60DOPE  H16X 7732   7.673   5.849  14.826  0.0275  0.2303 -0.3297
   60DOPE  H16Y 7733   7.767   5.736  14.706 -0.8389 -4.1662  1.7524
   60DOPE  C317 7734   7.577   5.656  14.789  0.3786  0.3333 -0.7004
   60DOPE  H17X 7735   7.483   5.698  14.831  0.4148  0.9084 -1.1931
   60DOPE  H17Y 7736   7.556   5.607  14.692  2.1620  0.3840 -1.1544
   60DOPE  C318 7737   7.638   5.563  14.895  0.6427 -0.7116  0.0309
   60DOPE  H18X 7738   7.663   5.633  14.977  0.3480 -1.1243  0.4783
   60DOPE  H18Y 7739   7.562   5.488  14.926  0.9980 -0.1993  2.3301
   60DOPE  H18Z 7740   7.721   5.501  14.854  0.0511 -2.7335  1.7336
   6123SM     N 7741   3.584   2.808  17.552 -0.5079  0.2773 -0.0062
   6123SM   C15 7742   3.469   2.781  17.454 -1.0122  0.0669  0.3001
   6123SM  H15A 7743   3.376   2.744  17.494  0.0217 -2.8708  0.2402
   6123SM  H15B 7744   3.510   2.720  17.374 -0.4162  0.4842  0.2850
   6123SM  H15C 7745   3.443   2.877  17.413 -1.4403  0.5130  1.5618
   6123SM   C14 7746   3.641   2.680  17.602  0.1408  0.1736  0.5016
   6123SM  H14A 7747   3.560   2.628  17.650 -1.4140  3.2356  1.4424
   6123SM  H14B 7748   3.712   2.690  17.683  1.7430 -3.0557 -0.3110
   6123SM  H14C 7749   3.676   2.616  17.522 -0.8627 -2.2331  1.8643
   6123SM   C13 7750   3.699   2.872  17.472  0.5727  1.0430 -0.1097
   6123SM  H13A 7751   3.780   2.874  17.543  0.1705 -0.1105  0.4114
   6123SM  H13B 7752   3.683   2.976  17.449  0.2424  0.7288 -1.3889
   6123SM  H13C 7753   3.725   2.817  17.382 -0.2716 -0.7774  0.7098
   6123SM   C12 7754   3.545   2.900  17.664 -0.8545  0.4119 -0.3515
   6123SM  H12A 7755   3.629   2.905  17.732 -3.3290 -1.3487  3.1632
   6123SM  H12B 7756   3.470   2.857  17.730  1.8466 -0.9453  2.0669
   6123SM   C11 7757   3.502   3.040  17.639  0.2700 -1.0735 -0.5705
   6123SM  H11A 7758   3.561   3.090  17.558  0.2394  1.1688  0.7070
   6123SM  H11B 7759   3.521   3.096  17.733 -1.9891 -1.0005 -0.1131
   6123SM     P 7760   3.312   3.156  17.511  0.1654  0.3645  0.3842
   6123SM   O13 7761   3.166   3.170  17.526 -0.0087  0.5310 -0.5130
   6123SM   O14 7762   3.384   3.280  17.528 -0.3003 -0.4714  0.5656
   6123SM   O11 7763   3.352   3.081  17.380 -0.2856 -0.5368 -0.3259
   6123SM   O12 7764   3.361   3.051  17.624 -1.0619 -0.8239  0.5408
   6123SM   C1S 7765   3.264   3.065  17.269 -0.2041 -0.0086 -0.2601
   6123SM   H1S 7766   3.168   3.119  17.277 -0.6103 -0.9474  1.9539
   6123SM   H1T 7767   3.233   2.959  17.260  0.3514 -0.2825  0.7868
   6123SM    NF 7768   3.241   3.103  17.020  0.6310 -0.6406 -0.0458
   6123SM   HNF 7769   3.229   3.020  16.966  0.8360 -1.1891  0.7211
   6123SM   C2S 7770   3.337   3.100  17.135  0.6614  0.0600  0.6536
   6123SM   H2S 7771   3.380   3.201  17.148 -1.0075  0.7248  1.2742
   6123SM   C3S 7772   3.459   3.003  17.115 -0.2037  0.4836 -0.1202
   6123SM   H3S 7773   3.414   2.901  17.124  1.7125 -0.3595  0.4297
   6123SM    O3 7774   3.559   3.013  17.217 -0.2400  0.0600 -0.2794
   6123SM   HO3 7775   3.521   3.066  17.287  1.2810  1.7370 -0.6529
   6123SM   C4S 7776   3.527   3.029  16.985 -0.7615  0.6529 -0.7729
   6123SM   H4S 7777   3.595   3.115  16.990  3.7870 -2.6003 -0.4389
   6123SM   C5S 7778   3.528   2.946  16.881  0.9559 -0.3100  0.1145
   6123SM   H5S 7779   3.464   2.859  16.860  2.1502 -0.7526 -1.9888
   6123SM   C6S 7780   3.603   2.985  16.756 -0.2525  0.4415  0.2550
   6123SM   H6S 7781   3.626   2.890  16.704 -1.2106  1.0002 -1.2647
   6123SM   H6T 7782   3.696   3.036  16.789 -0.2074  0.5828 -0.0792
   6123SM   C7S 7783   3.509   3.077  16.683 -0.0557 -0.2429 -0.1817
   6123SM   H7S 7784   3.503   3.177  16.732  2.0300  0.1236 -0.5606
   6123SM   H7T 7785   3.410   3.034  16.660  0.0999 -0.7126  0.0046
   6123SM   C8S 7786   3.573   3.115  16.549  0.2383  0.1892 -0.3171
   6123SM   H8S 7787   3.614   3.025  16.499 -0.7652  0.0286 -0.8663
   6123SM   H8T 7788   3.658   3.183  16.575 -0.6093  0.2022  2.7212
   6123SM   C9S 7789   3.486   3.204  16.449 -0.0473  0.0594 -0.5323
   6123SM   H9S 7790   3.485   3.309  16.484 -0.6613 -0.4553  1.0587
   6123SM   H9T 7791   3.382   3.166  16.452  0.5875 -1.6996  0.2261
   6123SM  C10S 7792   3.523   3.175  16.300 -0.5013 -0.1789 -0.6930
   6123SM  H10S 7793   3.539   3.067  16.279  0.8351 -0.2480  0.5004
   6123SM  H10T 7794   3.613   3.234  16.275 -0.4915 -0.7406 -2.0487
   6123SM  C11S 7795   3.408   3.211  16.205 -0.0196 -0.0119 -0.8717
   6123SM  H11S 7796   3.328   3.138  16.230  3.3391 -2.6578  3.4806
   6123SM  H11T 7797   3.447   3.202  16.101  1.6690  0.9617 -0.3655
   6123SM  C12S 7798   3.338   3.345  16.220 -0.4886 -0.4172 -0.2346
   6123SM  H12S 7799   3.417   3.422  16.206 -1.5214  0.9833  1.2493
   6123SM  H12T 7800   3.296   3.361  16.321  1.2586  4.3721 -0.0021
   6123SM  C13S 7801   3.233   3.364  16.112  0.5073  0.1014 -0.3355
   6123SM  H13S 7802   3.163   3.442  16.149  0.8348  0.0801  0.3344
   6123SM  H13T 7803   3.179   3.267  16.107 -0.2365  0.3912  1.3548
   6123SM  C14S 7804   3.299   3.411  15.983 -0.3978  0.1732  0.5960
   6123SM  H14S 7805   3.408   3.389  15.977  0.0105  0.9902  3.4861
   6123SM  H14T 7806   3.299   3.522  15.993  0.8601  0.0894  1.9014
   6123SM  C15S 7807   3.226   3.361  15.864  0.0144  0.4184  0.3321
   6123SM  H15S 7808   3.118   3.382  15.878 -0.2505 -0.1866 -0.6485
   6123SM  H15T 7809   3.239   3.250  15.856 -0.0772  0.5371 -2.1695
   6123SM  C16S 7810   3.265   3.421  15.729 -0.2626  0.8946  0.2446
   6123SM  H16S 7811   3.206   3.381  15.643  2.2895 -1.1885 -0.6887
   6123SM  H16T 7812   3.366   3.386  15.698 -1.2006 -1.1856 -0.6475
   6123SM  C17S 7813   3.273   3.574  15.719  0.3455  0.8326 -0.3791
   6123SM  H17S 7814   3.321   3.615  15.627 -1.8648  3.3646 -0.5418
   6123SM  H17T 7815   3.348   3.623  15.786 -0.2998  0.8351  0.3575
   6123SM  C18S 7816   3.129   3.633  15.733  0.3515 -0.4295  0.3979
   6123SM  H18S 7817   3.092   3.612  15.836 -1.2088  0.9238  0.1402
   6123SM  H18T 7818   3.064   3.588  15.656  0.5429 -2.0573  1.1423
   6123SM  H18U 7819   3.140   3.741  15.711  1.4008 -0.5018  0.4799
   6123SM   C1F 7820   3.157   3.206  17.007  0.0787 -0.1893  0.1233
   6123SM    OF 7821   3.162   3.306  17.078 -0.4286 -0.1011 -0.2608
   6123SM   C2F 7822   3.054   3.205  16.897  0.4905  0.3489 -0.1141
   6123SM   H2F 7823   2.958   3.181  16.948 -0.2782 -0.8115 -2.0168
   6123SM   H2G 7824   3.078   3.122  16.828  0.3221  1.0716 -1.0469
   6123SM   C3F 7825   3.038   3.340  16.829 -0.3771  0.5594 -0.3722
   6123SM   H3F 7826   3.138   3.362  16.786  0.1324 -2.2497 -0.8192
   6123SM   H3G 7827   3.014   3.417  16.906  2.9513 -0.4292  1.8558
   6123SM   C4F 7828   2.924   3.327  16.733 -0.2269 -0.1474 -0.3684
   6123SM   H4F 7829   2.922   3.420  16.672  1.4004 -0.8510 -1.5855
   6123SM   H4G 7830   2.824   3.332  16.781 -0.3835 -0.3340 -0.6710
   6123SM   C5F 7831   2.927   3.214  16.626  0.3104  0.5034  0.2914
   6123SM   H5F 7832   2.835   3.224  16.565 -1.1167 -1.6958  1.9230
   6123SM   H5G 7833   2.925   3.112  16.669  1.0025  0.7089  0.8195
   6123SM   C6F 7834   3.049   3.229  16.524  0.4866  0.7405  0.2597
   6123SM   H6F 7835   3.135   3.201  16.590 -1.4392 -1.1425  2.1498
   6123SM   H6G 7836   3.058   3.336  16.495 -2.1174  0.8681 -0.2963
   6123SM   C7F 7837   3.050   3.132  16.401 -0.2677 -0.2685  0.3011
   6123SM   H7F 7838   3.035   3.028  16.436  0.0917 -0.2366  0.5559
   6123SM   H7G 7839   3.143   3.133  16.339 -0.0802 -1.5566  0.5246
   6123SM   C8F 7840   2.951   3.172  16.294  0.8219 -0.6554 -0.2899
   6123SM   H8F 7841   2.995   3.265  16.251 -0.9836  0.7465  0.7503
   6123SM   H8G 7842   2.848   3.192  16.329  0.9363 -0.2935 -0.1575
   6123SM   C9F 7843   2.943   3.065  16.187 -0.1634 -0.4811  0.3530
   6123SM   H9F 7844   2.875   2.986  16.225 -2.1070  1.4298  1.0567
   6123SM   H9G 7845   3.041   3.019  16.164 -0.0708 -0.8352  1.4244
   6123SM  C10F 7846   2.888   3.109  16.052 -0.1898  0.5175  1.3985
   6123SM  H10F 7847   2.940   3.198  16.012  1.3630 -0.6848  0.6013
   6123SM  H10G 7848   2.783   3.140  16.070 -0.7412  0.7411 -1.5646
   6123SM  C11F 7849   2.890   3.000  15.938  0.0436  0.4733 -0.7673
   6123SM  H11F 7850   2.887   2.900  15.986  1.0398  0.3827 -0.8689
   6123SM  H11G 7851   2.990   3.013  15.891 -0.0276 -0.6685 -1.2611
   6123SM  C12F 7852   2.771   3.001  15.840  0.2012 -0.2529 -0.3811
   6123SM  H12F 7853   2.764   3.094  15.779  0.4495 -0.7079 -1.1176
   6123SM  H12G 7854   2.678   2.990  15.899  0.3280 -0.4853 -0.2241
   6123SM  C13F 7855   2.773   2.892  15.734  0.2958 -0.1027 -0.4467
   6123SM  H13F 7856   2.668   2.897  15.697  0.0654 -2.3243 -0.2556
   6123SM  H13G 7857   2.804   2.797  15.784 -2.0054  0.6526  2.7297
   6123SM  C14F 7858   2.869   2.923  15.615  0.4626 -0.3131 -0.2664
   6123SM  H14F 7859   2.973   2.904  15.649 -0.3321  0.3818  2.8951
   6123SM  H14G 7860   2.875   3.033  15.599  2.8734 -0.5077 -1.1090
   6123SM  C15F 7861   2.851   2.857  15.479  0.2553 -0.1173 -0.0985
   6123SM  H15F 7862   2.840   2.749  15.500  0.8289 -0.3527 -1.0087
   6123SM  H15G 7863   2.936   2.890  15.417 -0.9234  0.6591 -1.3623
   6123SM  C16F 7864   2.722   2.910  15.410 -0.8487 -0.0633 -0.2492
   6123SM  H16F 7865   2.725   3.021  15.421  0.8755  0.2976 -3.3156
   6123SM  H16G 7866   2.650   2.866  15.483 -0.6476  0.6536  0.3989
   6123SM  C17F 7867   2.697   2.860  15.270 -0.1282  0.1142  0.2263
   6123SM  H17F 7868   2.728   2.754  15.261  0.8907  0.4990 -1.2842
   6123SM  H17G 7869   2.767   2.910  15.199  1.5031  0.8538  2.2395
   6123SM  C18F 7870   2.556   2.875  15.222  0.3575  0.1623 -0.4995
   6123SM  H18F 7871   2.553   2.872  15.111 -2.6528  2.0174 -0.5659
   6123SM  H18G 7872   2.531   2.983  15.234  1.1076  0.2445  0.4588
   6123SM  C19F 7873   2.461   2.770  15.280 -0.1816  0.3822 -0.7569
   6123SM  H19F 7874   2.464   2.789  15.389 -1.2033  0.9990 -0.8204
   6123SM  H19G 7875   2.501   2.669  15.260 -1.1821  0.1528 -1.7044
   6123SM  C20F 7876   2.311   2.792  15.241 -0.8821 -1.1105 -0.4130
   6123SM  H20F 7877   2.251   2.722  15.302  0.7806 -2.7697 -0.5577
   6123SM  H20G 7878   2.301   2.763  15.134  1.7080  0.2584 -1.1187
   6123SM  C21F 7879   2.264   2.937  15.261  0.5432  0.6927  0.3123
   6123SM  H21F 7880   2.307   3.001  15.182 -1.3547  0.3498 -1.0754
   6123SM  H21G 7881   2.289   2.977  15.362  0.6366 -1.4151  1.1801
   6123SM  C22F 7882   2.113   2.940  15.216 -0.0893 -0.2228 -0.0914
   6123SM  H22F 7883   2.059   2.864  15.276  0.6667 -3.5172 -3.2161
   6123SM  H22G 7884   2.112   2.908  15.110  0.8612  1.6059 -0.6895
   6123SM  C23F 7885   2.054   3.081  15.238  0.1288  0.0585  0.0333
   6123SM  H23F 7886   1.963   3.103  15.179 -0.9784  2.4507  2.3997
   6123SM  H23G 7887   2.127   3.159  15.211 -1.1102  0.4872 -2.2579
   6123SM  H23H 7888   2.019   3.090  15.344 -1.2428 -0.9666 -0.3049
   6223SM     N 7889   2.931   2.436  17.684 -0.3825  0.0339  0.6183
   6223SM   C15 7890   2.845   2.318  17.646 -0.7345 -0.1870  0.6143
   6223SM  H15A 7891   2.851   2.300  17.540 -1.4890  0.5396  0.4309
   6223SM  H15B 7892   2.743   2.336  17.676 -0.8573 -0.0587  0.1344
   6223SM  H15C 7893   2.875   2.224  17.689 -0.7127 -0.7262 -0.5334
   6223SM   C14 7894   2.844   2.552  17.656 -0.0275 -0.1808  0.5384
   6223SM  H14A 7895   2.759   2.557  17.723 -1.0040  1.6150 -0.7675
   6223SM  H14B 7896   2.804   2.550  17.556 -1.0825  0.8922  0.9155
   6223SM  H14C 7897   2.893   2.647  17.671 -2.1775  1.0408  0.2920
   6223SM   C13 7898   2.970   2.430  17.832  0.1923 -0.1964 -1.0951
   6223SM  H13A 7899   3.039   2.349  17.849  0.8276  0.1832 -1.8066
   6223SM  H13B 7900   2.882   2.409  17.892 -0.1989  0.9026 -1.2696
   6223SM  H13C 7901   3.013   2.525  17.860  1.6016 -0.8731 -0.8591
   6223SM   C12 7902   3.054   2.431  17.597 -0.3744 -0.0437  0.1137
   6223SM  H12A 7903   3.112   2.340  17.603  1.3362  0.6605 -3.2614
   6223SM  H12B 7904   3.124   2.504  17.635  0.9002  0.6129 -3.1638
   6223SM   C11 7905   3.050   2.454  17.438  0.6653  0.2846  0.1369
   6223SM  H11A 7906   2.992   2.371  17.391 -2.0378  1.6747  0.8209
   6223SM  H11B 7907   3.159   2.442  17.420  0.2907  0.1107 -2.4102
   6223SM     P 7908   3.078   2.708  17.390  0.0841  0.0718  0.2443
   6223SM   O13 7909   2.989   2.811  17.333  0.2455  0.4120  0.5648
   6223SM   O14 7910   3.141   2.741  17.514 -0.1003  0.4245  0.3155
   6223SM   O11 7911   3.190   2.670  17.290 -0.0300 -0.3519 -0.3977
   6223SM   O12 7912   2.994   2.581  17.405 -0.6931  0.6586 -0.0114
   6223SM   C1S 7913   3.158   2.614  17.162 -0.4146  0.1122 -0.0663
   6223SM   H1S 7914   3.063   2.657  17.122 -0.2490 -1.9131 -2.9045
   6223SM   H1T 7915   3.125   2.508  17.175  0.5889 -0.0567  1.3273
   6223SM    NF 7916   3.210   2.619  16.920 -0.7098  0.0130 -0.4921
   6223SM   HNF 7917   3.212   2.528  16.880 -2.1622 -0.5379  0.5983
   6223SM   C2S 7918   3.267   2.633  17.057  0.3049  0.1064  0.8606
   6223SM   H2S 7919   3.304   2.737  17.058 -0.6427  0.4620  0.1193
   6223SM   C3S 7920   3.376   2.530  17.080  0.0882 -0.4102  0.2045
   6223SM   H3S 7921   3.346   2.425  17.059  1.9201 -0.5626 -2.0538
   6223SM    O3 7922   3.420   2.513  17.216  0.0995 -0.0516  0.3078
   6223SM   HO3 7923   3.352   2.552  17.272  0.7882  0.8110  0.5734
   6223SM   C4S 7924   3.499   2.552  16.987 -0.2672 -0.6052  0.4299
   6223SM   H4S 7925   3.496   2.479  16.905  0.5456 -1.4529  1.1395
   6223SM   C5S 7926   3.617   2.619  17.003  0.0937  0.1548  0.4544
   6223SM   H5S 7927   3.633   2.672  17.098 -1.1067  0.4095  0.5282
   6223SM   C6S 7928   3.724   2.629  16.895 -0.5038 -0.3955 -0.4638
   6223SM   H6S 7929   3.814   2.576  16.934 -0.6392 -1.5312 -1.6248
   6223SM   H6T 7930   3.758   2.734  16.887 -1.2972  0.1064  2.0159
   6223SM   C7S 7931   3.699   2.572  16.751 -0.2039 -0.3013  0.3820
   6223SM   H7S 7932   3.629   2.644  16.702 -0.3929 -1.5439 -1.2807
   6223SM   H7T 7933   3.655   2.470  16.757 -0.9077  0.0887  2.6507
   6223SM   C8S 7934   3.824   2.559  16.662  0.4829  0.0849  0.9290
   6223SM   H8S 7935   3.804   2.513  16.563  1.6147  0.6499  0.4273
   6223SM   H8T 7936   3.898   2.502  16.722  0.3138  0.8420  1.9023
   6223SM   C9S 7937   3.878   2.705  16.646  0.5249 -0.3173  0.4672
   6223SM   H9S 7938   3.906   2.756  16.741 -0.7988 -1.3550  1.4563
   6223SM   H9T 7939   3.794   2.768  16.609 -1.5624 -2.3469  1.5145
   6223SM  C10S 7940   3.998   2.713  16.551  0.6519 -0.1574  0.5276
   6223SM  H10S 7941   4.069   2.633  16.583 -0.6592 -1.1509  1.0471
   6223SM  H10T 7942   4.058   2.807  16.557 -0.9042  1.3034 -3.6301
   6223SM  C11S 7943   3.962   2.681  16.398 -0.7121  0.3210 -0.6107
   6223SM  H11S 7944   3.900   2.764  16.359 -1.6344  0.3557  0.8551
   6223SM  H11T 7945   3.919   2.582  16.370  0.1480 -0.3551  0.3804
   6223SM  C12S 7946   4.097   2.671  16.311  0.2011 -0.2703 -0.9131
   6223SM  H12S 7947   4.150   2.582  16.351 -0.4099  0.1233  0.8478
   6223SM  H12T 7948   4.158   2.762  16.325 -0.8971  0.3592 -0.1376
   6223SM  C13S 7949   4.069   2.663  16.164  0.6287 -0.4708 -0.3060
   6223SM  H13S 7950   3.990   2.738  16.142  0.9183 -0.8972 -3.3087
   6223SM  H13T 7951   4.026   2.565  16.133  0.1803 -1.1066  2.1657
   6223SM  C14S 7952   4.193   2.684  16.079 -0.2702 -0.1443  0.0267
   6223SM  H14S 7953   4.242   2.584  16.087 -1.2621 -0.8391 -2.0297
   6223SM  H14T 7954   4.253   2.762  16.131 -0.5277  0.2549 -0.2681
   6223SM  C15S 7955   4.190   2.723  15.933  0.2138  0.3117 -0.3297
   6223SM  H15S 7956   4.152   2.825  15.914  2.8233  0.9864 -2.7174
   6223SM  H15T 7957   4.132   2.647  15.878  1.0111 -0.6029  0.0529
   6223SM  C16S 7958   4.337   2.729  15.874 -0.1024  0.1385 -0.1114
   6223SM  H16S 7959   4.398   2.811  15.916 -1.1689  0.0084  1.7585
   6223SM  H16T 7960   4.331   2.765  15.769  0.6172  0.0314 -0.1995
   6223SM  C17S 7961   4.425   2.592  15.874  0.3555  0.2744 -0.3820
   6223SM  H17S 7962   4.441   2.566  15.767 -0.7648 -0.9029 -0.2925
   6223SM  H17T 7963   4.363   2.506  15.905 -0.7798  1.5424  1.0232
   6223SM  C18S 7964   4.561   2.597  15.944  0.2950  0.0757 -0.0695
   6223SM  H18S 7965   4.556   2.619  16.052  0.5898 -0.3341  0.0256
   6223SM  H18T 7966   4.631   2.674  15.904 -0.9755  0.9354 -0.7137
   6223SM  H18U 7967   4.611   2.500  15.928 -0.2783 -0.4099  1.0111
   6223SM   C1F 7968   3.131   2.714  16.865  0.7339 -0.7953  0.4252
   6223SM    OF 7969   3.134   2.834  16.900 -0.2355 -0.1938  0.1837
   6223SM   C2F 7970   3.050   2.679  16.740 -0.1547 -0.6391 -0.9030
   6223SM   H2F 7971   2.947   2.709  16.770  0.1544 -0.9749  0.5550
   6223SM   H2G 7972   3.052   2.569  16.725 -0.8271 -0.5272 -1.8971
   6223SM   C3F 7973   3.108   2.756  16.622 -0.0260 -0.7313  0.2177
   6223SM   H3F 7974   3.087   2.864  16.632  0.8665 -0.4454 -0.7303
   6223SM   H3G 7975   3.050   2.725  16.532  1.4018 -0.7836 -0.7301
   6223SM   C4F 7976   3.247   2.734  16.582  0.1831  0.2908  0.2738
   6223SM   H4F 7977   3.264   2.624  16.583  1.9837  0.5075  2.6967
   6223SM   H4G 7978   3.317   2.771  16.660 -0.0352 -0.4582  0.8331
   6223SM   C5F 7979   3.270   2.805  16.447  0.1091  0.6564 -0.8730
   6223SM   H5F 7980   3.248   2.914  16.452 -1.5313  0.3113  1.1165
   6223SM   H5G 7981   3.199   2.776  16.366 -0.3689 -0.1659 -0.1844
   6223SM   C6F 7982   3.415   2.793  16.405 -0.1978 -0.2393  0.1140
   6223SM   H6F 7983   3.482   2.853  16.471  0.9992 -0.9664 -0.4188
   6223SM   H6G 7984   3.425   2.841  16.305 -0.9758  0.0695  0.1790
   6223SM   C7F 7985   3.471   2.650  16.406  0.0084 -0.1272  0.5914
   6223SM   H7F 7986   3.392   2.588  16.360 -0.4213 -0.2910  1.5269
   6223SM   H7G 7987   3.490   2.617  16.511  1.0300  1.2580  0.8727
   6223SM   C8F 7988   3.600   2.624  16.333 -0.8979 -0.1675  0.2092
   6223SM   H8F 7989   3.633   2.519  16.344 -0.4305  0.1486  2.2586
   6223SM   H8G 7990   3.682   2.674  16.389  1.7654 -3.7647 -0.1722
   6223SM   C9F 7991   3.600   2.653  16.186 -0.4778  0.3769  0.7352
   6223SM   H9F 7992   3.643   2.756  16.186  0.7923 -0.1302  1.3819
   6223SM   H9G 7993   3.496   2.655  16.147  0.3271 -1.5620 -1.8495
   6223SM  C10F 7994   3.676   2.543  16.101 -0.3114 -0.1393 -0.0433
   6223SM  H10F 7995   3.622   2.447  16.114  1.2992 -1.3326 -1.6515
   6223SM  H10G 7996   3.767   2.540  16.164  0.1296  1.2677 -0.5706
   6223SM  C11F 7997   3.708   2.582  15.964 -0.5413 -0.0070 -0.1204
   6223SM  H11F 7998   3.764   2.498  15.919 -2.2466 -2.0449  1.3368
   6223SM  H11G 7999   3.764   2.677  15.954 -0.1585 -0.0812  1.1778
   6223SM  C12F 8000   3.578   2.586  15.884  0.8322  0.5274  0.5063
   6223SM  H12F 8001   3.509   2.653  15.939  0.4551 -0.9409  1.8927
   6223SM  H12G 8002   3.548   2.481  15.902  1.7573  0.0352 -0.6446
   6223SM  C13F 8003   3.603   2.613  15.729  0.3897 -0.3991 -0.4879
   6223SM  H13F 8004   3.654   2.534  15.670  0.7292 -1.4606  1.1706
   6223SM  H13G 8005   3.656   2.708  15.708  0.2223 -0.5262 -1.5545
   6223SM  C14F 8006   3.457   2.621  15.665 -0.2446 -0.1105  1.1264
   6223SM  H14F 8007   3.404   2.699  15.723 -0.7870 -1.2859  2.2416
   6223SM  H14G 8008   3.401   2.526  15.680 -0.6526  0.1576  1.2924
   6223SM  C15F 8009   3.459   2.656  15.509  0.1205  0.5481  0.0069
   6223SM  H15F 8010   3.500   2.566  15.458 -2.8405 -0.2787 -1.0776
   6223SM  H15G 8011   3.524   2.746  15.498 -0.1409  0.7132 -0.1816
   6223SM  C16F 8012   3.314   2.678  15.458  0.1871  0.4794 -0.1830
   6223SM  H16F 8013   3.308   2.722  15.356  0.3311 -2.8677 -1.7395
   6223SM  H16G 8014   3.272   2.762  15.518  1.4321  1.3327 -0.4504
   6223SM  C17F 8015   3.220   2.556  15.449  0.8287  0.3179 -0.4087
   6223SM  H17F 8016   3.212   2.523  15.555  1.9247 -0.5764 -0.5746
   6223SM  H17G 8017   3.261   2.468  15.395 -1.2742 -0.7241 -0.3989
   6223SM  C18F 8018   3.079   2.593  15.399 -0.4169 -0.1440  0.2083
   6223SM  H18F 8019   3.079   2.589  15.288 -0.9972 -0.6995  0.2221
   6223SM  H18G 8020   3.054   2.694  15.440 -2.3367 -1.0253  1.3353
   6223SM  C19F 8021   2.962   2.500  15.443 -0.1693 -1.0794 -0.3680
   6223SM  H19F 8022   2.982   2.401  15.397  1.8962 -0.2151 -1.4769
   6223SM  H19G 8023   2.867   2.538  15.400 -0.2015  1.6513  1.7937
   6223SM  C20F 8024   2.947   2.480  15.602 -0.0862 -0.0866 -0.7554
   6223SM  H20F 8025   2.941   2.582  15.645 -1.9927 -0.8298  0.8846
   6223SM  H20G 8026   3.039   2.418  15.613  0.1657  0.3753 -0.2361
   6223SM  C21F 8027   2.815   2.387  15.630  0.7084 -0.2283  0.1438
   6223SM  H21F 8028   2.796   2.378  15.740  1.1887  1.8125  0.4290
   6223SM  H21G 8029   2.841   2.286  15.592  1.6112 -1.1375  2.8880
   6223SM  C22F 8030   2.688   2.444  15.575  0.2700 -0.4362  0.1133
   6223SM  H22F 8031   2.696   2.451  15.464  0.2546  2.2505  0.2024
   6223SM  H22G 8032   2.684   2.553  15.599  1.2292 -0.5984  1.0305
   6223SM  C23F 8033   2.557   2.380  15.624  0.0233  0.6442 -0.0629
   6223SM  H23F 8034   2.538   2.384  15.734 -0.4883  3.0374 -0.1836
   6223SM  H23G 8035   2.549   2.272  15.599  0.2509  1.0912 -2.2628
   6223SM  H23H 8036   2.474   2.428  15.569 -1.5067  0.5576  2.0212
   6323SM     N 8037   4.377   4.434  17.076 -0.3446 -0.2948  0.0089
   6323SM   C15 8038   4.402   4.405  16.931 -0.4361 -0.0273 -0.3412
   6323SM  H15A 8039   4.325   4.340  16.892  0.6532 -1.0310 -0.8848
   6323SM  H15B 8040   4.498   4.359  16.913 -0.7347 -1.3897  1.2960
   6323SM  H15C 8041   4.394   4.492  16.868  1.1580 -0.1090 -0.6876
   6323SM   C14 8042   4.344   4.302  17.135  0.0276  0.5792  0.0920
   6323SM  H14A 8043   4.273   4.248  17.075 -0.5679  0.5991  0.7644
   6323SM  H14B 8044   4.309   4.303  17.238  0.6512  0.7771  0.3046
   6323SM  H14C 8045   4.432   4.239  17.135 -0.3620 -0.0093  1.2962
   6323SM   C13 8046   4.504   4.478  17.143  0.4916 -0.1207  0.6784
   6323SM  H13A 8047   4.551   4.567  17.104  2.0007 -1.0901  0.1812
   6323SM  H13B 8048   4.574   4.396  17.134 -2.0438 -2.3534  0.0751
   6323SM  H13C 8049   4.486   4.497  17.248  2.0370  1.0999  0.7576
   6323SM   C12 8050   4.263   4.536  17.095  0.4855  0.0189  0.0161
   6323SM  H12A 8051   4.178   4.499  17.040  0.5238  0.3934 -0.3037
   6323SM  H12B 8052   4.286   4.632  17.050  0.2071 -0.1645 -0.5275
   6323SM   C11 8053   4.225   4.570  17.244 -1.1282  0.0150 -0.2679
   6323SM  H11A 8054   4.191   4.478  17.297 -1.6812  0.9042  0.9782
   6323SM  H11B 8055   4.136   4.636  17.245  0.1127  1.7697 -1.0251
   6323SM     P 8056   4.358   4.787  17.305 -0.0378 -0.0754 -0.0398
   6323SM   O13 8057   4.281   4.863  17.401  0.4188  0.4918  0.1464
   6323SM   O14 8058   4.505   4.803  17.301 -0.1704  0.0042 -0.6944
   6323SM   O11 8059   4.311   4.825  17.158 -0.0123 -0.0508  0.5328
   6323SM   O12 8060   4.330   4.635  17.322  0.9105 -0.4379  0.5445
   6323SM   C1S 8061   4.397   4.858  17.051 -1.2227 -0.1259  0.3297
   6323SM   H1S 8062   4.477   4.783  17.034 -1.0801  0.3865 -1.3566
   6323SM   H1T 8063   4.447   4.954  17.073  0.3278 -1.0717  1.0985
   6323SM    NF 8064   4.415   4.905  16.803  1.0178  0.6488 -0.3485
   6323SM   HNF 8065   4.432   4.999  16.777 -0.4492  0.9330 -0.3669
   6323SM   C2S 8066   4.321   4.885  16.912 -0.1735 -0.0237 -0.0967
   6323SM   H2S 8067   4.266   4.791  16.892  1.7592 -1.3695  0.6603
   6323SM   C3S 8068   4.213   5.000  16.925  0.5778 -0.5029  1.1662
   6323SM   H3S 8069   4.275   5.092  16.931  1.8522 -1.2951  0.6422
   6323SM    O3 8070   4.122   4.989  17.037  0.3182 -0.5808  0.0720
   6323SM   HO3 8071   4.165   4.923  17.091  0.7352  0.0865  0.5746
   6323SM   C4S 8072   4.138   4.992  16.791  0.1103  0.4960  0.4701
   6323SM   H4S 8073   4.181   5.055  16.713  1.0088 -0.8384 -0.1517
   6323SM   C5S 8074   4.042   4.901  16.748  0.4458 -0.1560  0.7683
   6323SM   H5S 8075   3.995   4.829  16.817  1.0962 -0.3328  1.0361
   6323SM   C6S 8076   3.983   4.915  16.606  0.3771  0.1806  0.1582
   6323SM   H6S 8077   3.874   4.936  16.614  0.1795 -0.2781 -1.0655
   6323SM   H6T 8078   3.996   4.816  16.557 -0.6153 -0.3837  1.0079
   6323SM   C7S 8079   4.042   5.014  16.498  1.0122  0.1489  0.0276
   6323SM   H7S 8080   4.152   5.001  16.487  1.2171 -0.0492  2.0119
   6323SM   H7T 8081   4.022   5.118  16.532  3.3679  0.4450  0.7259
   6323SM   C8S 8082   3.984   4.992  16.358 -0.0966 -0.3528  0.1914
   6323SM   H8S 8083   3.903   5.067  16.344  2.3652  2.7684  1.4301
   6323SM   H8T 8084   3.943   4.892  16.333 -1.0916  0.2597 -0.6987
   6323SM   C9S 8085   4.091   5.027  16.257 -0.0175  0.2201  0.1416
   6323SM   H9S 8086   4.158   4.938  16.250  0.1208  0.3736 -0.6030
   6323SM   H9T 8087   4.151   5.119  16.274  1.3911 -0.4609 -0.9186
   6323SM  C10S 8088   4.037   5.046  16.115  0.7420 -0.1940 -0.2130
   6323SM  H10S 8089   3.943   5.106  16.120  0.5025 -0.5241 -0.6288
   6323SM  H10T 8090   4.009   4.946  16.075  2.3085 -0.1002 -1.6706
   6323SM  C11S 8091   4.147   5.102  16.026  0.6717 -0.9508 -0.2646
   6323SM  H11S 8092   4.235   5.033  16.022  2.3348  1.0053  0.5397
   6323SM  H11T 8093   4.192   5.185  16.086 -0.1038 -0.1583 -0.7642
   6323SM  C12S 8094   4.098   5.140  15.881  0.8586  0.9083 -0.3644
   6323SM  H12S 8095   4.017   5.216  15.890  1.0842  0.9374  2.5727
   6323SM  H12T 8096   4.066   5.046  15.832 -0.5600  1.0899  0.1729
   6323SM  C13S 8097   4.198   5.215  15.795 -0.2381 -0.1751  0.2138
   6323SM  H13S 8098   4.288   5.152  15.784  0.3958  0.8008 -0.3482
   6323SM  H13T 8099   4.215   5.317  15.836  2.5119  0.3251 -1.8871
   6323SM  C14S 8100   4.154   5.243  15.649 -0.2649 -0.4597 -0.0975
   6323SM  H14S 8101   4.104   5.159  15.596  0.2188 -2.2012  2.0562
   6323SM  H14T 8102   4.247   5.271  15.595  1.3017 -2.0116  1.6866
   6323SM  C15S 8103   4.062   5.370  15.629 -0.1599  0.4016 -0.2680
   6323SM  H15S 8104   4.103   5.458  15.682  0.8620 -0.0694 -0.2534
   6323SM  H15T 8105   3.967   5.331  15.671  1.2894 -2.0643  1.0167
   6323SM  C16S 8106   4.051   5.405  15.489 -0.7098  0.9618  0.3211
   6323SM  H16S 8107   4.004   5.320  15.436  0.4312  1.6582 -1.9130
   6323SM  H16T 8108   4.144   5.429  15.435 -1.3136  0.0423 -1.1992
   6323SM  C17S 8109   3.961   5.533  15.471  0.0598  0.4276  0.4268
   6323SM  H17S 8110   4.002   5.616  15.532  0.9245 -1.1677  2.1481
   6323SM  H17T 8111   3.860   5.502  15.504  1.3142 -0.8499  3.4913
   6323SM  C18S 8112   3.950   5.558  15.325  0.5336  0.3296  0.0060
   6323SM  H18S 8113   3.898   5.473  15.274  2.6221 -2.1462  1.7387
   6323SM  H18T 8114   4.048   5.571  15.274  0.0328 -1.8174 -1.6722
   6323SM  H18U 8115   3.889   5.649  15.307  0.1372  0.3616  1.4065
   6323SM   C1F 8116   4.497   4.807  16.766  0.0259  0.7846  0.0312
   6323SM    OF 8117   4.486   4.690  16.805  0.5521 -0.2594  0.4053
   6323SM   C2F 8118   4.613   4.846  16.671  0.0829 -0.2121  0.2578
   6323SM   H2F 8119   4.572   4.920  16.599  0.2047 -1.0437 -0.6781
   6323SM   H2G 8120   4.637   4.752  16.617  0.3601 -2.2035  3.5665
   6323SM   C3F 8121   4.731   4.917  16.737 -0.0515  0.0615  0.2197
   6323SM   H3F 8122   4.786   4.854  16.810  0.3278  0.0226 -0.0981
   6323SM   H3G 8123   4.705   5.013  16.788 -1.8428  0.2565 -0.9994
   6323SM   C4F 8124   4.843   4.959  16.640  0.3432 -0.3396 -0.8221
   6323SM   H4F 8125   4.920   5.002  16.707  0.9690 -2.4553 -0.0870
   6323SM   H4G 8126   4.795   5.040  16.581 -0.7267 -0.2066  0.2111
   6323SM   C5F 8127   4.889   4.852  16.548 -0.0512 -0.1409 -0.7001
   6323SM   H5F 8128   4.809   4.806  16.486  1.7574 -0.7454 -2.7202
   6323SM   H5G 8129   4.930   4.765  16.604  2.1670  0.9517 -0.5097
   6323SM   C6F 8130   4.979   4.898  16.434 -0.0585  0.1918  0.6707
   6323SM   H6F 8131   5.010   4.810  16.374 -1.9367  0.7517 -1.2483
   6323SM   H6G 8132   5.066   4.948  16.482  0.2322 -0.1973  0.5576
   6323SM   C7F 8133   4.918   4.994  16.331 -0.4779 -0.1811 -0.1128
   6323SM   H7F 8134   4.877   5.083  16.384  1.9737  1.5715 -0.9986
   6323SM   H7G 8135   4.827   4.948  16.288 -0.4320  1.0002 -1.5493
   6323SM   C8F 8136   5.013   5.038  16.214  0.1379 -0.3053  0.6365
   6323SM   H8F 8137   5.043   4.943  16.166 -1.8613 -0.2354 -0.8671
   6323SM   H8G 8138   5.108   5.092  16.237  1.0823 -1.5778 -0.1010
   6323SM   C9F 8139   4.931   5.121  16.112 -0.2891 -0.1254 -0.4736
   6323SM   H9F 8140   4.918   5.223  16.155  0.2264  0.5912 -1.9511
   6323SM   H9G 8141   4.828   5.084  16.093 -0.3205  0.1299 -0.7999
   6323SM  C10F 8142   5.017   5.139  15.981 -0.5901 -0.3560  0.3186
   6323SM  H10F 8143   5.041   5.032  15.962  1.8162  0.0658  0.6953
   6323SM  H10G 8144   5.100   5.210  15.998 -2.0343  2.0849 -1.9894
   6323SM  C11F 8145   4.935   5.178  15.856 -0.5449  0.3475 -0.1232
   6323SM  H11F 8146   4.895   5.280  15.873  0.3486  0.7157 -0.2188
   6323SM  H11G 8147   4.850   5.106  15.848 -0.8210  0.7947 -1.4775
   6323SM  C12F 8148   5.012   5.177  15.723  0.1901  0.3939 -0.1247
   6323SM  H12F 8149   5.038   5.073  15.693  1.4720  0.1613  1.6498
   6323SM  H12G 8150   5.114   5.221  15.731 -0.1358  1.2198 -0.3570
   6323SM  C13F 8151   4.953   5.251  15.604  0.3419 -0.0236 -0.4976
   6323SM  H13F 8152   5.027   5.242  15.521 -0.0742 -0.7896 -0.7929
   6323SM  H13G 8153   4.953   5.361  15.623  3.0811 -0.1593  0.8055
   6323SM  C14F 8154   4.820   5.191  15.565 -0.3021  0.2923  0.6896
   6323SM  H14F 8155   4.748   5.208  15.647 -1.1048 -2.2338  0.6200
   6323SM  H14G 8156   4.818   5.080  15.557  0.2634  0.2133  1.5521
   6323SM  C15F 8157   4.760   5.251  15.430 -0.3070  0.1047  0.3669
   6323SM  H15F 8158   4.834   5.219  15.354 -0.3152  0.7941  0.0589
   6323SM  H15G 8159   4.763   5.362  15.427  1.0235  0.1560 -3.9829
   6323SM  C16F 8160   4.622   5.196  15.386 -1.4011  0.5750  0.2415
   6323SM  H16F 8161   4.547   5.197  15.468 -2.6730 -1.9323 -0.7936
   6323SM  H16G 8162   4.631   5.089  15.357  1.5335  0.8420 -0.1544
   6323SM  C17F 8163   4.559   5.264  15.265 -0.2594 -0.4444  0.3430
   6323SM  H17F 8164   4.615   5.238  15.173  1.1683 -0.8638  1.3049
   6323SM  H17G 8165   4.559   5.373  15.287 -1.7705 -0.4517  0.5035
   6323SM  C18F 8166   4.417   5.217  15.244  0.7787  0.4157 -0.6416
   6323SM  H18F 8167   4.366   5.241  15.340  0.9610 -0.8135 -0.2136
   6323SM  H18G 8168   4.424   5.106  15.238  1.1063  0.2040  2.1685
   6323SM  C19F 8169   4.339   5.287  15.133  0.0266  0.3538 -0.7016
   6323SM  H19F 8170   4.399   5.301  15.041  1.2675 -1.3460 -0.2044
   6323SM  H19G 8171   4.315   5.392  15.158 -2.5291  0.3787 -2.8284
   6323SM  C20F 8172   4.202   5.210  15.112 -0.3053 -0.6420 -0.3600
   6323SM  H20F 8173   4.157   5.205  15.213 -0.1462  0.3345 -0.2275
   6323SM  H20G 8174   4.221   5.109  15.070  0.1395  0.0233 -1.8301
   6323SM  C21F 8175   4.117   5.302  15.030  0.1800  0.1114 -0.2453
   6323SM  H21F 8176   4.167   5.335  14.937  3.1809 -0.7508  0.9475
   6323SM  H21G 8177   4.094   5.398  15.083 -1.1268 -0.9242  1.1663
   6323SM  C22F 8178   3.982   5.240  14.998  0.3613 -0.3143  0.5630
   6323SM  H22F 8179   3.928   5.218  15.093  1.0416  0.2248  1.0867
   6323SM  H22G 8180   4.000   5.146  14.942  1.6542  0.5099 -0.4636
   6323SM  C23F 8181   3.885   5.329  14.915 -0.0985  0.5407 -0.1167
   6323SM  H23F 8182   3.800   5.257  14.916  2.6120 -2.9719  1.5175
   6323SM  H23G 8183   3.913   5.350  14.810  0.7104  0.8815  0.1612
   6323SM  H23H 8184   3.859   5.425  14.965  1.1563  0.5995  0.4709
   6423SM     N 8185   4.759   4.866  17.592 -0.5010 -0.1994  0.4804
   6423SM   C15 8186   4.851   4.814  17.702  0.5997 -0.2935 -0.5169
   6423SM  H15A 8187   4.840   4.861  17.799  0.2774  1.5711 -1.4052
   6423SM  H15B 8188   4.951   4.834  17.667 -0.2339  0.0534 -2.8691
   6423SM  H15C 8189   4.840   4.708  17.715  2.4892 -0.6804 -1.6114
   6423SM   C14 8190   4.620   4.820  17.612 -0.2636  0.3991  0.1460
   6423SM  H14A 8191   4.614   4.714  17.630 -2.2792  0.5254  0.3701
   6423SM  H14B 8192   4.562   4.832  17.523  1.1295  1.0603 -0.7149
   6423SM  H14C 8193   4.572   4.871  17.694  2.0380 -0.7216  2.3591
   6423SM   C13 8194   4.769   5.013  17.600  0.3043  0.3731  0.1054
   6423SM  H13A 8195   4.714   5.054  17.684  1.1133 -0.8505  1.2968
   6423SM  H13B 8196   4.731   5.059  17.511  2.3989  0.4175 -0.8296
   6423SM  H13C 8197   4.874   5.038  17.601  0.5358 -0.4228 -1.5856
   6423SM   C12 8198   4.796   4.807  17.452  0.2405 -0.4171 -0.1865
   6423SM  H12A 8199   4.728   4.840  17.375 -1.3806 -2.8955  0.0606
   6423SM  H12B 8200   4.777   4.703  17.475  2.9271 -0.7686  0.8259
   6423SM   C11 8201   4.941   4.844  17.409 -0.0247  0.5533 -0.2194
   6423SM  H11A 8202   4.960   4.953  17.410  0.0497  0.5667 -1.5905
   6423SM  H11B 8203   4.942   4.806  17.305 -0.5139 -1.0335  0.3171
   6423SM     P 8204   5.065   4.629  17.488 -0.6760  0.2968 -0.1807
   6423SM   O13 8205   5.214   4.617  17.510  0.4840  0.5659 -0.3924
   6423SM   O14 8206   4.969   4.552  17.572  0.4151 -0.5491  0.1239
   6423SM   O11 8207   5.037   4.577  17.345  0.0398 -0.3200  0.4514
   6423SM   O12 8208   5.034   4.778  17.488 -0.4759  0.4612 -0.1123
   6423SM   C1S 8209   5.120   4.594  17.230  0.5979 -0.1713 -0.1052
   6423SM   H1S 8210   5.225   4.568  17.251  0.7993  1.1082  0.5970
   6423SM   H1T 8211   5.113   4.701  17.201  0.4114 -0.6706 -2.0287
   6423SM    NF 8212   5.164   4.512  17.008 -0.3854  0.3601  0.4368
   6423SM   HNF 8213   5.139   4.576  16.936 -0.7635 -0.2593  0.0092
   6423SM   C2S 8214   5.061   4.520  17.109  0.2000  0.3796 -0.8881
   6423SM   H2S 8215   5.048   4.417  17.148 -0.8012  1.7661  2.7675
   6423SM   C3S 8216   4.923   4.580  17.061 -0.4025  0.1703 -1.2536
   6423SM   H3S 8217   4.948   4.683  17.027 -0.1403  0.2100 -0.9513
   6423SM    O3 8218   4.823   4.593  17.178 -0.5302 -0.7845  0.6521
   6423SM   HO3 8219   4.883   4.577  17.250 -0.9775 -1.6630  0.8495
   6423SM   C4S 8220   4.851   4.494  16.955  0.5209 -0.4463  0.4316
   6423SM   H4S 8221   4.815   4.398  16.993 -0.2373  0.1372  1.2236
   6423SM   C5S 8222   4.835   4.540  16.828 -0.4155 -0.2324  0.1662
   6423SM   H5S 8223   4.876   4.638  16.802 -1.2132  0.3145  0.9082
   6423SM   C6S 8224   4.768   4.465  16.722 -0.0297 -0.5543 -0.2817
   6423SM   H6S 8225   4.700   4.535  16.669  3.5143  2.0042 -1.7921
   6423SM   H6T 8226   4.706   4.382  16.763  1.3249 -1.4276  0.0387
   6423SM   C7S 8227   4.869   4.427  16.614  0.1577  0.3175 -0.2422
   6423SM   H7S 8228   4.962   4.375  16.648 -1.6166 -2.8046  0.1756
   6423SM   H7T 8229   4.906   4.520  16.566 -1.0443  1.4921  1.0188
   6423SM   C8S 8230   4.791   4.345  16.504  0.5549  0.4334 -0.4133
   6423SM   H8S 8231   4.756   4.258  16.564 -0.0271  0.2407 -1.0273
   6423SM   H8T 8232   4.857   4.296  16.428 -0.4000  0.7697 -1.4826
   6423SM   C9S 8233   4.678   4.421  16.433 -0.7387  0.0725  0.2335
   6423SM   H9S 8234   4.606   4.475  16.498 -2.3461 -3.0370  1.2679
   6423SM   H9T 8235   4.614   4.351  16.375  0.4229  0.6814 -1.9073
   6423SM  C10S 8236   4.744   4.516  16.334 -0.6295 -0.0088 -0.5721
   6423SM  H10S 8237   4.816   4.453  16.277  0.0638  0.5951 -0.3877
   6423SM  H10T 8238   4.797   4.603  16.378 -0.8212 -0.3777  0.4047
   6423SM  C11S 8239   4.644   4.570  16.239 -0.1905  0.5289  0.1035
   6423SM  H11S 8240   4.562   4.627  16.288 -0.7476 -1.0827  1.0908
   6423SM  H11T 8241   4.598   4.492  16.175 -0.2916 -1.3858  2.3886
   6423SM  C12S 8242   4.706   4.663  16.130  0.1985 -0.0980 -0.8051
   6423SM  H12S 8243   4.781   4.597  16.081 -0.6866 -2.9579  1.3975
   6423SM  H12T 8244   4.755   4.750  16.179  2.1479 -1.8150  0.4681
   6423SM  C13S 8245   4.599   4.718  16.036  0.1331  0.1193  0.2419
   6423SM  H13S 8246   4.513   4.754  16.096  0.7922  1.4715  0.4184
   6423SM  H13T 8247   4.569   4.638  15.966 -0.3426 -0.8121  1.4746
   6423SM  C14S 8248   4.653   4.840  15.947  0.0758  0.0834 -0.4485
   6423SM  H14S 8249   4.733   4.798  15.883 -0.0464 -3.3579  1.4071
   6423SM  H14T 8250   4.706   4.904  16.021  0.6916 -0.3276 -0.5265
   6423SM  C15S 8251   4.547   4.922  15.876 -0.1201  0.0658 -0.2836
   6423SM  H15S 8252   4.576   5.028  15.889  0.1971  0.0548 -0.8518
   6423SM  H15T 8253   4.448   4.915  15.926 -0.1057 -0.8147 -0.3644
   6423SM  C16S 8254   4.555   4.893  15.722  0.0115  0.7520 -0.5200
   6423SM  H16S 8255   4.532   4.786  15.706  0.2545  0.8638 -1.7182
   6423SM  H16T 8256   4.650   4.927  15.676 -0.7220  1.7253 -1.3579
   6423SM  C17S 8257   4.440   4.964  15.645  0.0014 -0.1689 -0.0624
   6423SM  H17S 8258   4.460   5.072  15.628  1.0511 -0.7266 -2.9572
   6423SM  H17T 8259   4.344   4.956  15.699  0.9912 -0.0613  1.7929
   6423SM  C18S 8260   4.420   4.904  15.511  0.1923  0.1792 -0.0260
   6423SM  H18S 8261   4.339   4.969  15.472 -3.1010 -2.4145  1.9283
   6423SM  H18T 8262   4.370   4.806  15.519 -1.0253  0.9201  2.3604
   6423SM  H18U 8263   4.516   4.906  15.455 -1.0600 -0.3780 -2.2662
   6423SM   C1F 8264   5.281   4.457  17.019 -0.0700  0.4596 -0.1884
   6423SM    OF 8265   5.311   4.374  17.107 -0.6066  0.2132  0.9519
   6423SM   C2F 8266   5.375   4.493  16.913  0.4006 -0.7979  0.0453
   6423SM   H2F 8267   5.427   4.582  16.953 -0.6302  0.2337 -0.8484
   6423SM   H2G 8268   5.317   4.540  16.831 -1.1672  0.2555  1.6759
   6423SM   C3F 8269   5.469   4.386  16.873  0.0762  0.5559  0.0849
   6423SM   H3F 8270   5.524   4.350  16.962  0.1875  2.1468  0.6773
   6423SM   H3G 8271   5.543   4.428  16.801 -0.1449  0.6114 -0.1121
   6423SM   C4F 8272   5.413   4.262  16.793  0.0355  0.2836 -0.7237
   6423SM   H4F 8273   5.356   4.195  16.861  1.0992  0.4489  0.3856
   6423SM   H4G 8274   5.505   4.210  16.758 -0.3056 -1.2253  0.5076
   6423SM   C5F 8275   5.337   4.296  16.665 -0.2034  0.8609  0.2440
   6423SM   H5F 8276   5.400   4.342  16.586 -1.3175 -0.4193 -1.4557
   6423SM   H5G 8277   5.253   4.367  16.679 -0.4483  0.5299  0.4709
   6423SM   C6F 8278   5.265   4.169  16.611  0.0678 -0.0716  0.4530
   6423SM   H6F 8279   5.203   4.119  16.688  0.5933  1.1654  1.7291
   6423SM   H6G 8280   5.333   4.088  16.577 -0.9131  0.4402 -3.0897
   6423SM   C7F 8281   5.177   4.208  16.485  0.4313  0.0762 -0.0808
   6423SM   H7F 8282   5.245   4.255  16.411 -2.3909  1.4961 -1.9876
   6423SM   H7G 8283   5.096   4.279  16.514 -0.1824 -0.4426 -0.5018
   6423SM   C8F 8284   5.110   4.077  16.434  0.6300 -0.3842 -0.9583
   6423SM   H8F 8285   5.033   4.040  16.505  0.9667  1.1427  0.2520
   6423SM   H8G 8286   5.189   3.999  16.434  0.6418 -0.3848 -0.1605
   6423SM   C9F 8287   5.057   4.092  16.292 -0.0424  0.1583  0.0552
   6423SM   H9F 8288   4.974   4.166  16.288  0.8550  1.1947  0.2727
   6423SM   H9G 8289   5.023   3.994  16.253 -0.0270  0.7645 -1.5264
   6423SM  C10F 8290   5.169   4.137  16.196  0.8144  0.0854 -0.3317
   6423SM  H10F 8291   5.246   4.058  16.184 -0.2851 -1.0706 -0.0140
   6423SM  H10G 8292   5.218   4.232  16.225 -1.1577  0.9138  0.4549
   6423SM  C11F 8293   5.120   4.148  16.046  0.2308  0.1847  0.5346
   6423SM  H11F 8294   5.030   4.213  16.042 -0.7394 -1.0643  1.3104
   6423SM  H11G 8295   5.087   4.045  16.020 -2.3912  0.3679  2.6432
   6423SM  C12F 8296   5.233   4.194  15.949  0.0671  0.1767  0.1698
   6423SM  H12F 8297   5.313   4.118  15.933  0.7933  0.8473  0.5295
   6423SM  H12G 8298   5.290   4.278  15.994  1.5635 -1.2441  1.0537
   6423SM  C13F 8299   5.169   4.218  15.811 -0.3516 -0.4786  0.7688
   6423SM  H13F 8300   5.230   4.282  15.743 -0.0073 -2.8207 -1.2824
   6423SM  H13G 8301   5.070   4.268  15.816 -0.2683 -0.1949 -0.1650
   6423SM  C14F 8302   5.170   4.090  15.727 -0.5475  0.1040 -0.5008
   6423SM  H14F 8303   5.117   4.014  15.788  2.0271 -1.1722  0.2961
   6423SM  H14G 8304   5.269   4.039  15.723 -1.0809 -1.0588  0.3609
   6423SM  C15F 8305   5.111   4.107  15.584 -0.3622  0.3553 -0.7236
   6423SM  H15F 8306   5.162   4.202  15.559  3.3126 -1.2086  0.2237
   6423SM  H15G 8307   5.002   4.120  15.599 -0.8236 -1.0378 -2.4627
   6423SM  C16F 8308   5.162   3.993  15.498 -0.0198  0.0125 -0.3496
   6423SM  H16F 8309   5.129   3.911  15.565 -1.1165 -0.0442 -0.9304
   6423SM  H16G 8310   5.270   4.011  15.478 -0.0428 -1.5074 -2.0426
   6423SM  C17F 8311   5.104   3.980  15.348  0.2221  0.4202  0.0171
   6423SM  H17F 8312   4.996   3.962  15.364  0.4437 -1.0960 -0.0205
   6423SM  H17G 8313   5.157   3.894  15.302  1.5267  0.5016  1.2893
   6423SM  C18F 8314   5.141   4.100  15.260 -0.1359 -0.1904 -0.6289
   6423SM  H18F 8315   5.225   4.071  15.194  1.0895 -0.3983  0.9680
   6423SM  H18G 8316   5.164   4.185  15.328 -2.1371 -0.7648  0.8685
   6423SM  C19F 8317   5.027   4.142  15.161 -0.0725  0.7923 -0.4011
   6423SM  H19F 8318   5.066   4.224  15.097 -1.5234  0.9179 -1.1657
   6423SM  H19G 8319   4.939   4.184  15.214  0.9670  0.8158  1.3589
   6423SM  C20F 8320   4.973   4.029  15.066  0.3865  0.0765  0.6613
   6423SM  H20F 8321   4.884   4.077  15.021  0.3341  0.5083  1.2198
   6423SM  H20G 8322   4.948   3.941  15.128 -0.5670 -1.2605 -1.4982
   6423SM  C21F 8323   5.068   3.973  14.964  0.4297 -0.5611  0.2685
   6423SM  H21F 8324   5.155   3.911  14.996  1.8617 -0.4458 -3.0016
   6423SM  H21G 8325   5.111   4.054  14.902 -1.3455 -2.1004 -3.2800
   6423SM  C22F 8326   4.996   3.877  14.868 -0.7974 -0.0198  0.3862
   6423SM  H22F 8327   5.054   3.872  14.774  0.2079  0.4736  0.9617
   6423SM  H22G 8328   4.900   3.928  14.846 -1.9396 -1.3044  2.1245
   6423SM  C23F 8329   4.980   3.737  14.918  0.3675 -0.1557  0.6419
   6423SM  H23F 8330   5.063   3.707  14.985 -0.8178 -1.1014  1.7327
   6423SM  H23G 8331   4.964   3.664  14.835  0.1100 -1.0793  1.4835
   6423SM  H23H 8332   4.891   3.717  14.982  2.3043 -3.9139  2.5032
   6523SM     N 8333   6.107   5.724  17.474  0.1578  0.6459  0.0860
   6523SM   C15 8334   6.028   5.622  17.561 -0.0099 -0.5231  0.1290
   6523SM  H15A 8335   5.943   5.580  17.510 -0.8036 -0.3974  1.2968
   6523SM  H15B 8336   6.005   5.668  17.656  1.5997  0.9309 -0.1393
   6523SM  H15C 8337   6.101   5.545  17.581 -0.3777 -0.7965  0.4390
   6523SM   C14 8338   6.010   5.832  17.419  0.5194  0.1998  0.0650
   6523SM  H14A 8339   5.966   5.888  17.501  1.0972 -2.9214  2.7506
   6523SM  H14B 8340   5.933   5.783  17.361  1.2707  0.5641 -1.2812
   6523SM  H14C 8341   6.066   5.899  17.356  0.9222 -1.1224 -1.0254
   6523SM   C13 8342   6.214   5.790  17.549 -0.2304  0.2569 -0.3689
   6523SM  H13A 8343   6.290   5.725  17.589 -2.0879 -1.0027  1.3292
   6523SM  H13B 8344   6.170   5.851  17.627 -0.9955  1.8547 -1.9905
   6523SM  H13C 8345   6.257   5.851  17.471  1.3210 -1.6324 -1.0542
   6523SM   C12 8346   6.167   5.643  17.364  0.6815  0.8515 -0.6884
   6523SM  H12A 8347   6.234   5.575  17.414 -2.3074 -1.3002  0.7096
   6523SM  H12B 8348   6.232   5.701  17.300  0.6805  1.9803  0.3021
   6523SM   C11 8349   6.079   5.551  17.280  0.2990 -0.7560  0.1655
   6523SM  H11A 8350   6.137   5.519  17.191 -0.1786  0.5829 -0.6539
   6523SM  H11B 8351   6.000   5.614  17.235  2.2120  1.2648 -0.5520
   6523SM     P 8352   6.135   5.335  17.404 -0.2754 -0.1322 -0.2092
   6523SM   O13 8353   6.249   5.401  17.474 -0.6150  0.2190  0.3456
   6523SM   O14 8354   6.068   5.229  17.481  0.2559  0.5364  0.2198
   6523SM   O11 8355   6.187   5.295  17.261 -0.2465  0.5926  0.7166
   6523SM   O12 8356   6.034   5.436  17.350  0.1397  0.4061 -0.2223
   6523SM   C1S 8357   6.089   5.230  17.182  0.0245 -0.6655  1.0847
   6523SM   H1S 8358   6.001   5.297  17.170  0.1905 -0.4987  0.7901
   6523SM   H1T 8359   6.058   5.129  17.217  0.6154 -2.1259 -2.2140
   6523SM    NF 8360   6.018   5.132  16.968 -0.1138  0.6285 -0.2842
   6523SM   HNF 8361   6.025   5.034  16.954 -0.2241  0.4628  0.7260
   6523SM   C2S 8362   6.131   5.201  17.036 -0.5742 -0.7964 -0.4257
   6523SM   H2S 8363   6.148   5.300  16.988 -0.4013 -0.5939  0.0485
   6523SM   C3S 8364   6.264   5.121  17.031  0.2645 -0.4206  0.8057
   6523SM   H3S 8365   6.242   5.029  17.089 -2.3970  0.3071  1.0791
   6523SM    O3 8366   6.377   5.184  17.091 -0.2975  0.0495 -0.2589
   6523SM   HO3 8367   6.328   5.254  17.134 -0.6662  0.6171 -1.5430
   6523SM   C4S 8368   6.301   5.075  16.888 -0.4674  0.1009  0.1674
   6523SM   H4S 8369   6.356   5.157  16.840  1.6756  0.1027  2.4191
   6523SM   C5S 8370   6.302   4.948  16.834 -0.3262  0.3511  0.5114
   6523SM   H5S 8371   6.295   4.858  16.897 -1.1829  0.5889  0.7749
   6523SM   C6S 8372   6.345   4.921  16.690 -0.5455 -0.3741 -0.1796
   6523SM   H6S 8373   6.390   5.012  16.643  2.1060 -1.4268  0.1385
   6523SM   H6T 8374   6.249   4.896  16.640  1.0013 -0.4154 -3.3666
   6523SM   C7S 8375   6.445   4.812  16.670 -0.9410 -0.0223  0.9089
   6523SM   H7S 8376   6.391   4.720  16.701 -1.1126  0.4256  1.9830
   6523SM   H7T 8377   6.532   4.823  16.738  0.0103  2.1914 -0.5424
   6523SM   C8S 8378   6.513   4.796  16.531 -0.3418  0.6888  0.5704
   6523SM   H8S 8379   6.563   4.888  16.492 -1.8640 -0.0133 -3.5565
   6523SM   H8T 8380   6.428   4.781  16.461  0.5628  1.0786 -0.6470
   6523SM   C9S 8381   6.608   4.671  16.519  0.0377 -0.5351 -0.1904
   6523SM   H9S 8382   6.554   4.579  16.549 -0.2553 -0.7805 -1.4205
   6523SM   H9T 8383   6.696   4.687  16.585 -0.0583 -1.7932  0.2643
   6523SM  C10S 8384   6.661   4.671  16.371  0.5004 -0.5152 -0.2380
   6523SM  H10S 8385   6.739   4.593  16.376  0.9548 -0.0782 -0.4368
   6523SM  H10T 8386   6.703   4.771  16.349  0.0997 -1.0312 -3.9966
   6523SM  C11S 8387   6.557   4.627  16.264 -0.6561  1.0208 -0.1560
   6523SM  H11S 8388   6.466   4.691  16.271 -1.1427  0.2769  0.5074
   6523SM  H11T 8389   6.525   4.526  16.298  0.4469  1.3023  1.9215
   6523SM  C12S 8390   6.613   4.634  16.119  0.3899 -0.1614 -0.0029
   6523SM  H12S 8391   6.694   4.558  16.118  1.4204  0.9075  0.0419
   6523SM  H12T 8392   6.641   4.741  16.109  0.1707  0.2112  2.5529
   6523SM  C13S 8393   6.506   4.593  16.018  0.0290  0.2656 -0.1966
   6523SM  H13S 8394   6.428   4.673  16.017 -0.2897 -0.0457 -0.3063
   6523SM  H13T 8395   6.450   4.502  16.046 -0.9004  1.3142  1.4975
   6523SM  C14S 8396   6.550   4.563  15.872 -0.7671 -0.1213  0.3287
   6523SM  H14S 8397   6.482   4.501  15.810 -0.4996 -1.2915  1.1741
   6523SM  H14T 8398   6.640   4.497  15.872 -1.9328 -1.7573  0.4935
   6523SM  C15S 8399   6.588   4.694  15.801 -0.2130  0.4634  0.0973
   6523SM  H15S 8400   6.675   4.733  15.856 -0.5547  0.2695  0.7859
   6523SM  H15T 8401   6.503   4.765  15.812 -0.6449 -0.0416  0.0616
   6523SM  C16S 8402   6.613   4.681  15.652  0.2180 -0.2779 -0.0492
   6523SM  H16S 8403   6.534   4.619  15.604  0.0846 -1.0555  1.1315
   6523SM  H16T 8404   6.706   4.625  15.629  0.3152 -0.2985  0.3945
   6523SM  C17S 8405   6.620   4.815  15.571 -0.3472  0.2238 -1.0539
   6523SM  H17S 8406   6.571   4.887  15.640  1.5498  1.1170 -0.5527
   6523SM  H17T 8407   6.570   4.799  15.473  1.2200 -0.8651 -1.7206
   6523SM  C18S 8408   6.762   4.871  15.567  1.0137  0.2131 -0.0395
   6523SM  H18S 8409   6.819   4.804  15.500  0.8351  0.6036 -0.5916
   6523SM  H18T 8410   6.811   4.873  15.666  0.4598 -2.2620  0.3494
   6523SM  H18U 8411   6.767   4.977  15.535  0.2684 -0.0068 -0.9483
   6523SM   C1F 8412   5.903   5.179  16.914 -0.4283 -1.0887  0.2357
   6523SM    OF 8413   5.879   5.301  16.915  0.2618 -0.1331  0.1109
   6523SM   C2F 8414   5.817   5.091  16.835  0.0091  0.3147  0.0825
   6523SM   H2F 8415   5.825   4.987  16.872  1.2912  0.8725  1.4835
   6523SM   H2G 8416   5.861   5.094  16.733  1.3727  0.4065  0.6573
   6523SM   C3F 8417   5.668   5.131  16.845 -0.6549 -0.6035 -0.2581
   6523SM   H3F 8418   5.645   5.240  16.840 -0.1584 -0.5480 -2.4598
   6523SM   H3G 8419   5.634   5.106  16.948  3.5398 -1.0213  1.2299
   6523SM   C4F 8420   5.593   5.044  16.734 -0.3043 -0.1397 -0.6202
   6523SM   H4F 8421   5.638   4.943  16.729  0.4249  0.1852 -0.6639
   6523SM   H4G 8422   5.617   5.082  16.632 -1.9373  0.7116 -0.7369
   6523SM   C5F 8423   5.440   5.051  16.751 -0.4871  0.3673  0.4165
   6523SM   H5F 8424   5.411   5.158  16.752 -0.0151  0.5062 -0.1787
   6523SM   H5G 8425   5.411   5.001  16.845  2.0737 -0.6603  0.7403
   6523SM   C6F 8426   5.357   4.978  16.635  0.1733  0.9269  0.2903
   6523SM   H6F 8427   5.375   5.041  16.546  0.0428 -0.2351 -0.5837
   6523SM   H6G 8428   5.250   4.981  16.665  0.0295 -0.2228 -0.0534
   6523SM   C7F 8429   5.404   4.841  16.599 -0.1101 -0.0105 -0.7018
   6523SM   H7F 8430   5.401   4.775  16.689  0.7125 -0.2117 -0.8192
   6523SM   H7G 8431   5.505   4.843  16.554 -0.2025  1.1129 -0.8782
   6523SM   C8F 8432   5.319   4.770  16.495  0.1810  0.1908 -0.3839
   6523SM   H8F 8433   5.301   4.846  16.416 -2.3362 -0.5228 -0.5838
   6523SM   H8G 8434   5.219   4.741  16.535  0.4998  0.3833  0.5771
   6523SM   C9F 8435   5.375   4.633  16.449  0.8830  0.1844 -0.0555
   6523SM   H9F 8436   5.388   4.579  16.545  0.1859 -0.0314 -0.0800
   6523SM   H9G 8437   5.469   4.640  16.390  1.5225  1.6281  1.0876
   6523SM  C10F 8438   5.268   4.549  16.370 -0.1815 -0.3280 -0.0864
   6523SM  H10F 8439   5.167   4.528  16.412  0.3929 -2.1741  0.4683
   6523SM  H10G 8440   5.329   4.457  16.360 -0.2507 -0.4862  0.8473
   6523SM  C11F 8441   5.243   4.611  16.225  0.1578  0.3917 -0.2219
   6523SM  H11F 8442   5.344   4.625  16.182 -0.4230 -1.1949 -2.2613
   6523SM  H11G 8443   5.189   4.708  16.237 -5.0153 -1.9614 -1.6248
   6523SM  C12F 8444   5.164   4.517  16.130  0.0286  0.0548  1.0152
   6523SM  H12F 8445   5.059   4.494  16.162 -0.4904 -0.9921 -1.2388
   6523SM  H12G 8446   5.213   4.417  16.132  1.5891  0.7741  0.0153
   6523SM  C13F 8447   5.153   4.583  15.991  0.2104  0.3141 -0.3934
   6523SM  H13F 8448   5.102   4.515  15.919 -0.4664  0.1874  0.2034
   6523SM  H13G 8449   5.255   4.610  15.956  1.7531  0.2250  3.5481
   6523SM  C14F 8450   5.069   4.716  15.991  0.2600 -0.5125  0.0529
   6523SM  H14F 8451   5.140   4.792  16.030 -0.3947 -0.9742  2.3208
   6523SM  H14G 8452   4.983   4.709  16.061  0.0243  0.5640 -0.1149
   6523SM  C15F 8453   5.037   4.758  15.849  0.2829  0.0014  0.0379
   6523SM  H15F 8454   4.986   4.856  15.836 -0.2728 -0.4012 -0.9172
   6523SM  H15G 8455   4.959   4.691  15.807 -1.9531  0.2646  3.3881
   6523SM  C16F 8456   5.155   4.763  15.750 -0.2750  0.2772 -0.0671
   6523SM  H16F 8457   5.202   4.662  15.751 -1.6067 -0.3702  1.0659
   6523SM  H16G 8458   5.222   4.835  15.801  1.2025 -0.0977 -1.3937
   6523SM  C17F 8459   5.102   4.791  15.615  0.1078  0.1891  0.7901
   6523SM  H17F 8460   5.028   4.872  15.598  0.1377 -0.3571 -2.9235
   6523SM  H17G 8461   5.053   4.700  15.573  0.2256  0.3614  0.2654
   6523SM  C18F 8462   5.219   4.812  15.509 -0.0567  0.4015 -0.0344
   6523SM  H18F 8463   5.309   4.756  15.543 -1.0180 -1.7674 -0.8580
   6523SM  H18G 8464   5.253   4.916  15.526  0.3690 -0.0290  2.0243
   6523SM  C19F 8465   5.204   4.772  15.367  0.5929 -0.2928 -0.0404
   6523SM  H19F 8466   5.212   4.661  15.359 -1.7300 -0.4710 -0.7070
   6523SM  H19G 8467   5.291   4.816  15.315  0.9987 -0.9289  0.0917
   6523SM  C20F 8468   5.072   4.805  15.297 -0.0780 -0.1482 -0.1503
   6523SM  H20F 8469   5.047   4.909  15.328 -0.6752 -0.6572  1.1856
   6523SM  H20G 8470   4.992   4.731  15.321  0.1404 -0.6747 -0.9899
   6523SM  C21F 8471   5.091   4.801  15.145 -0.1264 -0.1670 -0.7052
   6523SM  H21F 8472   5.172   4.872  15.120 -1.2786  2.0767  1.4075
   6523SM  H21G 8473   5.009   4.852  15.088  1.6595  1.0533 -2.2994
   6523SM  C22F 8474   5.106   4.662  15.084 -0.6704 -0.2294  0.0800
   6523SM  H22F 8475   5.142   4.587  15.157 -0.5085 -0.8130 -0.5895
   6523SM  H22G 8476   5.185   4.669  15.006 -1.1462  2.3885 -0.2615
   6523SM  C23F 8477   4.980   4.620  15.012 -0.0583  0.1791  0.6897
   6523SM  H23F 8478   5.000   4.526  14.956 -0.7287  0.3754  0.1073
   6523SM  H23G 8479   4.957   4.700  14.938 -1.5496 -1.1202 -0.3218
   6523SM  H23H 8480   4.891   4.597  15.074 -0.9136  0.7097 -0.3200
   6623SM     N 8481   4.310   1.208  17.440  0.1523 -0.0851  0.8219
   6623SM   C15 8482   4.301   1.077  17.373  0.1412  0.0471 -0.0239
   6623SM  H15A 8483   4.253   1.086  17.277  0.9578  1.7670 -0.2955
   6623SM  H15B 8484   4.254   0.996  17.427  0.2643 -0.7139 -1.0197
   6623SM  H15C 8485   4.402   1.043  17.356  0.3323  0.0187  1.0573
   6623SM   C14 8486   4.392   1.194  17.562 -0.6783 -0.0007  0.0923
   6623SM  H14A 8487   4.354   1.123  17.634  0.0272  0.8701  1.3732
   6623SM  H14B 8488   4.393   1.287  17.619 -0.9738 -0.2107  0.4482
   6623SM  H14C 8489   4.493   1.163  17.541  0.2097  1.8588  1.2851
   6623SM   C13 8490   4.401   1.304  17.361  0.1903  0.1867 -0.0997
   6623SM  H13A 8491   4.503   1.271  17.367  0.5853  1.3597 -0.0276
   6623SM  H13B 8492   4.394   1.409  17.386  0.9186 -0.0493  1.2123
   6623SM  H13C 8493   4.379   1.296  17.256 -0.8403  3.0420 -0.1869
   6623SM   C12 8494   4.168   1.271  17.465 -0.1506  0.3201 -0.2732
   6623SM  H12A 8495   4.115   1.199  17.526  1.4384 -0.2360  0.5112
   6623SM  H12B 8496   4.119   1.269  17.369 -1.2346  1.6292  0.2366
   6623SM   C11 8497   4.165   1.414  17.510 -0.3107 -0.8901 -0.1456
   6623SM  H11A 8498   4.239   1.429  17.591  1.4480 -1.8307 -1.5059
   6623SM  H11B 8499   4.068   1.449  17.550 -0.7004 -2.3174  0.2092
   6623SM     P 8500   4.171   1.654  17.403 -0.1092 -0.0313  0.3337
   6623SM   O13 8501   4.028   1.681  17.431 -0.1629  0.3341  0.4005
   6623SM   O14 8502   4.266   1.715  17.495 -0.7266  0.0255 -0.3124
   6623SM   O11 8503   4.208   1.700  17.256  0.0261 -0.4771 -0.5930
   6623SM   O12 8504   4.202   1.498  17.404 -0.2413 -0.0398  0.3273
   6623SM   C1S 8505   4.235   1.602  17.159 -0.0130 -0.2429  0.1279
   6623SM   H1S 8506   4.148   1.538  17.133 -0.6249 -0.0950  1.7066
   6623SM   H1T 8507   4.313   1.535  17.200  1.3859  1.6284  0.6919
   6623SM    NF 8508   4.283   1.549  16.929 -0.3422 -0.1719 -0.1623
   6623SM   HNF 8509   4.357   1.482  16.938  2.2272  2.7462  2.9259
   6623SM   C2S 8510   4.284   1.658  17.022 -0.3671  0.2413 -0.4870
   6623SM   H2S 8511   4.217   1.741  16.991  1.7214  2.6226  0.9855
   6623SM   C3S 8512   4.420   1.727  17.034  0.2366 -0.0251  0.1237
   6623SM   H3S 8513   4.502   1.652  17.037 -0.6863 -1.0452  0.7329
   6623SM    O3 8514   4.442   1.804  17.150 -0.0844 -0.3786 -0.2652
   6623SM   HO3 8515   4.364   1.785  17.203 -0.4219 -1.6915 -1.1789
   6623SM   C4S 8516   4.444   1.798  16.905  0.0099 -1.0025 -0.4907
   6623SM   H4S 8517   4.510   1.742  16.838  2.5950 -0.2918  1.2858
   6623SM   C5S 8518   4.407   1.922  16.867  0.1776  0.2127  0.5144
   6623SM   H5S 8519   4.342   1.990  16.924 -1.1575 -0.0393 -0.6807
   6623SM   C6S 8520   4.445   1.965  16.729 -0.8364 -0.5063 -0.6072
   6623SM   H6S 8521   4.531   2.034  16.743 -0.2810 -1.0999 -1.0292
   6623SM   H6T 8522   4.359   2.017  16.682 -0.8479  0.6416  0.6324
   6623SM   C7S 8523   4.488   1.863  16.629  0.2363 -0.1020 -0.7724
   6623SM   H7S 8524   4.414   1.781  16.615 -0.2916  0.3946 -0.9385
   6623SM   H7T 8525   4.577   1.801  16.651  0.3252  0.3466  0.1428
   6623SM   C8S 8526   4.526   1.909  16.488  0.3993 -0.4866  0.2862
   6623SM   H8S 8527   4.593   1.998  16.492 -0.0733 -0.0259 -1.1287
   6623SM   H8T 8528   4.437   1.948  16.435  1.2705 -1.5781 -2.1238
   6623SM   C9S 8529   4.584   1.805  16.393 -0.1525  0.6908 -0.0989
   6623SM   H9S 8530   4.545   1.704  16.418 -2.0215  1.1700 -0.9019
   6623SM   H9T 8531   4.690   1.802  16.424 -0.9317  0.4963  2.8520
   6623SM  C10S 8532   4.562   1.834  16.244 -0.7142 -0.4332  0.3189
   6623SM  H10S 8533   4.622   1.924  16.217  1.2841 -1.1874  2.0455
   6623SM  H10T 8534   4.460   1.866  16.212 -0.0311  1.6936  0.1095
   6623SM  C11S 8535   4.618   1.740  16.135 -0.9285 -0.0684  0.7331
   6623SM  H11S 8536   4.580   1.636  16.145 -0.9324 -0.1167  0.2542
   6623SM  H11T 8537   4.723   1.737  16.170 -0.9133 -0.4767  0.6505
   6623SM  C12S 8538   4.611   1.806  15.996  0.2732  0.5323 -0.6469
   6623SM  H12S 8539   4.629   1.916  15.997 -0.1203  0.5985 -0.0059
   6623SM  H12T 8540   4.505   1.794  15.965  0.9217 -0.8722 -2.4539
   6623SM  C13S 8541   4.700   1.739  15.895  0.2021 -0.2909  0.3478
   6623SM  H13S 8542   4.699   1.630  15.914 -0.9141 -0.6471 -1.4885
   6623SM  H13T 8543   4.804   1.776  15.889  0.2476 -0.6577 -1.8074
   6623SM  C14S 8544   4.672   1.747  15.747  0.3302 -0.9329 -0.2297
   6623SM  H14S 8545   4.687   1.852  15.714  0.5153 -1.4774 -1.9600
   6623SM  H14T 8546   4.565   1.721  15.731  0.2399 -0.5212 -0.2909
   6623SM  C15S 8547   4.765   1.654  15.668  0.4542 -0.2236  0.7418
   6623SM  H15S 8548   4.779   1.560  15.725  0.5759 -1.2900 -0.9744
   6623SM  H15T 8549   4.868   1.695  15.656  0.3766 -0.3820 -0.5834
   6623SM  C16S 8550   4.720   1.615  15.523  0.8923 -0.0333  0.7346
   6623SM  H16S 8551   4.679   1.712  15.486 -2.1820 -1.4164  0.2375
   6623SM  H16T 8552   4.646   1.534  15.533 -1.4713  1.7587 -1.0232
   6623SM  C17S 8553   4.837   1.563  15.432  0.6473 -0.2535 -0.0350
   6623SM  H17S 8554   4.911   1.643  15.415  1.9105 -1.0877  1.2345
   6623SM  H17T 8555   4.791   1.545  15.332  3.3714  0.9292 -1.6060
   6623SM  C18S 8556   4.898   1.432  15.479 -0.9124 -0.7750 -0.1443
   6623SM  H18S 8557   4.976   1.466  15.551 -0.8072 -0.3461 -0.4573
   6623SM  H18T 8558   4.931   1.364  15.397 -1.6046 -0.4674 -0.6807
   6623SM  H18U 8559   4.826   1.365  15.532  0.0439 -2.0982 -0.4429
   6623SM   C1F 8560   4.182   1.520  16.850 -0.0611 -0.0222  0.3600
   6623SM    OF 8561   4.080   1.586  16.860  0.3452  0.8812 -0.0089
   6623SM   C2F 8562   4.204   1.402  16.764  0.4399 -0.5588  0.3732
   6623SM   H2F 8563   4.136   1.326  16.809  1.0353 -2.8459 -2.2902
   6623SM   H2G 8564   4.305   1.355  16.756  0.5808  0.0810 -2.6432
   6623SM   C3F 8565   4.142   1.418  16.618 -0.0752 -0.1244 -0.4667
   6623SM   H3F 8566   4.209   1.479  16.554 -0.1778 -1.1847 -1.6374
   6623SM   H3G 8567   4.042   1.465  16.624  0.0722  0.0077  3.0186
   6623SM   C4F 8568   4.122   1.286  16.540  0.0664  0.3498 -0.2539
   6623SM   H4F 8569   4.050   1.219  16.592  0.1768  0.3008 -0.1625
   6623SM   H4G 8570   4.225   1.243  16.536  0.0620 -0.2270  3.2704
   6623SM   C5F 8571   4.069   1.310  16.398 -0.3514  0.6718 -0.4385
   6623SM   H5F 8572   4.088   1.211  16.351 -0.1258  0.4933  0.0170
   6623SM   H5G 8573   4.119   1.389  16.339  0.7484 -0.3731 -0.9596
   6623SM   C6F 8574   3.917   1.325  16.396  0.5099  0.3896  0.3549
   6623SM   H6F 8575   3.887   1.419  16.446  2.0814  1.1733 -0.1118
   6623SM   H6G 8576   3.883   1.233  16.448  1.7843 -1.8046 -2.4137
   6623SM   C7F 8577   3.872   1.319  16.248  0.3818  0.2536 -0.0184
   6623SM   H7F 8578   3.914   1.228  16.202 -2.1324 -1.2483  0.4903
   6623SM   H7G 8579   3.921   1.402  16.192 -0.9065  1.2758  0.3038
   6623SM   C8F 8580   3.719   1.320  16.236 -0.4621  0.4842 -0.5532
   6623SM   H8F 8581   3.669   1.412  16.273  1.7375  1.2876  0.6575
   6623SM   H8G 8582   3.683   1.250  16.314 -0.1263  2.0666  1.0952
   6623SM   C9F 8583   3.673   1.280  16.096 -0.0444 -0.1834  0.6962
   6623SM   H9F 8584   3.717   1.345  16.017  1.7761  1.0076  2.5979
   6623SM   H9G 8585   3.565   1.307  16.089 -0.3338 -1.4171  0.0799
   6623SM  C10F 8586   3.685   1.135  16.054  0.4983  0.2504 -0.3274
   6623SM  H10F 8587   3.637   1.078  16.137 -0.0447  0.8896 -0.1940
   6623SM  H10G 8588   3.791   1.103  16.047 -0.0398 -1.4322 -1.2004
   6623SM  C11F 8589   3.619   1.099  15.920  0.4557 -0.8003  0.1081
   6623SM  H11F 8590   3.651   1.174  15.845 -1.2989 -0.0520  0.0517
   6623SM  H11G 8591   3.511   1.114  15.942  0.6533  1.6058 -0.3197
   6623SM  C12F 8592   3.651   0.957  15.877 -0.1537  0.1537  0.4564
   6623SM  H12F 8593   3.609   0.879  15.943 -0.2565 -0.0095  0.1988
   6623SM  H12G 8594   3.759   0.931  15.879 -0.5250 -1.4980  0.4954
   6623SM  C13F 8595   3.623   0.947  15.723 -0.4120 -0.1320 -0.2283
   6623SM  H13F 8596   3.686   1.030  15.683 -1.3932 -0.1221 -1.8281
   6623SM  H13G 8597   3.516   0.974  15.717 -0.0956  1.0885 -0.8931
   6623SM  C14F 8598   3.646   0.805  15.673  0.1464  1.2323 -0.5675
   6623SM  H14F 8599   3.560   0.741  15.699  0.8478  0.6895  0.4629
   6623SM  H14G 8600   3.735   0.766  15.727 -0.8057 -1.1059 -0.5923
   6623SM  C15F 8601   3.678   0.793  15.529  0.0244 -0.0444  0.2096
   6623SM  H15F 8602   3.689   0.686  15.502  1.7866 -0.1362  1.1837
   6623SM  H15G 8603   3.772   0.841  15.493  0.4250  0.4469  1.8283
   6623SM  C16F 8604   3.561   0.841  15.438 -0.0760  0.0518  0.1298
   6623SM  H16F 8605   3.610   0.854  15.340 -0.9199 -1.0189 -0.4601
   6623SM  H16G 8606   3.532   0.943  15.470  0.4009 -0.6110  2.9857
   6623SM  C17F 8607   3.443   0.746  15.422  0.2178  0.6359 -0.5312
   6623SM  H17F 8608   3.399   0.741  15.524  1.6757  1.3213  0.1712
   6623SM  H17G 8609   3.479   0.651  15.378  1.9587  1.5690 -1.2216
   6623SM  C18F 8610   3.341   0.807  15.336  0.4775 -0.1339  0.7944
   6623SM  H18F 8611   3.385   0.851  15.244 -1.3950  1.8176  0.7252
   6623SM  H18G 8612   3.289   0.883  15.400  0.5134 -0.8911  1.7529
   6623SM  C19F 8613   3.237   0.704  15.298  0.0023  0.3633 -0.1434
   6623SM  H19F 8614   3.297   0.618  15.259  0.7743  1.2457 -0.9379
   6623SM  H19G 8615   3.189   0.750  15.210  1.0260  0.0697 -0.8743
   6623SM  C20F 8616   3.143   0.670  15.417 -0.6964 -0.5458  0.4177
   6623SM  H20F 8617   3.079   0.757  15.442 -0.1764  0.1926 -0.7112
   6623SM  H20G 8618   3.205   0.645  15.505  0.2984  1.0107  0.1979
   6623SM  C21F 8619   3.047   0.552  15.393 -0.7618  0.2286  0.3574
   6623SM  H21F 8620   2.995   0.571  15.297  2.4827 -0.0969 -1.6383
   6623SM  H21G 8621   2.979   0.540  15.480 -0.4071 -1.3116  0.4441
   6623SM  C22F 8622   3.108   0.415  15.372 -0.2449  0.0656  0.1591
   6623SM  H22F 8623   3.185   0.421  15.452  0.3371  1.3541 -0.4877
   6623SM  H22G 8624   3.157   0.405  15.273  1.1345 -0.4920  0.8675
   6623SM  C23F 8625   3.010   0.300  15.405 -0.9056  0.0793 -0.0430
   6623SM  H23F 8626   2.925   0.333  15.468 -0.8529 -2.4446  1.4910
   6623SM  H23G 8627   3.060   0.217  15.458  0.0129  1.0289  0.6242
   6623SM  H23H 8628   2.970   0.248  15.316 -0.1108 -0.7725  0.0792
   6723SM     N 8629   3.142   5.070  17.603  0.2505  0.3811  0.4350
   6723SM   C15 8630   3.198   4.990  17.720  0.8405 -0.7574  0.1578
   6723SM  H15A 8631   3.201   4.885  17.697 -0.4280 -0.7828  0.0368
   6723SM  H15B 8632   3.143   5.012  17.810 -1.2226  0.6630 -1.3508
   6723SM  H15C 8633   3.301   5.017  17.736  0.6600  0.3711 -0.5024
   6723SM   C14 8634   3.007   5.010  17.562 -0.6163  0.7128  0.1907
   6723SM  H14A 8635   3.009   4.907  17.532 -0.9025  1.3022 -1.9879
   6723SM  H14B 8636   2.942   5.055  17.488 -0.2764  0.2541 -0.3940
   6723SM  H14C 8637   2.941   5.014  17.647 -0.8747  0.6087 -0.0037
   6723SM   C13 8638   3.121   5.209  17.654 -0.1962  0.2782 -0.1628
   6723SM  H13A 8639   3.063   5.271  17.589 -2.6454 -1.4130  0.2827
   6723SM  H13B 8640   3.217   5.253  17.680 -0.4990  1.6009 -1.2101
   6723SM  H13C 8641   3.059   5.202  17.742 -0.5497 -0.2765 -0.4510
   6723SM   C12 8642   3.241   5.052  17.486  0.0891  0.3551  1.2477
   6723SM  H12A 8643   3.205   5.121  17.412  1.7713  1.1639  1.1308
   6723SM  H12B 8644   3.244   4.948  17.457  1.1304  0.5545  0.5764
   6723SM   C11 8645   3.383   5.105  17.511 -1.0540  0.2777 -0.0813
   6723SM  H11A 8646   3.459   5.062  17.443 -1.1532 -1.2175  0.7220
   6723SM  H11B 8647   3.415   5.063  17.608 -1.7663  0.5787  0.2918
   6723SM     P 8648   3.372   5.345  17.397  0.0386 -0.0168 -0.2821
   6723SM   O13 8649   3.288   5.459  17.435  0.6047  0.6220 -0.1201
   6723SM   O14 8650   3.508   5.382  17.338  0.0167  0.6147  0.0476
   6723SM   O11 8651   3.305   5.264  17.282  0.4584 -0.1415  0.2238
   6723SM   O12 8652   3.389   5.245  17.520 -0.9429  0.0157  0.1355
   6723SM   C1S 8653   3.211   5.318  17.186  0.5623 -0.5076  0.5715
   6723SM   H1S 8654   3.202   5.428  17.186  0.5852 -0.4752  2.2688
   6723SM   H1T 8655   3.116   5.273  17.220  0.2552 -0.3298 -0.0398
   6723SM    NF 8656   3.120   5.307  16.961 -0.5692  0.4074  0.1475
   6723SM   HNF 8657   3.043   5.245  16.952  0.0793 -0.7172  1.7873
   6723SM   C2S 8658   3.237   5.268  17.042 -0.1241 -0.1540 -0.0661
   6723SM   H2S 8659   3.332   5.318  17.015 -0.0545 -0.1990  0.0969
   6723SM   C3S 8660   3.270   5.116  17.032  0.5734 -0.7180 -1.2212
   6723SM   H3S 8661   3.179   5.058  17.061  1.4742 -2.2612 -1.3825
   6723SM    O3 8662   3.383   5.069  17.106  0.0035  0.6260 -0.8257
   6723SM   HO3 8663   3.387   5.128  17.182 -1.9909  0.8932 -0.8740
   6723SM   C4S 8664   3.297   5.086  16.892 -0.3277  0.1149  0.2255
   6723SM   H4S 8665   3.397   5.119  16.859 -1.3847  2.2450 -1.0821
   6723SM   C5S 8666   3.221   5.016  16.809  0.2589  0.6037  0.6548
   6723SM   H5S 8667   3.128   4.969  16.843  0.7900 -0.3633  0.8019
   6723SM   C6S 8668   3.255   4.981  16.671  0.0369  0.0210  0.5272
   6723SM   H6S 8669   3.246   4.872  16.653 -0.8028 -0.1021  1.5880
   6723SM   H6T 8670   3.364   4.997  16.656 -0.4001  1.2550 -2.0056
   6723SM   C7S 8671   3.179   5.065  16.559 -0.4129  0.3954 -0.3479
   6723SM   H7S 8672   3.186   5.174  16.579  2.4540  0.2379 -0.0009
   6723SM   H7T 8673   3.071   5.040  16.551 -0.2608  0.2402 -2.5605
   6723SM   C8S 8674   3.234   5.039  16.416 -0.2564  0.6722 -0.1229
   6723SM   H8S 8675   3.344   5.021  16.410 -0.4988 -0.7051 -0.7612
   6723SM   H8T 8676   3.213   5.135  16.363 -0.0604  0.9437  0.2914
   6723SM   C9S 8677   3.177   4.915  16.341  0.0267 -0.0716 -0.4772
   6723SM   H9S 8678   3.066   4.922  16.330 -0.0935  1.4766  1.3361
   6723SM   H9T 8679   3.201   4.829  16.408 -0.3245 -0.8669 -1.3447
   6723SM  C10S 8680   3.245   4.889  16.206 -0.2640 -0.0374  0.7167
   6723SM  H10S 8681   3.222   4.786  16.171 -1.1810  0.4491 -0.1537
   6723SM  H10T 8682   3.356   4.892  16.212 -0.1403 -0.1535 -0.9792
   6723SM  C11S 8683   3.196   4.987  16.100 -0.4231 -0.7683 -0.5968
   6723SM  H11S 8684   3.286   5.043  16.066  0.4391 -0.5551  1.8281
   6723SM  H11T 8685   3.137   5.061  16.158  1.1172 -0.0438  0.1190
   6723SM  C12S 8686   3.110   4.936  15.986  0.1518  0.0869  0.7812
   6723SM  H12S 8687   3.075   5.012  15.913  0.3250 -1.4659 -1.0025
   6723SM  H12T 8688   3.023   4.887  16.035  0.1268 -1.0290 -0.3177
   6723SM  C13S 8689   3.180   4.842  15.890  0.1107 -0.2381  0.4465
   6723SM  H13S 8690   3.100   4.812  15.819 -0.6163 -0.2529  1.2573
   6723SM  H13T 8691   3.219   4.752  15.943  0.0627 -0.6845 -0.2691
   6723SM  C14S 8692   3.289   4.904  15.802  0.6027 -0.8824 -0.3611
   6723SM  H14S 8693   3.348   4.819  15.760  0.8086 -0.8955 -0.0522
   6723SM  H14T 8694   3.369   4.951  15.863  0.2891 -0.2760 -0.4185
   6723SM  C15S 8695   3.239   4.996  15.684  0.8105  0.1420  0.3569
   6723SM  H15S 8696   3.247   5.103  15.714  1.1770 -0.5247  2.8532
   6723SM  H15T 8697   3.130   4.978  15.668  1.0910 -0.9406 -0.4079
   6723SM  C16S 8698   3.306   4.971  15.552 -0.4213  0.6660 -0.2503
   6723SM  H16S 8699   3.300   4.869  15.510 -0.4701  1.4168 -2.2085
   6723SM  H16T 8700   3.414   4.994  15.558 -0.6807  2.6461 -1.8507
   6723SM  C17S 8701   3.247   5.053  15.442 -0.2708  0.5185 -0.4307
   6723SM  H17S 8702   3.279   5.159  15.454 -0.6855  0.5289  0.7211
   6723SM  H17T 8703   3.139   5.042  15.463 -0.0437  0.4225  0.8027
   6723SM  C18S 8704   3.289   5.009  15.301 -0.1726  0.2605  0.6456
   6723SM  H18S 8705   3.234   5.075  15.231 -1.3484  0.0345  1.3366
   6723SM  H18T 8706   3.267   4.901  15.285  3.1390 -0.5458  0.8671
   6723SM  H18U 8707   3.399   5.024  15.293  0.2622 -2.1934  1.2124
   6723SM   C1F 8708   3.114   5.433  16.915  0.4113 -0.0921 -0.0536
   6723SM    OF 8709   3.187   5.520  16.955  0.2154  0.5425 -0.3842
   6723SM   C2F 8710   2.998   5.463  16.818 -0.0215 -0.2421 -0.6587
   6723SM   H2F 8711   2.989   5.574  16.811 -0.2315 -0.2243 -0.1568
   6723SM   H2G 8712   2.902   5.429  16.861 -0.5254  1.5162 -0.2978
   6723SM   C3F 8713   3.025   5.396  16.678  0.7350 -0.3731 -0.5023
   6723SM   H3F 8714   3.079   5.299  16.692 -0.4369 -1.0516 -0.5574
   6723SM   H3G 8715   3.095   5.463  16.624  0.8147 -1.0094 -1.2151
   6723SM   C4F 8716   2.896   5.392  16.594  0.3233  0.8474 -0.0795
   6723SM   H4F 8717   2.829   5.481  16.594 -0.7352  0.0894  0.9813
   6723SM   H4G 8718   2.827   5.323  16.648 -0.5070  0.5879 -1.4232
   6723SM   C5F 8719   2.899   5.346  16.446  1.0412  0.0278  0.4195
   6723SM   H5F 8720   2.796   5.319  16.413  0.9130 -0.1596  0.9736
   6723SM   H5G 8721   2.969   5.260  16.435  2.2156  0.5664  2.9702
   6723SM   C6F 8722   2.940   5.446  16.346  0.2955 -0.7031 -0.3765
   6723SM   H6F 8723   3.044   5.481  16.363 -0.4083  0.6998  1.2849
   6723SM   H6G 8724   2.882   5.539  16.362  2.8011  1.2636 -1.8164
   6723SM   C7F 8725   2.922   5.391  16.206  0.9149 -0.0615 -0.0705
   6723SM   H7F 8726   2.816   5.359  16.201  0.0751  2.5717 -1.2704
   6723SM   H7G 8727   2.991   5.305  16.192 -0.2096 -0.6202 -2.7133
   6723SM   C8F 8728   2.931   5.494  16.093 -0.0964  0.4762 -0.0088
   6723SM   H8F 8729   3.023   5.555  16.103 -0.0894  0.6145 -0.8775
   6723SM   H8G 8730   2.843   5.561  16.094 -1.5116 -1.2824 -0.0569
   6723SM   C9F 8731   2.942   5.425  15.956  0.5709 -0.4024  0.5334
   6723SM   H9F 8732   2.851   5.366  15.933  1.1536 -1.2912  0.4594
   6723SM   H9G 8733   3.027   5.354  15.966  1.6751  0.7280 -0.5201
   6723SM  C10F 8734   2.972   5.523  15.842 -0.9999 -0.0827 -0.4414
   6723SM  H10F 8735   3.072   5.569  15.859  0.2399 -1.8950 -2.2743
   6723SM  H10G 8736   2.897   5.604  15.829 -1.3347 -0.3707 -0.3205
   6723SM  C11F 8737   2.984   5.468  15.703  0.1439 -0.0228  0.0264
   6723SM  H11F 8738   2.891   5.418  15.669 -0.1452  0.4134  0.1529
   6723SM  H11G 8739   3.052   5.380  15.698 -2.3963 -2.0387 -1.6697
   6723SM  C12F 8740   3.031   5.568  15.604  0.0681  0.2395 -0.3754
   6723SM  H12F 8741   3.140   5.586  15.611 -0.0104  0.2566  0.9173
   6723SM  H12G 8742   2.998   5.668  15.638  1.0315  0.7270 -0.8469
   6723SM  C13F 8743   2.987   5.558  15.455 -0.1683 -0.1397 -0.0682
   6723SM  H13F 8744   3.024   5.651  15.407 -1.2323  0.2710 -0.1182
   6723SM  H13G 8745   2.876   5.564  15.451 -0.1907  1.1855  1.4855
   6723SM  C14F 8746   3.042   5.425  15.388 -0.2339  0.5557 -0.3478
   6723SM  H14F 8747   2.993   5.340  15.439 -2.2415  1.3950 -0.7980
   6723SM  H14G 8748   3.152   5.422  15.407 -0.1596  0.7006 -0.7408
   6723SM  C15F 8749   3.007   5.424  15.242  0.4735  0.3011 -0.3265
   6723SM  H15F 8750   3.045   5.519  15.199  1.9143  1.1547  2.6038
   6723SM  H15G 8751   2.896   5.434  15.242  0.1637 -2.3317  0.1196
   6723SM  C16F 8752   3.055   5.301  15.163  0.5755 -0.0726 -0.1837
   6723SM  H16F 8753   3.031   5.207  15.216  1.8534 -0.5733 -0.4520
   6723SM  H16G 8754   3.165   5.311  15.153  0.4709 -0.1224 -1.6741
   6723SM  C17F 8755   2.999   5.301  15.012  0.3467  0.6931  0.4778
   6723SM  H17F 8756   2.979   5.398  14.963 -0.8060  0.6865  0.9027
   6723SM  H17G 8757   2.899   5.252  15.010  0.4804  0.4224 -1.4849
   6723SM  C18F 8758   3.067   5.204  14.915  0.3391 -0.1669 -0.2262
   6723SM  H18F 8759   2.999   5.190  14.827  0.3943 -1.0067 -0.1334
   6723SM  H18G 8760   3.066   5.112  14.976 -0.9550  0.9603  1.5832
   6723SM  C19F 8761   3.207   5.235  14.868 -0.8822 -0.6661 -0.0558
   6723SM  H19F 8762   3.265   5.287  14.947 -1.4963 -0.6401  0.3846
   6723SM  H19G 8763   3.207   5.303  14.780 -0.2563 -1.2657 -0.5310
   6723SM  C20F 8764   3.271   5.114  14.804  0.4839 -0.1931 -0.1047
   6723SM  H20F 8765   3.377   5.138  14.780  0.2094 -0.0495 -1.1948
   6723SM  H20G 8766   3.222   5.083  14.710 -1.0964 -0.4688  0.7781
   6723SM  C21F 8767   3.276   4.989  14.899 -0.2254  0.4525  0.9085
   6723SM  H21F 8768   3.174   4.945  14.899  0.4888 -1.3961  3.3041
   6723SM  H21G 8769   3.295   5.012  15.006  0.3218 -0.7574  1.0924
   6723SM  C22F 8770   3.365   4.885  14.836 -0.4091  0.5657 -0.0845
   6723SM  H22F 8771   3.378   4.908  14.728  1.1221  1.8207  0.3178
   6723SM  H22G 8772   3.328   4.784  14.860  0.3801  0.3353  0.1930
   6723SM  C23F 8773   3.498   4.902  14.912  0.1299  0.3645 -0.0035
   6723SM  H23F 8774   3.524   5.008  14.935 -2.2632  0.9100  0.4102
   6723SM  H23G 8775   3.580   4.862  14.849 -2.2941 -1.2998 -2.3283
   6723SM  H23H 8776   3.479   4.846  15.006 -0.4663  1.7839  0.7680
   6823SM     N 8777   3.689   0.494  17.554 -0.4337 -0.2527 -0.5598
   6823SM   C15 8778   3.563   0.561  17.517  0.2871  0.6608 -0.3934
   6823SM  H15A 8779   3.587   0.660  17.482  1.7662  0.2998 -0.4554
   6823SM  H15B 8780   3.504   0.587  17.604 -0.2163  0.9950 -0.8297
   6823SM  H15C 8781   3.513   0.496  17.446  3.0169 -1.0315 -0.9115
   6823SM   C14 8782   3.746   0.574  17.674 -0.0465 -0.7621 -0.7360
   6823SM  H14A 8783   3.837   0.542  17.723 -0.9097 -0.7031  1.0111
   6823SM  H14B 8784   3.676   0.583  17.757  1.6433 -0.3801  0.7105
   6823SM  H14C 8785   3.767   0.676  17.647  0.8645 -0.4861  0.8659
   6823SM   C13 8786   3.651   0.361  17.608 -0.1136 -0.6078  0.5414
   6823SM  H13A 8787   3.739   0.305  17.634  0.1601 -0.2842  0.3250
   6823SM  H13B 8788   3.588   0.308  17.537 -2.0279 -0.3209  1.9616
   6823SM  H13C 8789   3.590   0.379  17.695 -0.8568 -0.6535  0.0459
   6823SM   C12 8790   3.785   0.479  17.441  0.5081 -0.4807 -0.5384
   6823SM  H12A 8791   3.745   0.419  17.360 -1.2033  1.2440 -1.0605
   6823SM  H12B 8792   3.869   0.419  17.471 -0.1396 -1.2558 -0.2322
   6823SM   C11 8793   3.835   0.607  17.372  0.4397  0.0133 -0.1229
   6823SM  H11A 8794   3.748   0.675  17.361 -0.0998 -0.1792  2.3814
   6823SM  H11B 8795   3.872   0.577  17.271  2.2112  1.0351  0.1773
   6823SM     P 8796   3.957   0.821  17.459 -0.3568  0.1854  0.1694
   6823SM   O13 8797   3.892   0.860  17.586  0.1973  0.0740  0.2474
   6823SM   O14 8798   4.099   0.864  17.444  0.6193 -0.4363 -0.2769
   6823SM   O11 8799   3.868   0.882  17.346 -0.2938  0.3997 -0.4133
   6823SM   O12 8800   3.943   0.665  17.444  0.0271 -0.4495  0.5400
   6823SM   C1S 8801   3.916   0.935  17.228  0.0505  1.1334  0.3044
   6823SM   H1S 8802   4.010   0.888  17.195 -0.0770  0.8402  0.3587
   6823SM   H1T 8803   3.950   1.038  17.253  1.7917  0.4328  0.9472
   6823SM    NF 8804   3.877   0.996  16.988 -0.0226  0.2057 -0.4873
   6823SM   HNF 8805   3.856   1.090  16.964  1.5445  0.1843 -2.0578
   6823SM   C2S 8806   3.817   0.937  17.113 -0.7933  0.2674  0.1167
   6823SM   H2S 8807   3.784   0.834  17.088 -3.3335  1.2689 -0.9468
   6823SM   C3S 8808   3.685   1.007  17.158 -0.1497  0.3107 -0.3401
   6823SM   H3S 8809   3.717   1.112  17.177 -0.0586  0.6768 -2.2937
   6823SM    O3 8810   3.628   0.957  17.276  0.7149  0.2758 -0.1547
   6823SM   HO3 8811   3.698   0.905  17.316 -0.2165 -0.7643  0.1884
   6823SM   C4S 8812   3.589   1.003  17.039  0.6676 -0.0934 -0.2887
   6823SM   H4S 8813   3.556   0.899  17.026 -1.4805  0.4224  0.7295
   6823SM   C5S 8814   3.536   1.109  16.966  0.4907  0.3063 -0.4781
   6823SM   H5S 8815   3.567   1.213  16.984 -1.0849  0.7418 -0.1010
   6823SM   C6S 8816   3.439   1.075  16.852 -0.2818 -0.0777  0.8220
   6823SM   H6S 8817   3.338   1.110  16.883 -0.0749  0.5354  0.7982
   6823SM   H6T 8818   3.424   0.965  16.843 -1.0024  0.0232  0.6894
   6823SM   C7S 8819   3.474   1.119  16.711 -0.2064 -0.7128  0.1978
   6823SM   H7S 8820   3.574   1.075  16.689  1.1318  0.5372  3.1365
   6823SM   H7T 8821   3.492   1.228  16.718 -0.6097 -0.7103  1.4574
   6823SM   C8S 8822   3.365   1.073  16.615 -0.4417 -0.4312  0.6650
   6823SM   H8S 8823   3.267   1.112  16.651 -0.3955  0.5439 -0.2027
   6823SM   H8T 8824   3.362   0.962  16.612  1.8113 -0.5209 -0.8673
   6823SM   C9S 8825   3.404   1.119  16.473  0.2265  0.7604  0.1116
   6823SM   H9S 8826   3.508   1.090  16.447 -0.0457  0.5907 -0.8376
   6823SM   H9T 8827   3.393   1.230  16.474 -0.1258  0.7249  0.0848
   6823SM  C10S 8828   3.312   1.074  16.365  0.5698  0.0389 -0.6757
   6823SM  H10S 8829   3.341   1.123  16.270 -1.8524  0.3627 -1.2952
   6823SM  H10T 8830   3.209   1.113  16.380 -0.9773 -4.0105  0.4267
   6823SM  C11S 8831   3.304   0.924  16.345  0.3844  0.2998  0.0942
   6823SM  H11S 8832   3.280   0.869  16.439  0.2375 -1.7475 -1.0974
   6823SM  H11T 8833   3.404   0.878  16.331 -0.8033 -2.5250  0.3382
   6823SM  C12S 8834   3.206   0.894  16.228 -0.2926 -0.0522 -1.2109
   6823SM  H12S 8835   3.110   0.938  16.261  0.7532  1.8066 -0.4460
   6823SM  H12T 8836   3.183   0.789  16.203  0.8428 -0.8514  0.8283
   6823SM  C13S 8837   3.250   0.945  16.093  0.1901  0.6061 -0.2856
   6823SM  H13S 8838   3.361   0.938  16.088  0.3224  1.1609  1.1113
   6823SM  H13T 8839   3.217   1.052  16.089  0.1152  0.5649 -0.8601
   6823SM  C14S 8840   3.166   0.877  15.984 -0.0803  0.5156  0.6142
   6823SM  H14S 8841   3.056   0.889  16.001 -0.0645  1.0066  0.3918
   6823SM  H14T 8842   3.189   0.769  15.972  0.2925  0.5443  1.0563
   6823SM  C15S 8843   3.195   0.943  15.851 -0.0371 -0.1088  0.9475
   6823SM  H15S 8844   3.150   0.875  15.776  0.5320 -1.6261  1.9264
   6823SM  H15T 8845   3.303   0.931  15.827 -0.3634  0.6860 -1.0614
   6823SM  C16S 8846   3.144   1.090  15.826 -0.5806  0.9095 -0.2647
   6823SM  H16S 8847   3.189   1.165  15.895 -2.3474  1.7763  0.0085
   6823SM  H16T 8848   3.035   1.100  15.847 -1.2339  0.9631 -3.3050
   6823SM  C17S 8849   3.157   1.136  15.680  0.5284  0.3427 -0.5047
   6823SM  H17S 8850   3.126   1.242  15.664 -0.3168  0.0052 -1.1772
   6823SM  H17T 8851   3.086   1.077  15.618  2.7262 -0.2037 -2.6499
   6823SM  C18S 8852   3.295   1.118  15.621 -0.4820  0.6862  0.8348
   6823SM  H18S 8853   3.309   1.015  15.581 -0.7947 -0.4695  3.4406
   6823SM  H18T 8854   3.375   1.133  15.697  1.0681  0.2929 -0.6421
   6823SM  H18U 8855   3.312   1.188  15.537  2.6597 -2.1628 -1.1366
   6823SM   C1F 8856   3.971   0.931  16.913 -0.0308 -0.0797 -0.6003
   6823SM    OF 8857   4.011   0.821  16.952 -0.5202  0.1960  0.5457
   6823SM   C2F 8858   4.025   0.996  16.789  0.2349  0.6864  0.7161
   6823SM   H2F 8859   4.136   1.003  16.793  0.3101 -0.3693  0.6772
   6823SM   H2G 8860   3.996   1.103  16.784 -2.3078 -0.0110 -2.3158
   6823SM   C3F 8861   3.975   0.924  16.662 -0.3897 -0.1386 -0.0920
   6823SM   H3F 8862   3.993   0.816  16.682 -1.3865  0.0706  2.3668
   6823SM   H3G 8863   4.043   0.962  16.583 -1.7725  2.5947 -0.0756
   6823SM   C4F 8864   3.831   0.953  16.627  0.3497 -0.7618 -0.4195
   6823SM   H4F 8865   3.827   1.063  16.613 -1.0747 -0.9866 -2.1643
   6823SM   H4G 8866   3.773   0.920  16.717 -0.1917  0.2603 -0.3792
   6823SM   C5F 8867   3.775   0.892  16.503  0.0348 -0.2843 -0.3125
   6823SM   H5F 8868   3.667   0.914  16.493 -0.3529 -2.1040 -0.6150
   6823SM   H5G 8869   3.789   0.783  16.520 -0.0108 -0.1159  0.8964
   6823SM   C6F 8870   3.834   0.945  16.375 -1.3972  0.7148  0.9534
   6823SM   H6F 8871   3.900   1.030  16.404 -0.6547  0.1792  0.8511
   6823SM   H6G 8872   3.755   0.966  16.300 -0.2731 -0.0998 -0.4925
   6823SM   C7F 8873   3.940   0.841  16.308 -0.2392 -0.3119 -0.9841
   6823SM   H7F 8874   3.885   0.746  16.294  0.8017 -0.7726 -2.1379
   6823SM   H7G 8875   4.012   0.817  16.389 -2.4316 -0.3327  1.0604
   6823SM   C8F 8876   4.011   0.900  16.179 -0.4179  0.8990 -0.5508
   6823SM   H8F 8877   4.066   0.996  16.194  0.0147  0.5221  0.4062
   6823SM   H8G 8878   3.936   0.922  16.100 -1.0048 -0.3609 -0.3653
   6823SM   C9F 8879   4.111   0.795  16.123 -0.2013 -0.7040 -0.3226
   6823SM   H9F 8880   4.066   0.695  16.141 -0.5983 -0.5621 -0.5156
   6823SM   H9G 8881   4.208   0.809  16.176 -0.9187  0.1735  0.8084
   6823SM  C10F 8882   4.141   0.814  15.970  0.0511 -0.0092 -1.1661
   6823SM  H10F 8883   4.186   0.915  15.959 -0.7866  0.5274  0.0964
   6823SM  H10G 8884   4.037   0.808  15.931 -0.4747 -2.3686  0.4008
   6823SM  C11F 8885   4.214   0.707  15.905 -0.1816 -0.2165 -0.1883
   6823SM  H11F 8886   4.144   0.621  15.892 -1.7400  0.8013  1.1934
   6823SM  H11G 8887   4.293   0.677  15.977 -1.3609 -1.3737  0.6838
   6823SM  C12F 8888   4.267   0.739  15.765  0.3307  0.0368 -0.4309
   6823SM  H12F 8889   4.320   0.646  15.733 -0.8884 -1.1668  0.8627
   6823SM  H12G 8890   4.338   0.822  15.779 -1.6643  1.4264  2.3927
   6823SM  C13F 8891   4.168   0.776  15.652  0.2003 -0.3602 -0.5589
   6823SM  H13F 8892   4.153   0.884  15.670  0.9639 -0.3725  0.2296
   6823SM  H13G 8893   4.072   0.723  15.669  0.1510 -0.3671 -0.8418
   6823SM  C14F 8894   4.212   0.734  15.518 -0.2953  0.4065 -0.6067
   6823SM  H14F 8895   4.118   0.746  15.460 -1.6833 -0.2978  1.3789
   6823SM  H14G 8896   4.236   0.626  15.521 -1.4230  0.1514  0.1313
   6823SM  C15F 8897   4.325   0.822  15.466  0.2321 -0.7265 -0.0949
   6823SM  H15F 8898   4.416   0.823  15.530  0.8680  0.5815 -0.9717
   6823SM  H15G 8899   4.289   0.927  15.462 -2.3521 -1.5087  0.2335
   6823SM  C16F 8900   4.383   0.772  15.323 -0.1824 -0.5123 -0.2986
   6823SM  H16F 8901   4.367   0.663  15.324  0.0080 -0.5444  0.8163
   6823SM  H16G 8902   4.492   0.796  15.316  0.1161 -1.9294 -0.7259
   6823SM  C17F 8903   4.315   0.831  15.202  0.3231 -0.2139 -0.2031
   6823SM  H17F 8904   4.205   0.830  15.215  0.0141  0.7609 -2.3357
   6823SM  H17G 8905   4.324   0.767  15.112 -1.2610  0.2961 -0.7613
   6823SM  C18F 8906   4.359   0.973  15.166 -0.7854 -0.0529 -0.6554
   6823SM  H18F 8907   4.470   0.970  15.173 -0.6884 -1.1330 -2.1292
   6823SM  H18G 8908   4.323   1.048  15.239 -1.7872 -1.3704  0.2513
   6823SM  C19F 8909   4.318   1.018  15.021  0.5787  0.7513 -0.0410
   6823SM  H19F 8910   4.350   0.942  14.947 -0.7085  0.2629 -0.1240
   6823SM  H19G 8911   4.364   1.117  15.001  1.2799  0.6032  0.7709
   6823SM  C20F 8912   4.169   1.024  15.014  0.0069  0.1190  0.5534
   6823SM  H20F 8913   4.133   1.101  15.086  0.5894  1.9166 -0.9922
   6823SM  H20G 8914   4.117   0.930  15.040 -0.8785  0.9058  1.7431
   6823SM  C21F 8915   4.117   1.084  14.888  0.1217 -0.4649  0.0553
   6823SM  H21F 8916   4.152   1.035  14.794  1.1917  1.0468 -0.3803
   6823SM  H21G 8917   4.149   1.190  14.882  3.0527 -1.3126 -0.9633
   6823SM  C22F 8918   3.965   1.083  14.899  0.0976  0.0197 -0.1940
   6823SM  H22F 8919   3.942   1.145  14.989 -0.0129  0.4621 -0.5259
   6823SM  H22G 8920   3.932   0.979  14.919 -0.6272  0.0258 -1.3116
   6823SM  C23F 8921   3.897   1.136  14.778 -0.1796 -0.3992  0.5869
   6823SM  H23F 8922   3.906   1.246  14.769  0.6424 -0.6206 -5.0526
   6823SM  H23G 8923   3.789   1.117  14.762 -0.3855  1.7125 -0.8739
   6823SM  H23H 8924   3.945   1.099  14.685 -0.9790  0.4006 -0.1651
   6923SM     N 8925   5.903   2.203  17.479  0.0133  0.0655 -0.5277
   6923SM   C15 8926   5.918   2.334  17.416  0.2657 -0.3602  0.1361
   6923SM  H15A 8927   6.017   2.347  17.373 -0.3493  0.3648 -1.1366
   6923SM  H15B 8928   5.900   2.415  17.485  1.0666 -0.2241  0.2034
   6923SM  H15C 8929   5.842   2.349  17.341 -0.5597  0.6501  1.1503
   6923SM   C14 8930   6.010   2.185  17.584 -0.4511  0.3459  0.2750
   6923SM  H14A 8931   6.004   2.089  17.633 -1.7472  0.1568 -0.2147
   6923SM  H14B 8932   5.998   2.265  17.656 -1.4471  0.4496  0.0105
   6923SM  H14C 8933   6.109   2.200  17.546 -0.6770 -0.6004 -0.7374
   6923SM   C13 8934   5.767   2.207  17.541  0.5020 -0.3109 -0.2625
   6923SM  H13A 8935   5.733   2.287  17.604  1.4936 -1.2458  1.5342
   6923SM  H13B 8936   5.746   2.112  17.587  1.7928 -0.8034 -0.6316
   6923SM  H13C 8937   5.708   2.211  17.451 -0.4739 -1.1427  0.3167
   6923SM   C12 8938   5.915   2.084  17.388  0.7166  0.1309  0.0809
   6923SM  H12A 8939   5.882   1.995  17.440  1.2340 -0.1261 -0.0213
   6923SM  H12B 8940   6.020   2.077  17.366  0.5853  0.3344 -0.6304
   6923SM   C11 8941   5.826   2.088  17.262  0.0150  0.5982 -0.3738
   6923SM  H11A 8942   5.842   2.003  17.193 -2.8973 -0.8851  0.6054
   6923SM  H11B 8943   5.833   2.175  17.193 -3.4272 -0.2073 -1.9528
   6923SM     P 8944   5.619   1.960  17.347  0.3286 -0.0499 -0.1790
   6923SM   O13 8945   5.702   1.876  17.432 -0.0273 -0.1482 -0.0837
   6923SM   O14 8946   5.488   1.997  17.402 -0.5201  0.4295  0.2174
   6923SM   O11 8947   5.600   1.877  17.212  0.2527  0.1346 -0.7737
   6923SM   O12 8948   5.688   2.091  17.299  0.2446  0.5473 -0.5795
   6923SM   C1S 8949   5.519   1.937  17.108  0.2803  0.5498 -0.6957
   6923SM   H1S 8950   5.495   2.044  17.126 -1.1333  0.2145 -0.5345
   6923SM   H1T 8951   5.417   1.895  17.109 -0.4854  2.2010 -2.7395
   6923SM    NF 8952   5.522   2.002  16.878 -0.5728  0.2861 -0.2307
   6923SM   HNF 8953   5.450   1.964  16.820 -2.1778  1.3963  0.9538
   6923SM   C2S 8954   5.586   1.920  16.976  0.6232  0.0781  0.6030
   6923SM   H2S 8955   5.691   1.954  16.968  0.3939  0.7969  0.5715
   6923SM   C3S 8956   5.578   1.773  16.939 -0.2366 -0.0960  0.3231
   6923SM   H3S 8957   5.474   1.735  16.941  0.7771 -3.1595  0.2493
   6923SM    O3 8958   5.656   1.689  17.027  0.8263 -0.0092 -0.0751
   6923SM   HO3 8959   5.653   1.730  17.114  2.1823  0.4197 -0.1997
   6923SM   C4S 8960   5.633   1.763  16.795 -0.2430  0.5812 -0.0706
   6923SM   H4S 8961   5.738   1.796  16.784  0.9319 -2.7100  0.0797
   6923SM   C5S 8962   5.570   1.722  16.684 -0.1061 -0.4930  0.6135
   6923SM   H5S 8963   5.460   1.718  16.691 -0.4079 -0.2496 -2.7096
   6923SM   C6S 8964   5.643   1.708  16.552  0.0027 -0.3676 -0.3269
   6923SM   H6S 8965   5.582   1.646  16.482  0.2070 -0.4535 -0.4314
   6923SM   H6T 8966   5.738   1.653  16.570 -0.4546 -0.7731  0.9562
   6923SM   C7S 8967   5.671   1.844  16.488 -0.4383 -0.3312 -0.3951
   6923SM   H7S 8968   5.768   1.882  16.527  0.7709 -1.2392 -2.3679
   6923SM   H7T 8969   5.586   1.911  16.513 -0.4791 -0.5141 -0.0252
   6923SM   C8S 8970   5.693   1.833  16.340  0.1891  0.2563  0.3507
   6923SM   H8S 8971   5.611   1.784  16.282  0.3302  1.6922 -1.1383
   6923SM   H8T 8972   5.768   1.754  16.319 -0.8080 -0.3328 -1.2912
   6923SM   C9S 8973   5.715   1.968  16.276  0.2099  0.3022  0.4126
   6923SM   H9S 8974   5.747   1.955  16.171  1.1235  5.6886 -0.2300
   6923SM   H9T 8975   5.799   2.010  16.334  0.3361  0.9865 -0.2537
   6923SM  C10S 8976   5.599   2.073  16.286  0.6216  0.4762  0.5600
   6923SM  H10S 8977   5.627   2.169  16.239 -0.1600  0.8257  0.7901
   6923SM  H10T 8978   5.579   2.102  16.391  0.6891  0.0649  0.6867
   6923SM  C11S 8979   5.467   2.037  16.216 -0.6724 -0.0936 -0.0915
   6923SM  H11S 8980   5.386   2.099  16.259 -0.7359  0.3814 -0.8851
   6923SM  H11T 8981   5.451   1.931  16.246 -1.6611 -0.4579 -1.7883
   6923SM  C12S 8982   5.477   2.032  16.063  0.4329 -0.1260 -0.2152
   6923SM  H12S 8983   5.376   2.002  16.028 -0.3232  0.4271  1.4060
   6923SM  H12T 8984   5.542   1.947  16.031  0.9291 -0.2662  1.1159
   6923SM  C13S 8985   5.521   2.165  15.998  0.4745 -0.1489  0.0702
   6923SM  H13S 8986   5.615   2.159  15.939  0.5914  1.5823  0.0339
   6923SM  H13T 8987   5.533   2.240  16.078  0.8730 -0.2551  0.1114
   6923SM  C14S 8988   5.403   2.214  15.905 -0.2116 -0.5606 -0.5060
   6923SM  H14S 8989   5.433   2.317  15.877 -1.1602 -0.3167 -0.6502
   6923SM  H14T 8990   5.307   2.225  15.961 -0.1956 -2.6179  0.0004
   6923SM  C15S 8991   5.383   2.142  15.772  0.1746 -0.3033 -0.6007
   6923SM  H15S 8992   5.293   2.194  15.732  0.0512  0.6350  0.7832
   6923SM  H15T 8993   5.364   2.034  15.789  0.9621 -0.4658 -0.7197
   6923SM  C16S 8994   5.496   2.159  15.670  0.1558  0.2150 -0.7805
   6923SM  H16S 8995   5.588   2.119  15.718 -0.5249 -0.5386 -0.0861
   6923SM  H16T 8996   5.516   2.266  15.653  0.8624  0.4807  1.4393
   6923SM  C17S 8997   5.479   2.095  15.533  0.1244  0.1909  0.4607
   6923SM  H17S 8998   5.415   2.004  15.538  0.6626 -0.2474 -0.3284
   6923SM  H17T 8999   5.576   2.058  15.494  0.5752  0.9418  0.8441
   6923SM  C18S 9000   5.407   2.189  15.432 -0.4946 -0.6571  0.0131
   6923SM  H18S 9001   5.300   2.210  15.458 -0.9680 -3.7735  0.9480
   6923SM  H18T 9002   5.409   2.154  15.327 -1.0446 -0.8739  0.0686
   6923SM  H18U 9003   5.459   2.287  15.438 -0.6390 -0.5194 -0.8724
   6923SM   C1F 9004   5.540   2.132  16.873  0.6798 -0.5204 -0.3621
   6923SM    OF 9005   5.620   2.189  16.935 -0.6150 -0.2531 -0.1131
   6923SM   C2F 9006   5.453   2.200  16.776 -0.2993  0.1973  0.4243
   6923SM   H2F 9007   5.355   2.225  16.822 -0.5945  2.2953 -1.1507
   6923SM   H2G 9008   5.424   2.123  16.702  0.2073 -2.7086  3.0763
   6923SM   C3F 9009   5.509   2.325  16.710 -0.5249 -0.7051 -0.5511
   6923SM   H3F 9010   5.590   2.308  16.635 -0.1926  0.0557 -0.3685
   6923SM   H3G 9011   5.540   2.389  16.795 -0.8830  0.4667 -1.2751
   6923SM   C4F 9012   5.405   2.411  16.637  0.4287  0.0209  0.7301
   6923SM   H4F 9013   5.432   2.519  16.631 -1.7855  0.5525 -1.6089
   6923SM   H4G 9014   5.312   2.394  16.695  1.4551  0.6103  2.6305
   6923SM   C5F 9015   5.399   2.369  16.494  0.4446 -0.0296 -0.1883
   6923SM   H5F 9016   5.384   2.259  16.482  0.0979  0.1089 -1.1009
   6923SM   H5G 9017   5.501   2.363  16.452  0.6184 -2.9947  0.4337
   6923SM   C6F 9018   5.302   2.446  16.406  0.5379  0.0648 -0.4107
   6923SM   H6F 9019   5.332   2.552  16.416  0.7538 -0.0782  0.5277
   6923SM   H6G 9020   5.196   2.440  16.440 -0.6222  0.7989 -3.5229
   6923SM   C7F 9021   5.305   2.394  16.263 -0.6310  0.3192 -0.3556
   6923SM   H7F 9022   5.261   2.292  16.259 -1.1701  0.5845 -2.0127
   6923SM   H7G 9023   5.413   2.380  16.243  0.3079  1.3333  3.2914
   6923SM   C8F 9024   5.226   2.473  16.164  0.1121  0.0654 -0.5308
   6923SM   H8F 9025   5.119   2.475  16.196  0.3919 -0.1199  0.4676
   6923SM   H8G 9026   5.238   2.432  16.062 -0.0032  0.2513 -0.6200
   6923SM   C9F 9027   5.267   2.625  16.140  0.2495  0.3884  0.1187
   6923SM   H9F 9028   5.376   2.633  16.162  0.7816  0.3544 -2.2046
   6923SM   H9G 9029   5.209   2.693  16.205 -1.4227  0.0978 -1.0200
   6923SM  C10F 9030   5.247   2.673  15.996  0.6909 -0.4140  0.8496
   6923SM  H10F 9031   5.144   2.654  15.960  0.3316  3.2744 -0.4631
   6923SM  H10G 9032   5.314   2.610  15.934  0.8506  0.3802  0.1951
   6923SM  C11F 9033   5.279   2.819  15.982 -0.7163 -0.0903  0.4315
   6923SM  H11F 9034   5.374   2.853  16.029 -1.1948 -1.1218  2.2343
   6923SM  H11G 9035   5.193   2.876  16.023 -0.3490 -0.4327  1.7410
   6923SM  C12F 9036   5.281   2.852  15.828 -0.1941  0.3165  0.1278
   6923SM  H12F 9037   5.194   2.801  15.782  1.2586  0.1641 -2.6733
   6923SM  H12G 9038   5.363   2.804  15.771  0.3983  2.0639 -0.5843
   6923SM  C13F 9039   5.265   3.002  15.794  0.1326  0.0869 -0.1698
   6923SM  H13F 9040   5.359   3.057  15.818  0.1729  0.0607 -0.2698
   6923SM  H13G 9041   5.187   3.052  15.856  0.9386  0.4265  0.6082
   6923SM  C14F 9042   5.240   3.022  15.641 -0.1523  0.4025 -0.5826
   6923SM  H14F 9043   5.150   2.961  15.617  0.1699 -1.0365  1.5513
   6923SM  H14G 9044   5.322   2.971  15.586  1.7615  2.3077  0.3269
   6923SM  C15F 9045   5.225   3.167  15.601 -0.5522  0.1172  0.8015
   6923SM  H15F 9046   5.321   3.221  15.588 -0.3685  0.1543  2.1592
   6923SM  H15G 9047   5.179   3.231  15.679 -1.3456  0.6131 -0.0527
   6923SM  C16F 9048   5.124   3.186  15.486  0.3735  0.0347  0.0388
   6923SM  H16F 9049   5.117   3.296  15.473  0.9994  0.6320  3.6626
   6923SM  H16G 9050   5.022   3.147  15.509  0.2344 -0.3536 -1.1614
   6923SM  C17F 9051   5.167   3.123  15.352 -0.6270 -0.5418 -0.8559
   6923SM  H17F 9052   5.152   3.013  15.357 -0.8400 -0.5722 -1.9281
   6923SM  H17G 9053   5.277   3.132  15.342 -0.6657  1.2412 -0.0119
   6923SM  C18F 9054   5.099   3.185  15.225 -0.3226  0.3275 -0.3614
   6923SM  H18F 9055   5.129   3.290  15.205  0.2680 -0.0475 -1.5063
   6923SM  H18G 9056   4.989   3.177  15.240 -0.4312  2.8342  0.6492
   6923SM  C19F 9057   5.147   3.109  15.096  0.2798  0.0674 -1.3234
   6923SM  H19F 9058   5.249   3.068  15.113  0.4052  0.8344 -0.0661
   6923SM  H19G 9059   5.164   3.182  15.015 -1.4101  0.1669 -1.6135
   6923SM  C20F 9060   5.042   3.009  15.042 -0.6321  0.0224  0.1437
   6923SM  H20F 9061   4.964   3.064  14.985  0.1974  0.3268 -0.7338
   6923SM  H20G 9062   4.987   2.961  15.125 -1.8529  0.6767 -0.2578
   6923SM  C21F 9063   5.107   2.904  14.948  0.0002  0.1108 -0.0220
   6923SM  H21F 9064   5.181   2.960  14.888 -0.7844  0.4009 -0.7263
   6923SM  H21G 9065   5.038   2.868  14.869 -1.2297 -0.2850  1.1958
   6923SM  C22F 9066   5.185   2.799  15.023 -0.6032 -0.0119 -0.6597
   6923SM  H22F 9067   5.116   2.759  15.101  0.3878  0.4799  0.4995
   6923SM  H22G 9068   5.270   2.842  15.079 -0.2202 -0.8347 -0.5879
   6923SM  C23F 9069   5.249   2.686  14.937 -0.1337 -0.2830 -0.4329
   6923SM  H23F 9070   5.333   2.735  14.884  0.4468  0.2352  0.9166
   6923SM  H23G 9071   5.166   2.640  14.878 -1.5605  0.9571  0.5280
   6923SM  H23H 9072   5.282   2.607  15.007 -0.9355  1.4960  2.0907
   7023SM     N 9073   4.845   1.615  17.796 -0.4527 -0.2075 -0.2426
   7023SM   C15 9074   4.887   1.678  17.917  0.1023  0.5585 -0.5950
   7023SM  H15A 9075   4.995   1.684  17.910  0.5372 -2.9521  0.7556
   7023SM  H15B 9076   4.869   1.608  17.998 -0.2094 -0.2742 -1.3689
   7023SM  H15C 9077   4.849   1.776  17.939 -0.8583  0.2934 -1.0330
   7023SM   C14 9078   4.701   1.590  17.808  0.5482  0.8346  0.0027
   7023SM  H14A 9079   4.658   1.570  17.711 -0.4325 -1.0141  0.7746
   7023SM  H14B 9080   4.651   1.679  17.843  1.2028  0.8546  0.9174
   7023SM  H14C 9081   4.673   1.512  17.878  0.3089 -0.5614 -1.5900
   7023SM   C13 9082   4.881   1.712  17.691  0.4061 -0.1436  0.4157
   7023SM  H13A 9083   4.845   1.685  17.593 -0.8734  1.5874  0.3493
   7023SM  H13B 9084   4.986   1.734  17.678  0.1273 -0.3798 -3.1185
   7023SM  H13C 9085   4.844   1.813  17.705  0.9876 -0.0230  1.1437
   7023SM   C12 9086   4.936   1.488  17.784  0.4656  0.3006 -0.3877
   7023SM  H12A 9087   4.923   1.426  17.872 -1.8119  1.2049 -0.0047
   7023SM  H12B 9088   5.039   1.521  17.784  0.2836  1.0914  1.9761
   7023SM   C11 9089   4.915   1.400  17.657 -0.1513 -0.0856 -0.7827
   7023SM  H11A 9090   4.817   1.348  17.665 -1.2675  2.1517  2.9458
   7023SM  H11B 9091   4.990   1.318  17.665 -0.6944 -0.5834 -0.7114
   7023SM     P 9092   5.066   1.530  17.478  0.1680 -0.2691 -0.5173
   7023SM   O13 9093   5.039   1.631  17.372 -0.3980  0.1087 -0.3038
   7023SM   O14 9094   5.143   1.575  17.597  0.5689 -0.3834 -0.2488
   7023SM   O11 9095   5.143   1.407  17.423  0.2546 -0.1298  0.0456
   7023SM   O12 9096   4.928   1.466  17.531  0.2508 -0.0003  0.5669
   7023SM   C1S 9097   5.086   1.326  17.318 -0.6334 -0.0179 -0.2771
   7023SM   H1S 9098   4.984   1.288  17.343  0.4066 -2.5500  0.4761
   7023SM   H1T 9099   5.151   1.235  17.321  0.9509  1.0355 -1.3604
   7023SM    NF 9100   5.072   1.242  17.083 -0.5134 -0.6946 -0.2498
   7023SM   HNF 9101   5.144   1.176  17.065  0.4362 -0.5004  2.3909
   7023SM   C2S 9102   5.101   1.364  17.162 -0.2043 -0.1399 -1.1647
   7023SM   H2S 9103   5.023   1.441  17.140 -1.0095 -0.1434  1.3700
   7023SM   C3S 9104   5.237   1.421  17.129  0.4296 -0.1386 -0.3309
   7023SM   H3S 9105   5.313   1.352  17.174 -0.6757 -0.7900  0.5933
   7023SM    O3 9106   5.260   1.547  17.186  0.0731 -0.2404  0.1260
   7023SM   HO3 9107   5.197   1.562  17.257  0.7121  3.1553  0.1331
   7023SM   C4S 9108   5.252   1.437  16.982 -0.2566  0.3719  0.2298
   7023SM   H4S 9109   5.186   1.516  16.943 -2.2444 -0.5439  1.5719
   7023SM   C5S 9110   5.338   1.372  16.905  0.1212 -0.9619  0.3561
   7023SM   H5S 9111   5.403   1.298  16.955 -0.6440 -2.7874 -1.2322
   7023SM   C6S 9112   5.357   1.388  16.760  0.2288  0.4725 -0.5756
   7023SM   H6S 9113   5.327   1.291  16.716 -1.4514  0.6182  0.1795
   7023SM   H6T 9114   5.464   1.415  16.745  0.7144 -0.9345  0.0821
   7023SM   C7S 9115   5.271   1.484  16.676 -0.3289  0.8447  0.1089
   7023SM   H7S 9116   5.296   1.587  16.709  0.5660 -0.7156  5.0844
   7023SM   H7T 9117   5.161   1.468  16.683 -0.3666  0.6075 -0.9211
   7023SM   C8S 9118   5.300   1.470  16.526  0.6255 -0.2209  0.1486
   7023SM   H8S 9119   5.280   1.365  16.497 -1.0959 -0.2829  1.3606
   7023SM   H8T 9120   5.408   1.481  16.503  0.5319 -1.6870 -1.1759
   7023SM   C9S 9121   5.223   1.563  16.435  0.2333 -0.0008  0.2004
   7023SM   H9S 9122   5.252   1.665  16.467  0.0490  0.0585  0.1791
   7023SM   H9T 9123   5.113   1.546  16.437  0.4864 -1.9346 -0.1863
   7023SM  C10S 9124   5.273   1.544  16.297  0.7510 -0.3311 -0.1333
   7023SM  H10S 9125   5.237   1.445  16.260 -0.5346 -0.1981  0.6932
   7023SM  H10T 9126   5.384   1.548  16.285  0.7179  0.8898 -0.1504
   7023SM  C11S 9127   5.217   1.657  16.212  0.2800  0.6274  0.3125
   7023SM  H11S 9128   5.273   1.753  16.211  1.4702 -0.0225  1.4627
   7023SM  H11T 9129   5.112   1.679  16.239  1.1927  2.5106  2.6811
   7023SM  C12S 9130   5.220   1.610  16.061 -0.6867  0.5698  0.2031
   7023SM  H12S 9131   5.163   1.516  16.050 -0.8210  0.9107 -2.8809
   7023SM  H12T 9132   5.320   1.591  16.018 -0.5821 -1.2788  1.1751
   7023SM  C13S 9133   5.158   1.722  15.976 -0.3495 -1.1840 -0.6925
   7023SM  H13S 9134   5.223   1.809  15.999 -2.0310 -0.3629  1.3259
   7023SM  H13T 9135   5.055   1.747  16.010  0.7706 -0.3670  2.4049
   7023SM  C14S 9136   5.168   1.688  15.823  0.2093  0.1407 -0.2007
   7023SM  H14S 9137   5.087   1.615  15.802  1.3582 -1.2446  0.0268
   7023SM  H14T 9138   5.263   1.635  15.799  1.3042  0.4905  2.8738
   7023SM  C15S 9139   5.138   1.812  15.738  0.3957  0.1049 -0.6192
   7023SM  H15S 9140   5.213   1.892  15.758 -0.2982  0.4418  0.7914
   7023SM  H15T 9141   5.041   1.856  15.769 -0.4402 -0.9667 -1.6211
   7023SM  C16S 9142   5.135   1.780  15.586  0.0204 -0.2293 -0.6351
   7023SM  H16S 9143   5.054   1.706  15.570 -0.9230  0.6340 -0.0271
   7023SM  H16T 9144   5.234   1.731  15.574  1.9281  3.3927 -1.1526
   7023SM  C17S 9145   5.111   1.913  15.494  0.1758  0.8753  0.2261
   7023SM  H17S 9146   5.114   1.888  15.386 -1.6338  0.7306  0.1942
   7023SM  H17T 9147   5.185   1.992  15.521 -0.5969  1.1023  1.7936
   7023SM  C18S 9148   4.980   1.982  15.523 -0.1410 -0.4224 -0.1258
   7023SM  H18S 9149   4.949   2.016  15.624 -3.2645 -0.1824 -1.0608
   7023SM  H18T 9150   4.904   1.906  15.495  1.8403 -2.1480 -0.9962
   7023SM  H18U 9151   4.958   2.072  15.462  1.7816  0.5788  0.5872
   7023SM   C1F 9152   4.948   1.186  17.089 -0.7606 -0.6991 -0.0378
   7023SM    OF 9153   4.851   1.245  17.129  0.0264 -0.5308 -0.3392
   7023SM   C2F 9154   4.948   1.040  17.063 -0.3294  0.0049  0.0879
   7023SM   H2F 9155   4.871   0.990  17.126 -0.8055 -1.7117 -1.7445
   7023SM   H2G 9156   5.041   0.986  17.092 -0.6784 -1.6427 -1.6792
   7023SM   C3F 9157   4.914   1.022  16.916  0.1568  0.5334  0.3122
   7023SM   H3F 9158   4.817   1.072  16.896 -0.5472 -1.2052 -0.8825
   7023SM   H3G 9159   4.893   0.913  16.904 -1.2856  0.6754  1.3347
   7023SM   C4F 9160   5.027   1.064  16.814  0.2539 -0.5217 -0.1949
   7023SM   H4F 9161   5.129   1.025  16.833  0.1880 -0.1069  1.0639
   7023SM   H4G 9162   5.049   1.171  16.834  1.2316 -0.6146 -0.7227
   7023SM   C5F 9163   4.978   1.048  16.670 -0.4569 -0.2419 -0.7882
   7023SM   H5F 9164   4.878   1.094  16.653 -0.4556 -0.5236 -1.5918
   7023SM   H5G 9165   4.949   0.944  16.648 -2.4398 -0.1679  1.1974
   7023SM   C6F 9166   5.072   1.110  16.561 -0.2468 -0.1919 -0.0959
   7023SM   H6F 9167   5.177   1.073  16.563  0.9330  2.5025 -2.9862
   7023SM   H6G 9168   5.073   1.220  16.580 -2.5751 -0.0005 -0.8220
   7023SM   C7F 9169   5.015   1.084  16.419 -0.3655 -0.7283  0.1044
   7023SM   H7F 9170   4.907   1.110  16.411 -0.8810 -2.9488 -1.0318
   7023SM   H7G 9171   5.028   0.975  16.398  0.4499 -0.3602 -1.4931
   7023SM   C8F 9172   5.082   1.173  16.314  0.1351  0.6138  0.4696
   7023SM   H8F 9173   5.192   1.181  16.327  0.2286  1.1432 -0.5173
   7023SM   H8G 9174   5.044   1.277  16.327 -1.9743 -0.1732  0.9666
   7023SM   C9F 9175   5.047   1.141  16.167  0.1188  0.1694  0.3987
   7023SM   H9F 9176   4.961   1.201  16.130  1.4762  1.9549 -0.0066
   7023SM   H9G 9177   5.053   1.032  16.147  2.9701  0.6048 -1.8397
   7023SM  C10F 9178   5.160   1.198  16.071 -0.0425 -0.9453 -0.1549
   7023SM  H10F 9179   5.249   1.131  16.073  0.5630 -0.1527  0.0666
   7023SM  H10G 9180   5.192   1.298  16.107  2.0484 -0.6069 -2.6094
   7023SM  C11F 9181   5.105   1.225  15.927  0.1925 -0.4870  0.7895
   7023SM  H11F 9182   5.016   1.291  15.931 -1.9110 -2.9267 -1.7827
   7023SM  H11G 9183   5.080   1.122  15.897 -1.2851  0.5886 -2.0410
   7023SM  C12F 9184   5.204   1.279  15.823 -0.2521  0.0196  0.0925
   7023SM  H12F 9185   5.302   1.228  15.829  1.1335  2.6712  2.5142
   7023SM  H12G 9186   5.217   1.388  15.840 -1.5292 -0.1242  2.4743
   7023SM  C13F 9187   5.153   1.243  15.678  0.1020 -0.2758 -0.1406
   7023SM  H13F 9188   5.060   1.302  15.660  0.9344  1.2359  0.3032
   7023SM  H13G 9189   5.110   1.142  15.666  0.1237 -0.1312 -1.5602
   7023SM  C14F 9190   5.245   1.266  15.558 -0.4116  0.0457  0.2313
   7023SM  H14F 9191   5.189   1.234  15.467 -0.4639 -1.8799  0.8813
   7023SM  H14G 9192   5.339   1.207  15.568  0.2724  1.3415  1.8502
   7023SM  C15F 9193   5.292   1.410  15.548  0.2988  0.1228  0.4305
   7023SM  H15F 9194   5.347   1.459  15.631  1.0493  3.9223 -2.0549
   7023SM  H15G 9195   5.204   1.477  15.536  0.7891  0.7822  0.4602
   7023SM  C16F 9196   5.384   1.428  15.428 -0.9013 -0.1354  0.6122
   7023SM  H16F 9197   5.326   1.413  15.335  0.7950  0.3690 -0.5665
   7023SM  H16G 9198   5.458   1.346  15.437 -0.3341  0.2546 -0.3645
   7023SM  C17F 9199   5.456   1.569  15.418 -0.0018 -0.5809 -0.0329
   7023SM  H17F 9200   5.545   1.580  15.485  0.1629  1.1999 -0.5098
   7023SM  H17G 9201   5.384   1.647  15.451  0.5891  0.2057 -0.5681
   7023SM  C18F 9202   5.493   1.624  15.278 -0.3949  0.2427  1.0007
   7023SM  H18F 9203   5.411   1.604  15.206 -0.9241  2.7664  0.7836
   7023SM  H18G 9204   5.575   1.568  15.230  0.3168  1.8852  0.2027
   7023SM  C19F 9205   5.513   1.777  15.249 -0.3440 -0.4092 -0.0888
   7023SM  H19F 9206   5.599   1.810  15.311 -0.6408 -1.8573  1.1501
   7023SM  H19G 9207   5.424   1.831  15.289 -0.1063 -0.5019  0.5638
   7023SM  C20F 9208   5.545   1.808  15.109  0.2576 -0.2207  0.2119
   7023SM  H20F 9209   5.459   1.778  15.045  1.7828  0.5012 -2.3049
   7023SM  H20G 9210   5.625   1.747  15.063 -1.0916 -1.0049 -1.2137
   7023SM  C21F 9211   5.559   1.960  15.084  0.5070  0.9157 -0.6232
   7023SM  H21F 9212   5.639   1.989  15.155 -0.4350 -3.3547  2.6156
   7023SM  H21G 9213   5.464   2.002  15.122 -0.1394  1.1070 -2.3905
   7023SM  C22F 9214   5.574   1.992  14.936  0.6812  0.3959  0.4524
   7023SM  H22F 9215   5.512   1.938  14.862 -0.4940  1.7927  0.3830
   7023SM  H22G 9216   5.679   1.984  14.902  0.8258 -0.4409  1.0557
   7023SM  C23F 9217   5.525   2.138  14.902 -0.3982  0.1805  0.1533
   7023SM  H23F 9218   5.526   2.161  14.793  0.2053  1.4714  0.4140
   7023SM  H23G 9219   5.591   2.210  14.956 -0.4023 -0.7907  1.5030
   7023SM  H23H 9220   5.420   2.158  14.930 -0.4028  0.9430 -0.3706
   7123SM     N 9221   5.381   7.418  17.785 -0.2533 -0.0011  0.4853
   7123SM   C15 9222   5.280   7.524  17.764  0.5630  0.1643 -1.3233
   7123SM  H15A 9223   5.199   7.485  17.704 -0.4307  1.3013 -0.7703
   7123SM  H15B 9224   5.310   7.594  17.688 -0.3206  0.8585 -1.0394
   7123SM  H15C 9225   5.243   7.567  17.856  2.0467  0.2341 -0.7302
   7123SM   C14 9226   5.474   7.471  17.892 -0.0388 -0.3228 -0.2494
   7123SM  H14A 9227   5.427   7.449  17.987  0.1973 -2.6847 -0.6238
   7123SM  H14B 9228   5.493   7.577  17.890 -1.1994 -0.0161  1.9954
   7123SM  H14C 9229   5.571   7.424  17.891  0.3573  0.4720 -0.1542
   7123SM   C13 9230   5.321   7.285  17.823 -0.2131  0.5716 -1.0180
   7123SM  H13A 9231   5.261   7.294  17.912 -2.0224 -2.3267 -1.8309
   7123SM  H13B 9232   5.403   7.221  17.852 -2.2656 -1.3211  0.9391
   7123SM  H13C 9233   5.272   7.237  17.740 -1.8575 -0.4481  0.4739
   7123SM   C12 9234   5.457   7.399  17.660 -0.2085 -0.0433  0.4283
   7123SM  H12A 9235   5.525   7.315  17.664 -1.3235 -0.9294  1.9343
   7123SM  H12B 9236   5.523   7.483  17.646  0.5883 -1.0466 -2.4918
   7123SM   C11 9237   5.379   7.380  17.525 -0.0723  0.3175 -0.6581
   7123SM  H11A 9238   5.311   7.298  17.557  1.7850 -0.2251  2.2559
   7123SM  H11B 9239   5.452   7.333  17.455  2.1770 -1.0010  2.3744
   7123SM     P 9240   5.372   7.599  17.378 -0.0370 -0.2336 -0.1583
   7123SM   O13 9241   5.260   7.686  17.332  0.3594 -0.0137  0.4936
   7123SM   O14 9242   5.482   7.669  17.439 -0.1332  0.6950 -0.3042
   7123SM   O11 9243   5.418   7.516  17.255  0.0495  0.0176  0.0470
   7123SM   O12 9244   5.314   7.496  17.483 -0.3752 -0.2674  0.1951
   7123SM   C1S 9245   5.322   7.441  17.181  0.3115 -0.0911 -0.6647
   7123SM   H1S 9246   5.240   7.407  17.249  1.1895 -1.1784 -0.1197
   7123SM   H1T 9247   5.349   7.336  17.157  0.4827 -0.0032 -0.8545
   7123SM    NF 9248   5.171   7.462  16.984  0.4136  0.0910  0.0848
   7123SM   HNF 9249   5.186   7.379  16.930 -1.9549  0.6747 -1.6106
   7123SM   C2S 9250   5.283   7.521  17.052  0.0407 -0.5575 -0.6263
   7123SM   H2S 9251   5.259   7.625  17.083 -0.8881 -0.4285 -1.7239
   7123SM   C3S 9252   5.414   7.526  16.965 -0.1610  0.5046  0.0449
   7123SM   H3S 9253   5.447   7.420  16.955  1.5580  0.8526  1.5296
   7123SM    O3 9254   5.529   7.596  17.021 -0.4632 -0.5059 -0.1470
   7123SM   HO3 9255   5.503   7.614  17.111  1.0453  2.0092 -0.1133
   7123SM   C4S 9256   5.377   7.583  16.839  0.3596  0.6275  0.1945
   7123SM   H4S 9257   5.375   7.508  16.760  1.6696  0.5631  0.2059
   7123SM   C5S 9258   5.344   7.711  16.806  0.3024  0.0215 -0.0096
   7123SM   H5S 9259   5.331   7.783  16.889 -1.4468 -1.8862  1.4634
   7123SM   C6S 9260   5.301   7.769  16.674 -0.8166 -0.4281  0.2563
   7123SM   H6S 9261   5.354   7.866  16.657  0.2183 -0.7703  1.4136
   7123SM   H6T 9262   5.194   7.799  16.678 -1.1283 -0.9404 -2.3438
   7123SM   C7S 9263   5.319   7.678  16.557 -0.6166  0.6729 -0.0060
   7123SM   H7S 9264   5.242   7.598  16.562  0.4228 -0.4795 -1.3503
   7123SM   H7T 9265   5.418   7.627  16.557 -1.3337 -0.7827  0.8924
   7123SM   C8S 9266   5.300   7.754  16.419 -0.7905 -0.4197 -0.8765
   7123SM   H8S 9267   5.388   7.820  16.406  0.3292 -1.1151  2.2422
   7123SM   H8T 9268   5.204   7.809  16.428  0.4221  1.7087 -0.2453
   7123SM   C9S 9269   5.295   7.654  16.306  0.3070 -0.2626  0.2452
   7123SM   H9S 9270   5.201   7.594  16.300  0.7592 -0.8868 -0.8796
   7123SM   H9T 9271   5.382   7.585  16.310  1.1139  0.7427  0.2181
   7123SM  C10S 9272   5.285   7.731  16.175  0.1351 -0.3552  0.3521
   7123SM  H10S 9273   5.376   7.795  16.171 -0.2634  0.2032  0.1138
   7123SM  H10T 9274   5.192   7.791  16.185 -0.2808 -1.0396  0.6611
   7123SM  C11S 9275   5.285   7.645  16.052 -0.6014  0.0091  0.2284
   7123SM  H11S 9276   5.195   7.579  16.058 -0.3162 -0.7474 -2.3059
   7123SM  H11T 9277   5.377   7.586  16.034 -0.3438  0.4380  0.1195
   7123SM  C12S 9278   5.282   7.733  15.931  0.5026  0.0660 -0.2909
   7123SM  H12S 9279   5.290   7.671  15.839  1.7405 -1.1948  0.6231
   7123SM  H12T 9280   5.378   7.789  15.932  0.3270  0.3697 -0.0558
   7123SM  C13S 9281   5.166   7.836  15.923 -0.2049  1.1676 -0.9636
   7123SM  H13S 9282   5.186   7.917  15.997  0.1703  0.4175 -0.2191
   7123SM  H13T 9283   5.073   7.786  15.957  0.8519 -0.5556 -0.4793
   7123SM  C14S 9284   5.122   7.901  15.792 -0.2330  0.3507  0.7890
   7123SM  H14S 9285   5.046   7.978  15.818 -1.5171 -1.0851  1.3889
   7123SM  H14T 9286   5.073   7.821  15.732 -0.7503  1.2400 -0.0088
   7123SM  C15S 9287   5.235   7.957  15.710 -0.4141 -0.2630  1.0216
   7123SM  H15S 9288   5.296   7.872  15.673 -0.6875 -0.2475  0.5198
   7123SM  H15T 9289   5.299   8.010  15.783 -0.1251  0.5093  0.2316
   7123SM  C16S 9290   5.197   8.035  15.584 -0.0249 -0.4071 -0.0434
   7123SM  H16S 9291   5.274   8.039  15.504 -1.0367 -0.5328 -1.0462
   7123SM  H16T 9292   5.172   8.138  15.617  3.7158  0.1684  1.4922
   7123SM  C17S 9293   5.079   7.969  15.499  0.0594  0.1365 -0.9158
   7123SM  H17S 9294   4.987   8.011  15.546  0.8104  1.7279 -0.7882
   7123SM  H17T 9295   5.077   7.859  15.516 -0.0226  0.3775  0.8883
   7123SM  C18S 9296   5.077   7.989  15.345 -0.0074 -0.3609 -0.6415
   7123SM  H18S 9297   5.154   7.928  15.293  0.9903 -0.3328  0.7753
   7123SM  H18T 9298   5.096   8.098  15.334 -0.7288 -0.0629  0.8707
   7123SM  H18U 9299   4.977   7.973  15.298 -0.7858  1.5465  0.2678
   7123SM   C1F 9300   5.051   7.489  17.021  0.3691 -0.3456  0.4777
   7123SM    OF 9301   5.018   7.588  17.085  0.1695  0.0101  0.5981
   7123SM   C2F 9302   4.944   7.394  16.968 -0.2411 -1.0772 -0.2804
   7123SM   H2F 9303   4.866   7.385  17.047 -0.6776 -2.1546 -0.8225
   7123SM   H2G 9304   4.994   7.297  16.952  1.6462 -0.2014  0.0342
   7123SM   C3F 9305   4.875   7.442  16.838 -0.3850 -0.3757 -0.3935
   7123SM   H3F 9306   4.852   7.549  16.858 -0.3116  0.2719 -3.2997
   7123SM   H3G 9307   4.780   7.389  16.820 -1.7943  1.8927 -0.0250
   7123SM   C4F 9308   4.969   7.439  16.714  0.4469 -0.2623 -0.6111
   7123SM   H4F 9309   5.026   7.344  16.708  1.8260  0.4777  0.3754
   7123SM   H4G 9310   5.024   7.534  16.731 -1.4525  0.9141 -0.6736
   7123SM   C5F 9311   4.898   7.464  16.580  0.0836 -0.0493 -0.3445
   7123SM   H5F 9312   4.827   7.548  16.595 -0.3934 -0.4246 -0.4583
   7123SM   H5G 9313   4.838   7.372  16.557  0.9673 -0.8141  0.3297
   7123SM   C6F 9314   4.984   7.501  16.460 -0.4518 -0.0857  0.1345
   7123SM   H6F 9315   5.074   7.438  16.446 -0.8569 -1.2203  2.2428
   7123SM   H6G 9316   5.032   7.600  16.472  0.7772 -0.6624  0.1639
   7123SM   C7F 9317   4.897   7.513  16.332  0.3795  0.0607 -0.4145
   7123SM   H7F 9318   4.959   7.562  16.254  1.1911  1.1425  0.8602
   7123SM   H7G 9319   4.812   7.581  16.353  1.2067  0.4688  1.9145
   7123SM   C8F 9320   4.858   7.367  16.286  0.2744 -0.2422  1.0345
   7123SM   H8F 9321   4.799   7.314  16.365 -0.7270 -1.7059 -0.5992
   7123SM   H8G 9322   4.945   7.308  16.251  1.3336  1.3412  0.9060
   7123SM   C9F 9323   4.761   7.380  16.164  0.3697  0.2597 -0.4125
   7123SM   H9F 9324   4.763   7.475  16.105 -0.4679  0.0640 -0.7676
   7123SM   H9G 9325   4.657   7.377  16.202  0.1106  1.8282 -0.8928
   7123SM  C10F 9326   4.773   7.264  16.069 -0.7202  0.0548  0.1182
   7123SM  H10F 9327   4.750   7.174  16.131 -2.7336  0.3243 -0.1790
   7123SM  H10G 9328   4.879   7.251  16.040 -0.8255 -1.1406  0.1815
   7123SM  C11F 9329   4.693   7.270  15.940 -0.7319  0.4477 -0.6519
   7123SM  H11F 9330   4.721   7.364  15.887 -0.9506  1.1120  0.3924
   7123SM  H11G 9331   4.588   7.272  15.975 -0.5004 -0.2737  0.1201
   7123SM  C12F 9332   4.726   7.139  15.868  0.4583 -0.2974  0.2704
   7123SM  H12F 9333   4.709   7.054  15.937 -0.5044 -0.4919 -0.1922
   7123SM  H12G 9334   4.835   7.146  15.844  0.5813  0.4414  1.0258
   7123SM  C13F 9335   4.645   7.140  15.733 -0.1831 -0.0029  0.3314
   7123SM  H13F 9336   4.648   7.240  15.685  1.1397 -0.2535 -0.1735
   7123SM  H13G 9337   4.537   7.118  15.742 -0.0487 -2.3997 -2.4390
   7123SM  C14F 9338   4.705   7.038  15.637  0.4685  0.1001 -0.0305
   7123SM  H14F 9339   4.816   7.043  15.634  0.4713  0.1381  0.1443
   7123SM  H14G 9340   4.680   7.050  15.529  1.7715  0.1969 -0.3322
   7123SM  C15F 9341   4.649   6.902  15.674 -0.4994 -0.2777 -0.1048
   7123SM  H15F 9342   4.538   6.908  15.671 -0.4222  1.1395 -2.5834
   7123SM  H15G 9343   4.676   6.875  15.779  0.0134 -2.4062 -0.7310
   7123SM  C16F 9344   4.685   6.789  15.578  0.0814  0.3803  0.5505
   7123SM  H16F 9345   4.624   6.812  15.487  2.1493  1.3393 -0.6723
   7123SM  H16G 9346   4.654   6.693  15.623  1.5424  0.1660  1.1562
   7123SM  C17F 9347   4.824   6.799  15.534 -0.4694  0.2990  0.9588
   7123SM  H17F 9348   4.875   6.798  15.633 -0.3864 -0.5543  0.9145
   7123SM  H17G 9349   4.860   6.887  15.477 -1.8563  0.9912  1.1143
   7123SM  C18F 9350   4.874   6.678  15.454 -0.6859  0.4350  0.5639
   7123SM  H18F 9351   4.813   6.590  15.483  0.3081  0.5482  3.2414
   7123SM  H18G 9352   4.980   6.660  15.483 -1.7784 -1.5009  3.8981
   7123SM  C19F 9353   4.857   6.694  15.303  0.6462 -0.1295 -0.5710
   7123SM  H19F 9354   4.779   6.770  15.282  0.0685  0.0530  1.9144
   7123SM  H19G 9355   4.821   6.597  15.265 -1.3834  0.0723  0.7217
   7123SM  C20F 9356   4.982   6.752  15.234 -0.1554  0.0711 -0.0716
   7123SM  H20F 9357   4.958   6.744  15.126  0.4754 -1.5715 -0.1213
   7123SM  H20G 9358   5.065   6.682  15.258  0.3245  0.6072 -0.1747
   7123SM  C21F 9359   5.013   6.903  15.268  0.0781 -0.3048 -0.3866
   7123SM  H21F 9360   5.041   6.917  15.375 -0.1247 -1.4516 -0.1726
   7123SM  H21G 9361   4.924   6.967  15.254 -0.7919 -1.5707 -0.8123
   7123SM  C22F 9362   5.133   6.955  15.183 -0.0671  0.0805 -0.3064
   7123SM  H22F 9363   5.127   7.066  15.182  1.5666  0.2272 -2.8608
   7123SM  H22G 9364   5.105   6.919  15.081  0.2569  1.9445 -1.0973
   7123SM  C23F 9365   5.272   6.907  15.234  0.1141  0.3428  0.1129
   7123SM  H23F 9366   5.284   6.941  15.339  1.3006 -4.1872  1.7088
   7123SM  H23G 9367   5.356   6.951  15.177 -0.4196  2.0584  0.6136
   7123SM  H23H 9368   5.258   6.797  15.217 -0.6907  0.4164  0.2474
   7223SM     N 9369   6.433   2.886  17.650 -0.3704 -0.5082 -0.1905
   7223SM   C15 9370   6.324   2.788  17.650 -0.0789  0.2860  0.4982
   7223SM  H15A 9371   6.348   2.697  17.597 -1.3036 -0.1114  0.5868
   7223SM  H15B 9372   6.242   2.830  17.595 -0.3253 -0.1506  0.5306
   7223SM  H15C 9373   6.283   2.768  17.748 -2.1045  0.7086 -0.2102
   7223SM   C14 9374   6.390   3.000  17.748 -0.8449 -0.1536  0.3855
   7223SM  H14A 9375   6.292   3.037  17.725  0.2123  2.5024 -0.1513
   7223SM  H14B 9376   6.455   3.086  17.739 -1.3639  0.0197 -2.2530
   7223SM  H14C 9377   6.382   2.958  17.848  0.0810  0.4952  0.7401
   7223SM   C13 9378   6.559   2.820  17.695 -0.5687  0.0862  0.1927
   7223SM  H13A 9379   6.563   2.726  17.644 -0.2806  0.0616  0.2606
   7223SM  H13B 9380   6.552   2.803  17.802  1.3283 -0.9983  0.1845
   7223SM  H13C 9381   6.650   2.876  17.677 -0.1691 -0.1532  1.3552
   7223SM   C12 9382   6.449   2.937  17.509  0.4036  0.8172 -0.5018
   7223SM  H12A 9383   6.355   2.976  17.473  0.4869 -0.4529 -2.2539
   7223SM  H12B 9384   6.483   2.858  17.443 -0.5703 -0.6434  0.6773
   7223SM   C11 9385   6.565   3.046  17.493 -0.4130 -0.0983 -0.4774
   7223SM  H11A 9386   6.589   3.060  17.386  2.8555  1.8815  0.3709
   7223SM  H11B 9387   6.662   3.014  17.538 -1.1881  0.7053  1.9290
   7223SM     P 9388   6.419   3.264  17.499 -0.6487  0.3056  0.1033
   7223SM   O13 9389   6.290   3.199  17.490  0.0934  0.4004 -0.0280
   7223SM   O14 9390   6.426   3.396  17.574 -0.0972  0.3662  0.7442
   7223SM   O11 9391   6.468   3.284  17.349 -0.2043  0.1213 -0.5891
   7223SM   O12 9392   6.540   3.178  17.556  0.1116  0.6234 -0.3744
   7223SM   C1S 9393   6.399   3.225  17.241  0.7187  0.4330 -0.3462
   7223SM   H1S 9394   6.289   3.240  17.245  0.7890  1.1767 -0.9841
   7223SM   H1T 9395   6.412   3.115  17.247 -1.6278  0.1588  1.0227
   7223SM    NF 9396   6.357   3.239  16.997 -0.9644 -0.1972 -0.0252
   7223SM   HNF 9397   6.365   3.146  16.960  2.6742  0.4796 -1.3990
   7223SM   C2S 9398   6.450   3.276  17.104 -0.8034  0.3245  0.7058
   7223SM   H2S 9399   6.455   3.387  17.113 -0.5546  0.3609  0.1397
   7223SM   C3S 9400   6.593   3.222  17.064  0.3824 -0.2513 -1.0704
   7223SM   H3S 9401   6.592   3.116  17.033 -0.1146 -0.1217 -1.5156
   7223SM    O3 9402   6.689   3.234  17.169 -1.0172 -0.3188 -0.3849
   7223SM   HO3 9403   6.636   3.261  17.244  0.8072 -2.0412  1.6855
   7223SM   C4S 9404   6.632   3.301  16.944  0.1757 -0.1986 -0.0662
   7223SM   H4S 9405   6.638   3.409  16.963 -1.3344 -0.3157  1.2863
   7223SM   C5S 9406   6.668   3.239  16.829  0.8388  0.0258  0.5779
   7223SM   H5S 9407   6.682   3.130  16.827  1.2965  0.0041 -3.1428
   7223SM   C6S 9408   6.710   3.309  16.703 -0.0436 -0.0784  0.0553
   7223SM   H6S 9409   6.804   3.265  16.663 -1.0763 -2.9178  0.5304
   7223SM   H6T 9410   6.732   3.415  16.728 -0.5244 -0.4152  2.0902
   7223SM   C7S 9411   6.597   3.313  16.595  0.5317  0.5771 -0.2105
   7223SM   H7S 9412   6.508   3.357  16.644 -0.0363  0.0487 -0.7461
   7223SM   H7T 9413   6.566   3.211  16.564  1.8281  0.4615 -1.2263
   7223SM   C8S 9414   6.636   3.389  16.468 -0.0247  0.3318 -0.6007
   7223SM   H8S 9415   6.746   3.376  16.456  0.6286  2.9387  1.5641
   7223SM   H8T 9416   6.633   3.499  16.483  3.8160  1.0159 -3.3459
   7223SM   C9S 9417   6.533   3.352  16.353  0.1504  0.0600  0.1923
   7223SM   H9S 9418   6.439   3.399  16.390 -0.8885 -2.6559  1.2800
   7223SM   H9T 9419   6.525   3.241  16.347  2.0942 -0.0385 -1.8484
   7223SM  C10S 9420   6.588   3.399  16.218  0.3671  0.0964 -0.5769
   7223SM  H10S 9421   6.674   3.335  16.191  1.8378  1.7351 -0.0192
   7223SM  H10T 9422   6.628   3.503  16.228 -0.5639  0.4960 -0.9299
   7223SM  C11S 9423   6.485   3.389  16.098 -0.5349 -0.0887 -0.3462
   7223SM  H11S 9424   6.391   3.437  16.132 -0.6359 -0.3033 -0.3228
   7223SM  H11T 9425   6.457   3.283  16.080  1.1199 -0.4224 -1.1601
   7223SM  C12S 9426   6.545   3.441  15.972 -0.2156 -0.4518 -0.4010
   7223SM  H12S 9427   6.649   3.407  15.956 -0.2638 -0.8285  0.0377
   7223SM  H12T 9428   6.544   3.551  15.988  0.7518 -0.7086  1.8681
   7223SM  C13S 9429   6.457   3.399  15.858 -0.1722  0.8537 -0.0459
   7223SM  H13S 9430   6.358   3.445  15.876  0.1817  0.9960  1.6684
   7223SM  H13T 9431   6.431   3.291  15.870 -0.0920  0.7095 -1.0848
   7223SM  C14S 9432   6.515   3.428  15.716  0.2773  0.3467 -0.0274
   7223SM  H14S 9433   6.426   3.414  15.650 -0.3906  1.7434  0.5520
   7223SM  H14T 9434   6.605   3.368  15.688  1.3111  2.0775 -0.5526
   7223SM  C15S 9435   6.569   3.573  15.712 -0.0583 -0.0754 -0.5140
   7223SM  H15S 9436   6.663   3.578  15.771 -0.4716 -4.6735  0.9460
   7223SM  H15T 9437   6.491   3.645  15.744  0.3356 -0.2512  0.9048
   7223SM  C16S 9438   6.602   3.629  15.576 -0.8764  0.3654  0.2224
   7223SM  H16S 9439   6.679   3.568  15.525  0.3816  3.2051 -1.5494
   7223SM  H16T 9440   6.639   3.733  15.595  0.0405  0.6190 -2.5244
   7223SM  C17S 9441   6.481   3.651  15.479 -0.7455 -0.0356  0.6760
   7223SM  H17S 9442   6.386   3.686  15.525 -1.2154  0.3619 -0.5460
   7223SM  H17T 9443   6.463   3.551  15.433 -3.6504  1.6132 -2.1983
   7223SM  C18S 9444   6.511   3.741  15.363 -0.5423  0.3111 -0.2307
   7223SM  H18S 9445   6.434   3.745  15.283 -0.1410 -1.2982 -0.7277
   7223SM  H18T 9446   6.606   3.706  15.316 -0.7041  0.7144 -0.8840
   7223SM  H18U 9447   6.542   3.843  15.396  0.0403  0.4242 -1.0744
   7223SM   C1F 9448   6.241   3.308  16.981 -0.8368 -0.1778 -0.0562
   7223SM    OF 9449   6.213   3.406  17.049 -0.0768 -0.4134 -0.4975
   7223SM   C2F 9450   6.149   3.257  16.871 -0.5459 -0.2552 -0.1744
   7223SM   H2F 9451   6.044   3.287  16.890  0.2214  2.3045  0.4062
   7223SM   H2G 9452   6.166   3.147  16.874  0.0829 -0.2172 -1.5567
   7223SM   C3F 9453   6.185   3.302  16.725 -0.5973 -0.1189 -0.6535
   7223SM   H3F 9454   6.292   3.276  16.706  0.0520  0.3685  1.9524
   7223SM   H3G 9455   6.173   3.412  16.714  0.1464  0.0379  0.0212
   7223SM   C4F 9456   6.108   3.227  16.608 -0.2956 -0.7895 -0.3453
   7223SM   H4F 9457   6.003   3.261  16.619 -0.2102 -1.0240  1.6147
   7223SM   H4G 9458   6.113   3.121  16.642  2.5795 -0.6355 -0.0800
   7223SM   C5F 9459   6.175   3.271  16.479  0.3455 -0.3686 -0.2027
   7223SM   H5F 9460   6.281   3.237  16.481  1.0217  1.6584  1.6255
   7223SM   H5G 9461   6.182   3.381  16.470 -0.4429 -0.3421 -0.6423
   7223SM   C6F 9462   6.095   3.216  16.358  0.0420  0.0409 -0.3017
   7223SM   H6F 9463   5.989   3.250  16.361  0.6671  2.0859  0.7098
   7223SM   H6G 9464   6.105   3.106  16.361 -2.0267 -0.1538  0.8308
   7223SM   C7F 9465   6.148   3.251  16.216  0.2841 -0.3263  0.3514
   7223SM   H7F 9466   6.250   3.208  16.211  1.6263  2.6419 -0.1524
   7223SM   H7G 9467   6.172   3.360  16.213 -1.2391  0.0426  0.4937
   7223SM   C8F 9468   6.054   3.218  16.097  0.5334 -0.3973 -0.4698
   7223SM   H8F 9469   5.955   3.267  16.104  0.4884 -0.2549 -1.7977
   7223SM   H8G 9470   6.030   3.110  16.107  0.1267 -0.4882 -2.1070
   7223SM   C9F 9471   6.117   3.244  15.953 -0.0363  0.0510 -0.0683
   7223SM   H9F 9472   6.223   3.210  15.961 -0.2720 -0.6640  0.1443
   7223SM   H9G 9473   6.096   3.348  15.920  1.5087 -0.2768 -2.2606
   7223SM  C10F 9474   6.049   3.156  15.845 -0.0853 -0.5402 -0.5532
   7223SM  H10F 9475   5.941   3.183  15.838  0.3964  2.0141  0.8716
   7223SM  H10G 9476   6.064   3.048  15.869  0.4824 -0.3705 -0.1494
   7223SM  C11F 9477   6.106   3.190  15.705 -0.2683 -0.6480 -0.4163
   7223SM  H11F 9478   6.123   3.300  15.699 -3.7449 -0.0970 -2.9935
   7223SM  H11G 9479   6.024   3.170  15.633 -0.9163  0.3357  0.0231
   7223SM  C12F 9480   6.235   3.113  15.676  0.0513 -0.0318 -0.6658
   7223SM  H12F 9481   6.224   3.007  15.645 -0.2369  0.4789 -2.4311
   7223SM  H12G 9482   6.291   3.118  15.771 -2.1239  0.5481  0.6511
   7223SM  C13F 9483   6.299   3.156  15.543 -0.7260  0.3463  0.7035
   7223SM  H13F 9484   6.324   3.264  15.545  1.2657 -0.0765  0.6635
   7223SM  H13G 9485   6.224   3.128  15.465 -1.0121 -0.5469  1.2817
   7223SM  C14F 9486   6.436   3.088  15.520  0.4570  0.6561  0.9304
   7223SM  H14F 9487   6.414   2.987  15.480  0.1432  1.1670 -0.2565
   7223SM  H14G 9488   6.485   3.074  15.619  0.4544  1.3555  1.0336
   7223SM  C15F 9489   6.529   3.154  15.412  0.4162  0.1124  0.5021
   7223SM  H15F 9490   6.597   3.221  15.468 -0.2502 -0.3257  1.8755
   7223SM  H15G 9491   6.481   3.216  15.334 -2.1097 -0.0168  1.8546
   7223SM  C16F 9492   6.623   3.052  15.335 -0.5888 -0.1319  0.4619
   7223SM  H16F 9493   6.670   2.982  15.407  0.9392  1.1369  0.7641
   7223SM  H16G 9494   6.708   3.105  15.286  0.5237 -1.5686  0.7731
   7223SM  C17F 9495   6.566   2.985  15.209 -0.2093 -0.4208 -0.4110
   7223SM  H17F 9496   6.495   3.056  15.160  2.2864  2.0942 -0.6551
   7223SM  H17G 9497   6.504   2.902  15.249  0.9618 -0.5503  1.2155
   7223SM  C18F 9498   6.672   2.929  15.116  0.2477 -0.4912 -0.6211
   7223SM  H18F 9499   6.744   2.867  15.173  0.3686  1.3334  1.3251
   7223SM  H18G 9500   6.724   3.012  15.063  1.9052  0.3818  2.1728
   7223SM  C19F 9501   6.615   2.844  15.002 -0.2478  0.1284  0.2174
   7223SM  H19F 9502   6.531   2.897  14.953  1.2116  2.2633 -0.1421
   7223SM  H19G 9503   6.557   2.758  15.041  0.7056  0.0182  1.4337
   7223SM  C20F 9504   6.723   2.789  14.902  0.2544 -0.0868  0.2509
   7223SM  H20F 9505   6.785   2.873  14.865 -0.3161 -0.6629 -2.1666
   7223SM  H20G 9506   6.666   2.759  14.812 -1.0407  1.3823  0.5541
   7223SM  C21F 9507   6.811   2.676  14.958 -0.1506  0.4370  0.5581
   7223SM  H21F 9508   6.776   2.572  14.940 -0.9301  0.6023  1.0980
   7223SM  H21G 9509   6.830   2.695  15.066  2.6030 -0.8744  0.3753
   7223SM  C22F 9510   6.952   2.683  14.893 -0.9361 -0.5201  0.6499
   7223SM  H22F 9511   7.029   2.611  14.927 -0.5488  0.0509  1.0007
   7223SM  H22G 9512   7.005   2.779  14.908 -1.2383 -0.3551  0.6812
   7223SM  C23F 9513   6.938   2.665  14.741 -0.4779 -0.4267 -0.3543
   7223SM  H23F 9514   6.870   2.738  14.692 -2.1088 -0.9473  1.0097
   7223SM  H23G 9515   6.886   2.569  14.723 -2.2931  0.7277 -1.5625
   7223SM  H23H 9516   7.041   2.668  14.700  0.3883  1.5761  1.7454
   7323SM     N 9517   5.522   1.451  17.428 -0.2169  0.2162 -0.2853
   7323SM   C15 9518   5.583   1.424  17.288  0.2987  0.3571  0.3070
   7323SM  H15A 9519   5.505   1.409  17.215 -0.6175  1.0854  1.1102
   7323SM  H15B 9520   5.636   1.331  17.278 -1.5673 -0.4595 -3.8340
   7323SM  H15C 9521   5.649   1.505  17.258 -0.5801  0.6228 -0.9983
   7323SM   C14 9522   5.468   1.589  17.412  0.0906  0.2726  0.5110
   7323SM  H14A 9523   5.417   1.625  17.500 -1.3941  0.7875 -0.5344
   7323SM  H14B 9524   5.404   1.597  17.325  2.0391 -1.6268 -1.2053
   7323SM  H14C 9525   5.535   1.672  17.392 -2.3258  1.5014 -3.7626
   7323SM   C13 9526   5.417   1.342  17.455 -0.4148  0.4708 -0.1524
   7323SM  H13A 9527   5.476   1.253  17.471  2.1521  2.3556  1.8391
   7323SM  H13B 9528   5.353   1.336  17.369 -1.2828 -2.8255  0.6088
   7323SM  H13C 9529   5.359   1.372  17.541 -0.1372  0.1689  0.1448
   7323SM   C12 9530   5.631   1.448  17.537  0.1638 -0.2920 -0.1858
   7323SM  H12A 9531   5.587   1.452  17.635 -0.1871  0.7728 -0.3709
   7323SM  H12B 9532   5.688   1.539  17.526  0.0232  0.0479  1.6417
   7323SM   C11 9533   5.724   1.324  17.543  0.0410 -0.3386  0.3450
   7323SM  H11A 9534   5.800   1.334  17.624 -2.1436 -1.9050  2.7628
   7323SM  H11B 9535   5.778   1.307  17.448 -0.6655 -0.1622 -0.0980
   7323SM     P 9536   5.663   1.070  17.510  0.1463  0.0804  0.4432
   7323SM   O13 9537   5.805   1.020  17.515 -0.0096  0.1350 -0.0831
   7323SM   O14 9538   5.557   0.984  17.563  0.4269  0.3899  0.2106
   7323SM   O11 9539   5.635   1.110  17.361 -0.1638  0.1984 -0.2355
   7323SM   O12 9540   5.651   1.211  17.579  0.1033  0.0590 -0.2514
   7323SM   C1S 9541   5.596   1.013  17.259 -0.2297 -0.2826 -0.2000
   7323SM   H1S 9542   5.489   0.985  17.270 -0.5854 -0.1084 -2.6552
   7323SM   H1T 9543   5.645   0.914  17.262 -0.9977 -0.6507  0.4966
   7323SM    NF 9544   5.545   0.981  17.019 -0.3921 -0.4319 -0.2081
   7323SM   HNF 9545   5.612   0.931  16.963 -1.7477 -0.4607 -1.8998
   7323SM   C2S 9546   5.606   1.076  17.115  0.8052  0.0247 -0.4781
   7323SM   H2S 9547   5.550   1.171  17.106 -0.5356 -0.7496 -0.7166
   7323SM   C3S 9548   5.758   1.105  17.088 -0.0658  0.0239  0.3741
   7323SM   H3S 9549   5.823   1.015  17.094  0.1286  0.1151 -0.3106
   7323SM    O3 9550   5.816   1.189  17.193 -0.1706  0.7377 -0.2565
   7323SM   HO3 9551   5.762   1.163  17.268  0.2350 -2.1659 -0.8430
   7323SM   C4S 9552   5.766   1.192  16.964 -0.1751  0.0687  0.9881
   7323SM   H4S 9553   5.732   1.296  16.969  0.5038  0.5499 -2.2009
   7323SM   C5S 9554   5.819   1.150  16.844  0.2150  0.7221 -0.3896
   7323SM   H5S 9555   5.859   1.048  16.846  2.1095  1.4407  0.2885
   7323SM   C6S 9556   5.830   1.235  16.716 -0.0022  0.0466  0.0650
   7323SM   H6S 9557   5.939   1.245  16.699 -0.2070 -0.5659 -1.9359
   7323SM   H6T 9558   5.794   1.338  16.735 -0.2713  0.0718 -0.5557
   7323SM   C7S 9559   5.758   1.189  16.586  0.1520 -0.5057  0.1636
   7323SM   H7S 9560   5.656   1.175  16.628 -0.1221 -0.4914 -0.4826
   7323SM   H7T 9561   5.797   1.093  16.546  0.9014  0.5455 -1.8064
   7323SM   C8S 9562   5.754   1.285  16.468 -0.1896 -0.0277  0.2513
   7323SM   H8S 9563   5.760   1.390  16.502 -0.0488 -0.6657  2.3910
   7323SM   H8T 9564   5.656   1.274  16.418 -0.7257 -0.2914  1.3220
   7323SM   C9S 9565   5.879   1.260  16.372  0.3086 -0.2983  0.4616
   7323SM   H9S 9566   5.867   1.162  16.321  1.2929  0.6487 -1.7298
   7323SM   H9T 9567   5.975   1.256  16.427  0.0849 -3.5957  0.8158
   7323SM  C10S 9568   5.889   1.369  16.275 -0.2654 -0.6339  0.4542
   7323SM  H10S 9569   5.965   1.340  16.198  0.3902  2.6078 -0.2849
   7323SM  H10T 9570   5.921   1.467  16.317  1.0499 -1.2516  0.9346
   7323SM  C11S 9571   5.752   1.404  16.207  0.1621  0.9810  0.5782
   7323SM  H11S 9572   5.666   1.433  16.270 -0.6087 -1.8602  0.9810
   7323SM  H11T 9573   5.720   1.306  16.164 -0.0541  0.3873  2.0345
   7323SM  C12S 9574   5.783   1.485  16.088  0.6258 -0.7627  0.3460
   7323SM  H12S 9575   5.851   1.438  16.014  0.8789 -0.9814  0.7094
   7323SM  H12T 9576   5.828   1.578  16.128 -0.6042 -0.4315  1.0066
   7323SM  C13S 9577   5.663   1.534  16.017  0.1371 -0.4896  0.3466
   7323SM  H13S 9578   5.597   1.572  16.098  0.7848 -0.3283  0.8069
   7323SM  H13T 9579   5.620   1.440  15.977  2.2141 -1.2609 -0.2014
   7323SM  C14S 9580   5.703   1.632  15.915 -0.6864  0.6978 -0.0101
   7323SM  H14S 9581   5.782   1.588  15.850 -1.1884 -1.1207  0.5711
   7323SM  H14T 9582   5.754   1.721  15.957  0.2494  0.8973 -1.4628
   7323SM  C15S 9583   5.598   1.688  15.821 -0.0786 -0.4982  0.7345
   7323SM  H15S 9584   5.500   1.708  15.870 -0.2180  1.1833 -0.1683
   7323SM  H15T 9585   5.563   1.617  15.743 -0.0603  0.2354  0.0437
   7323SM  C16S 9586   5.657   1.812  15.756 -0.2386 -0.0075 -0.2980
   7323SM  H16S 9587   5.673   1.892  15.832 -1.5309 -0.0871  0.0831
   7323SM  H16T 9588   5.579   1.852  15.689 -1.9679 -1.5875  0.6869
   7323SM  C17S 9589   5.782   1.802  15.674 -0.2918  0.5619 -0.3249
   7323SM  H17S 9590   5.869   1.783  15.741 -2.2583 -0.5410  2.0608
   7323SM  H17T 9591   5.794   1.908  15.641 -1.0743  1.1593  1.1724
   7323SM  C18S 9592   5.787   1.698  15.565  0.2307 -1.1613 -0.6198
   7323SM  H18S 9593   5.888   1.701  15.519  0.9317  2.0299  0.8552
   7323SM  H18T 9594   5.702   1.715  15.495 -0.0606 -2.0932 -0.5030
   7323SM  H18U 9595   5.775   1.597  15.610 -0.2529 -0.1321  1.7318
   7323SM   C1F 9596   5.417   0.951  17.009  0.2541 -0.6094  0.7139
   7323SM    OF 9597   5.335   1.027  17.062  0.2116 -0.7112  0.9128
   7323SM   C2F 9598   5.378   0.825  16.936  0.1239 -0.3621  0.2521
   7323SM   H2F 9599   5.268   0.817  16.924  0.2312  0.5710 -1.8635
   7323SM   H2G 9600   5.414   0.748  17.007 -0.6003 -1.0589 -0.1293
   7323SM   C3F 9601   5.453   0.797  16.804  0.1753  0.0987  0.1843
   7323SM   H3F 9602   5.411   0.703  16.763 -0.2296  0.9210 -1.3863
   7323SM   H3G 9603   5.562   0.779  16.812 -0.1413 -3.1452 -1.3614
   7323SM   C4F 9604   5.423   0.907  16.697  0.2065  0.4563  0.1249
   7323SM   H4F 9605   5.454   1.008  16.733  0.4595  0.3272  0.2739
   7323SM   H4G 9606   5.315   0.917  16.673  0.2765  1.5800  0.2188
   7323SM   C5F 9607   5.510   0.876  16.569  0.3194 -0.3171 -0.3528
   7323SM   H5F 9608   5.502   0.768  16.542  2.3088  0.0012 -2.4613
   7323SM   H5G 9609   5.620   0.885  16.581  0.3393  1.9060 -1.6930
   7323SM   C6F 9610   5.468   0.967  16.447 -0.6362 -1.1347  0.5979
   7323SM   H6F 9611   5.448   1.070  16.484  0.1172 -0.4197 -0.9076
   7323SM   H6G 9612   5.372   0.925  16.410 -0.1232 -0.8520 -1.1009
   7323SM   C7F 9613   5.561   0.955  16.328  0.4845  0.3688 -0.7921
   7323SM   H7F 9614   5.578   0.849  16.302 -0.2353  0.3522 -1.2020
   7323SM   H7G 9615   5.658   1.002  16.358 -0.3223 -0.5493  4.1654
   7323SM   C8F 9616   5.508   1.017  16.196 -0.3695  0.5595  0.1484
   7323SM   H8F 9617   5.498   1.128  16.206 -1.9192  0.8827 -3.2827
   7323SM   H8G 9618   5.406   0.976  16.179 -0.2001 -0.0883  0.6923
   7323SM   C9F 9619   5.593   0.997  16.071  0.4512 -0.4871  0.5045
   7323SM   H9F 9620   5.574   0.895  16.030 -1.2012 -2.0214  4.5494
   7323SM   H9G 9621   5.699   0.994  16.104 -0.1474 -2.6985  2.5692
   7323SM  C10F 9622   5.573   1.103  15.962  0.0270 -0.0804  0.0484
   7323SM  H10F 9623   5.583   1.198  16.019 -2.9371 -0.4288  1.3306
   7323SM  H10G 9624   5.473   1.101  15.914 -0.0974 -0.3947  0.3101
   7323SM  C11F 9625   5.679   1.095  15.846  0.0278  0.3814 -0.6986
   7323SM  H11F 9626   5.695   0.989  15.819 -2.1077 -0.5925  1.4765
   7323SM  H11G 9627   5.779   1.125  15.884  0.0985 -0.3668 -0.2844
   7323SM  C12F 9628   5.636   1.186  15.720 -0.4519 -0.3368  0.1139
   7323SM  H12F 9629   5.652   1.294  15.740 -1.2044 -0.1848 -0.0910
   7323SM  H12G 9630   5.528   1.166  15.705 -1.1090  2.4454  0.5685
   7323SM  C13F 9631   5.711   1.148  15.589  0.3155 -0.3061 -0.5398
   7323SM  H13F 9632   5.654   1.189  15.504  1.7851  2.5009 -0.2931
   7323SM  H13G 9633   5.711   1.037  15.578  1.1714 -0.3350 -0.3353
   7323SM  C14F 9634   5.858   1.197  15.572  0.1480 -0.4989  0.4793
   7323SM  H14F 9635   5.910   1.117  15.515  1.6407  0.1242  0.9156
   7323SM  H14G 9636   5.914   1.200  15.667  2.4895  2.8168 -0.8140
   7323SM  C15F 9637   5.866   1.334  15.510 -0.3566 -0.0952  0.6291
   7323SM  H15F 9638   5.958   1.386  15.543  0.1864  1.5201 -2.9135
   7323SM  H15G 9639   5.778   1.391  15.545  1.2794  0.9028  3.3905
   7323SM  C16F 9640   5.871   1.330  15.353  0.3386 -0.3198 -0.4453
   7323SM  H16F 9641   5.780   1.287  15.306  0.5777 -1.5303  0.1627
   7323SM  H16G 9642   5.955   1.264  15.324 -1.2144 -2.3749 -0.4408
   7323SM  C17F 9643   5.889   1.473  15.295  0.2153 -0.1138  0.0422
   7323SM  H17F 9644   5.981   1.525  15.328 -0.3540 -0.1253  1.7219
   7323SM  H17G 9645   5.806   1.536  15.333  1.1375  0.6303  0.8826
   7323SM  C18F 9646   5.888   1.473  15.141  0.1358 -0.3703 -0.6191
   7323SM  H18F 9647   5.840   1.569  15.112  1.5259  0.6849  0.4782
   7323SM  H18G 9648   5.835   1.389  15.091 -0.7739 -0.5791  0.6290
   7323SM  C19F 9649   6.029   1.482  15.089 -0.3062 -0.1927  0.2987
   7323SM  H19F 9650   6.082   1.395  15.135 -0.0485  1.3598  3.2148
   7323SM  H19G 9651   6.085   1.569  15.132 -0.3946 -0.0667  0.1568
   7323SM  C20F 9652   6.033   1.488  14.936 -0.4420 -0.8641 -0.3663
   7323SM  H20F 9653   5.998   1.589  14.907  0.3994 -0.7045 -0.8590
   7323SM  H20G 9654   5.965   1.409  14.899  0.0491 -0.8208 -1.3861
   7323SM  C21F 9655   6.172   1.461  14.874  0.3347 -0.4190 -0.3142
   7323SM  H21F 9656   6.202   1.355  14.885 -0.2418 -0.3936  2.0898
   7323SM  H21G 9657   6.237   1.540  14.918 -0.6802  0.0893  0.3080
   7323SM  C22F 9658   6.160   1.474  14.723  0.4032 -0.1573 -0.1190
   7323SM  H22F 9659   6.064   1.428  14.692  0.2245  0.5744 -0.6819
   7323SM  H22G 9660   6.241   1.411  14.681  0.9702  0.7457 -0.4034
   7323SM  C23F 9661   6.190   1.619  14.682 -0.4994 -0.4743 -0.8579
   7323SM  H23F 9662   6.159   1.635  14.576 -1.4856 -2.9476 -1.0307
   7323SM  H23G 9663   6.294   1.650  14.707 -0.0879 -2.5619  0.3032
   7323SM  H23H 9664   6.120   1.679  14.744  0.2737  0.0067 -0.4332
   7423SM     N 9665   1.082   5.213  17.464 -0.1166  0.5223  1.1387
   7423SM   C15 9666   0.973   5.123  17.403  0.0529 -0.0264 -0.5898
   7423SM  H15A 9667   1.006   5.020  17.395  1.7482  0.4949 -0.5143
   7423SM  H15B 9668   0.950   5.161  17.305 -2.9857  0.9129  0.3665
   7423SM  H15C 9669   0.884   5.128  17.464  0.8171  1.0036  0.4803
   7423SM   C14 9670   1.029   5.354  17.464  0.1358  0.2902  0.3617
   7423SM  H14A 9671   1.080   5.409  17.543  0.3364  0.7018 -0.0500
   7423SM  H14B 9672   0.924   5.349  17.491 -0.2164  1.5819 -0.6318
   7423SM  H14C 9673   1.034   5.407  17.370 -0.7033  0.2063  0.2641
   7423SM   C13 9674   1.099   5.161  17.598 -0.2582  0.9036  0.4560
   7423SM  H13A 9675   1.176   5.216  17.650 -0.4532  1.6587 -0.0367
   7423SM  H13B 9676   1.123   5.056  17.605  1.0944  1.1261 -0.3472
   7423SM  H13C 9677   1.005   5.180  17.647 -0.0486 -0.8008  1.5830
   7423SM   C12 9678   1.203   5.201  17.375  0.2142  0.0935  0.0508
   7423SM  H12A 9679   1.283   5.254  17.423  2.2538 -2.9867  0.3531
   7423SM  H12B 9680   1.180   5.254  17.284 -0.7554 -0.0109  0.2197
   7423SM   C11 9681   1.255   5.058  17.345  0.0257 -1.0574  0.8051
   7423SM  H11A 9682   1.351   5.059  17.288 -1.7105 -0.0497 -2.3397
   7423SM  H11B 9683   1.184   5.010  17.275  0.7145  1.9087 -2.2095
   7423SM     P 9684   1.226   4.833  17.477  0.0038 -0.2910 -0.0824
   7423SM   O13 9685   1.251   4.793  17.618  0.0869 -0.3207  0.2459
   7423SM   O14 9686   1.088   4.837  17.437  0.5026  0.1876  0.4156
   7423SM   O11 9687   1.321   4.749  17.376  0.2886 -0.4984  0.3067
   7423SM   O12 9688   1.279   4.982  17.460 -0.1309  0.3481  0.6789
   7423SM   C1S 9689   1.267   4.683  17.258  0.2545 -0.4305  0.0120
   7423SM   H1S 9690   1.156   4.686  17.250  0.1565  0.4805  1.5213
   7423SM   H1T 9691   1.291   4.574  17.262 -2.1836 -1.0759 -0.7933
   7423SM    NF 9692   1.249   4.673  17.008 -0.9618 -0.8910  0.2819
   7423SM   HNF 9693   1.305   4.601  16.970  0.5527 -1.3013  2.9977
   7423SM   C2S 9694   1.316   4.749  17.123 -0.6599  0.6573 -0.3540
   7423SM   H2S 9695   1.281   4.855  17.123 -0.4020  0.7424 -0.6272
   7423SM   C3S 9696   1.475   4.742  17.112 -0.7851 -0.1826  0.5012
   7423SM   H3S 9697   1.508   4.639  17.134  1.2832  0.5023  0.8283
   7423SM    O3 9698   1.533   4.829  17.212 -0.1798 -0.3400 -0.1202
   7423SM   HO3 9699   1.473   4.848  17.284 -0.1335 -0.8140  0.0433
   7423SM   C4S 9700   1.514   4.780  16.969  0.8717 -0.4764  0.5326
   7423SM   H4S 9701   1.495   4.885  16.940  2.3003  0.1533  1.7226
   7423SM   C5S 9702   1.582   4.705  16.882 -0.0275 -0.4456 -0.8425
   7423SM   H5S 9703   1.635   4.615  16.915 -0.0182 -0.6801 -1.4974
   7423SM   C6S 9704   1.609   4.750  16.742 -0.1375  0.2800 -0.1145
   7423SM   H6S 9705   1.718   4.759  16.722 -0.7106  0.4987 -3.8375
   7423SM   H6T 9706   1.559   4.844  16.710 -0.7052  0.5880  1.5941
   7423SM   C7S 9707   1.564   4.643  16.641 -0.1978  0.2683  0.3177
   7423SM   H7S 9708   1.456   4.616  16.634  0.3758 -2.5750  0.8737
   7423SM   H7T 9709   1.619   4.547  16.654  2.6579  1.6652 -0.6284
   7423SM   C8S 9710   1.602   4.694  16.502  0.3760 -0.7078 -0.4540
   7423SM   H8S 9711   1.710   4.716  16.500 -0.0773  1.7132 -2.0771
   7423SM   H8T 9712   1.557   4.795  16.496  3.1971  0.6598 -0.2166
   7423SM   C9S 9713   1.561   4.605  16.385 -0.6374  0.2268 -0.7263
   7423SM   H9S 9714   1.451   4.596  16.373 -0.7819  0.3535  0.3894
   7423SM   H9T 9715   1.579   4.498  16.408 -1.6531 -0.0575 -1.2028
   7423SM  C10S 9716   1.627   4.654  16.256  0.6487 -0.1571  0.3987
   7423SM  H10S 9717   1.610   4.763  16.240  2.0168  0.0120 -0.0558
   7423SM  H10T 9718   1.584   4.604  16.166  0.2581 -3.1208  2.1061
   7423SM  C11S 9719   1.776   4.618  16.245 -0.7063  0.3419 -0.0479
   7423SM  H11S 9720   1.797   4.524  16.301  1.6934  1.3906  0.9349
   7423SM  H11T 9721   1.843   4.693  16.291 -0.7372  1.3252 -1.5510
   7423SM  C12S 9722   1.832   4.599  16.099 -0.8727 -0.3736 -0.5895
   7423SM  H12S 9723   1.770   4.667  16.036 -0.9398  0.9021  0.8058
   7423SM  H12T 9724   1.807   4.493  16.074  1.6246 -1.4388  1.0297
   7423SM  C13S 9725   1.974   4.637  16.081  0.0936  0.7144 -0.0246
   7423SM  H13S 9726   2.004   4.712  16.157 -0.0559  1.2188 -0.4524
   7423SM  H13T 9727   1.984   4.704  15.993  0.1758  0.9869  0.1906
   7423SM  C14S 9728   2.073   4.523  16.081 -0.3920  0.0040 -0.0527
   7423SM  H14S 9729   2.044   4.438  16.015 -0.5181 -0.9326  1.1772
   7423SM  H14T 9730   2.086   4.475  16.180  0.5304 -0.8815 -0.5830
   7423SM  C15S 9731   2.208   4.574  16.038  0.3027  0.2039  0.0527
   7423SM  H15S 9732   2.210   4.612  15.933  0.2729 -1.8118 -0.7086
   7423SM  H15T 9733   2.272   4.484  16.032 -1.3066 -1.1851  2.1978
   7423SM  C16S 9734   2.289   4.661  16.135  0.4501  0.4791 -0.1651
   7423SM  H16S 9735   2.286   4.611  16.234 -3.4096 -0.2361 -0.4609
   7423SM  H16T 9736   2.237   4.759  16.144  1.5576  0.9206  2.0216
   7423SM  C17S 9737   2.430   4.685  16.100 -0.2353  0.6672  0.6538
   7423SM  H17S 9738   2.461   4.715  15.998  1.1615 -0.5552  0.6948
   7423SM  H17T 9739   2.487   4.589  16.096 -2.6938 -0.8334 -1.2607
   7423SM  C18S 9740   2.509   4.761  16.206 -0.2364  0.1631  0.5545
   7423SM  H18S 9741   2.493   4.721  16.308  1.2175 -1.3251  0.2421
   7423SM  H18T 9742   2.467   4.864  16.196 -1.0442 -0.3674 -5.1125
   7423SM  H18U 9743   2.617   4.759  16.183 -0.0149  0.5334  1.5142
   7423SM   C1F 9744   1.122   4.683  16.977 -0.4261  1.1560 -0.6187
   7423SM    OF 9745   1.061   4.783  17.013 -0.1824  0.2686 -0.3637
   7423SM   C2F 9746   1.058   4.555  16.923 -0.0199  0.1534  0.2767
   7423SM   H2F 9747   1.101   4.469  16.978 -0.0600  1.0735  1.8044
   7423SM   H2G 9748   1.097   4.546  16.819  0.0828 -0.6465  0.3840
   7423SM   C3F 9749   0.907   4.580  16.918  0.3531 -0.3448 -0.2237
   7423SM   H3F 9750   0.884   4.666  16.852 -1.2859 -0.0594  0.6732
   7423SM   H3G 9751   0.879   4.603  17.023  2.3423  0.1703  0.2395
   7423SM   C4F 9752   0.828   4.454  16.866 -0.2648  0.3171 -0.4055
   7423SM   H4F 9753   0.723   4.466  16.899  0.3045  3.8945  0.4927
   7423SM   H4G 9754   0.861   4.364  16.922  0.3923  1.2522  0.7345
   7423SM   C5F 9755   0.839   4.444  16.716  0.3787 -0.1086  0.1415
   7423SM   H5F 9756   0.806   4.345  16.676 -0.5505 -0.0913  0.8598
   7423SM   H5G 9757   0.942   4.462  16.677  0.0033 -1.9719 -1.9174
   7423SM   C6F 9758   0.755   4.552  16.647  0.1680  0.1982 -0.2798
   7423SM   H6F 9759   0.819   4.639  16.617 -0.6285  0.2132 -2.0626
   7423SM   H6G 9760   0.669   4.581  16.710 -1.3628 -2.9519 -0.7685
   7423SM   C7F 9761   0.691   4.500  16.514  0.4043 -0.5978 -0.0463
   7423SM   H7F 9762   0.638   4.584  16.465 -2.1635 -0.8959  1.9769
   7423SM   H7G 9763   0.618   4.416  16.525 -0.7694  0.3079 -0.7717
   7423SM   C8F 9764   0.788   4.453  16.402 -0.3178 -0.4686  0.0025
   7423SM   H8F 9765   0.773   4.345  16.380  0.5900 -0.3990 -1.0218
   7423SM   H8G 9766   0.893   4.458  16.437 -0.3728 -1.2229  0.3008
   7423SM   C9F 9767   0.767   4.537  16.280 -0.3478  0.3790 -0.1176
   7423SM   H9F 9768   0.796   4.642  16.299 -1.2769  0.2614  2.4343
   7423SM   H9G 9769   0.658   4.537  16.255  0.1898 -0.6170 -2.7867
   7423SM  C10F 9770   0.838   4.489  16.153  0.2632  0.1592  0.1062
   7423SM  H10F 9771   0.843   4.378  16.152 -0.4859  0.0419  2.5030
   7423SM  H10G 9772   0.940   4.531  16.158  0.5315 -0.3426 -0.9628
   7423SM  C11F 9773   0.780   4.539  16.015 -0.2973 -0.3026 -0.1708
   7423SM  H11F 9774   0.760   4.647  16.032  0.1159 -0.3663  0.7651
   7423SM  H11G 9775   0.682   4.492  15.995 -1.4598  1.1352  1.7447
   7423SM  C12F 9776   0.881   4.528  15.901 -0.9169 -0.5523  0.6912
   7423SM  H12F 9777   0.910   4.421  15.890 -0.8105 -0.4373 -0.2199
   7423SM  H12G 9778   0.973   4.582  15.930  0.0373 -1.8247  0.0990
   7423SM  C13F 9779   0.824   4.585  15.761 -0.6969  0.1146  0.1971
   7423SM  H13F 9780   0.788   4.687  15.786  1.1454  1.4606 -2.2224
   7423SM  H13G 9781   0.741   4.521  15.724  0.2537  0.2283 -2.3433
   7423SM  C14F 9782   0.933   4.585  15.654 -0.1727 -0.0771  0.6313
   7423SM  H14F 9783   0.978   4.483  15.656 -1.9533 -0.8927  0.7860
   7423SM  H14G 9784   1.007   4.666  15.669 -0.6628  0.1368  2.0174
   7423SM  C15F 9785   0.889   4.629  15.511  0.1730  0.6404 -0.0660
   7423SM  H15F 9786   0.979   4.598  15.453 -0.8073  0.3005 -1.4421
   7423SM  H15G 9787   0.888   4.740  15.500 -0.6494  0.6031 -0.4217
   7423SM  C16F 9788   0.771   4.557  15.450 -0.2818  0.2370  0.2281
   7423SM  H16F 9789   0.676   4.593  15.493 -0.8836  0.0116 -0.8851
   7423SM  H16G 9790   0.779   4.452  15.486 -0.0694 -0.4750 -1.8053
   7423SM  C17F 9791   0.780   4.539  15.300  0.3746 -0.1709  0.3479
   7423SM  H17F 9792   0.850   4.455  15.279  1.9669  1.6359 -2.3239
   7423SM  H17G 9793   0.821   4.629  15.249 -2.2558  0.0787 -1.5457
   7423SM  C18F 9794   0.638   4.495  15.248  0.1481 -0.1428  0.1151
   7423SM  H18F 9795   0.566   4.573  15.281  0.5936  0.9165 -1.3038
   7423SM  H18G 9796   0.625   4.397  15.297  0.2187  0.1496  0.7304
   7423SM  C19F 9797   0.634   4.464  15.097  0.1727  0.2926  0.4996
   7423SM  H19F 9798   0.722   4.398  15.082 -0.1636 -1.0083  3.4283
   7423SM  H19G 9799   0.655   4.556  15.039 -1.2416  1.1332  1.2651
   7423SM  C20F 9800   0.515   4.387  15.046  0.2557  0.7767  0.1989
   7423SM  H20F 9801   0.420   4.442  15.065 -2.2357 -2.0817 -2.6779
   7423SM  H20G 9802   0.515   4.286  15.092  0.3349  0.5922 -0.2030
   7423SM  C21F 9803   0.514   4.359  14.898  0.0151 -0.5249 -0.2020
   7423SM  H21F 9804   0.608   4.309  14.866 -0.3560 -1.9831  0.8820
   7423SM  H21G 9805   0.510   4.462  14.856  1.1677 -0.8255 -1.0796
   7423SM  C22F 9806   0.388   4.293  14.846  0.5500  0.0722  0.6675
   7423SM  H22F 9807   0.293   4.343  14.877 -0.5395 -0.9533 -0.8675
   7423SM  H22G 9808   0.382   4.191  14.888  2.8838  0.5896  2.4437
   7423SM  C23F 9809   0.392   4.298  14.692 -0.5765 -0.8452  0.2620
   7423SM  H23F 9810   0.364   4.400  14.657  0.6760 -0.3067  0.7776
   7423SM  H23G 9811   0.312   4.235  14.647 -0.1838 -0.2439 -1.3698
   7423SM  H23H 9812   0.485   4.266  14.639  0.5081  1.5473  0.6033
   7523SM     N 9813   6.111   6.546  17.263 -0.1921 -0.2307  0.3631
   7523SM   C15 9814   5.969   6.504  17.265  0.1865 -0.1501 -0.5529
   7523SM  H15A 9815   5.951   6.401  17.293  1.6728 -0.7827 -1.7718
   7523SM  H15B 9816   5.935   6.508  17.163  0.6651  0.0031 -0.7119
   7523SM  H15C 9817   5.903   6.566  17.323 -0.6192 -0.7131 -0.8534
   7523SM   C14 9818   6.177   6.451  17.168  0.7678 -0.1692 -0.0334
   7523SM  H14A 9819   6.183   6.354  17.216  0.3757 -0.0818  0.1938
   7523SM  H14B 9820   6.273   6.490  17.138 -0.4772  1.5083 -2.1500
   7523SM  H14C 9821   6.119   6.444  17.077 -0.6968  0.4136  0.8268
   7523SM   C13 9822   6.118   6.681  17.212 -0.0186 -0.3307  0.0666
   7523SM  H13A 9823   6.221   6.705  17.187 -0.2817  0.1636 -0.5525
   7523SM  H13B 9824   6.090   6.753  17.287  2.7441 -0.2460  1.1527
   7523SM  H13C 9825   6.066   6.681  17.118  0.6337 -2.0302 -0.3374
   7523SM   C12 9826   6.170   6.545  17.401 -0.2092 -0.5988 -0.5554
   7523SM  H12A 9827   6.110   6.613  17.460 -0.0712 -1.8663  1.1105
   7523SM  H12B 9828   6.265   6.594  17.390 -0.5090 -0.0157 -0.6078
   7523SM   C11 9829   6.174   6.412  17.473  0.2396  0.3172  0.3659
   7523SM  H11A 9830   6.070   6.374  17.467 -1.2666  4.1640 -1.5913
   7523SM  H11B 9831   6.199   6.417  17.582 -3.6185 -0.5982  1.4329
   7523SM     P 9832   6.418   6.344  17.408  0.6381  0.1348 -0.0301
   7523SM   O13 9833   6.459   6.475  17.466 -0.1725 -0.2577 -0.0433
   7523SM   O14 9834   6.468   6.223  17.473 -0.1342  0.2037  0.3388
   7523SM   O11 9835   6.455   6.327  17.258 -0.5587 -0.0594  0.2760
   7523SM   O12 9836   6.265   6.335  17.399  0.1763  0.0279  0.2490
   7523SM   C1S 9837   6.422   6.215  17.174  0.1965  0.0918 -0.1242
   7523SM   H1S 9838   6.312   6.198  17.163  0.0152  0.3339  1.1541
   7523SM   H1T 9839   6.468   6.122  17.212 -0.0539 -0.0309 -0.1135
   7523SM    NF 9840   6.440   6.134  16.948  0.3564  0.2910  0.4327
   7523SM   HNF 9841   6.509   6.071  16.913 -0.1338  0.8011 -1.5584
   7523SM   C2S 9842   6.482   6.238  17.031  0.1698  0.4054  0.4184
   7523SM   H2S 9843   6.436   6.332  16.994 -0.1711 -0.7183 -2.2310
   7523SM   C3S 9844   6.638   6.250  17.029 -0.0418  0.4962 -0.0757
   7523SM   H3S 9845   6.683   6.149  17.038  1.3033  0.9961 -0.7670
   7523SM    O3 9846   6.697   6.327  17.134 -0.4330  0.0525 -0.3120
   7523SM   HO3 9847   6.623   6.350  17.190 -0.7825 -1.3705 -0.1525
   7523SM   C4S 9848   6.690   6.301  16.898  0.0498  0.3498  0.1980
   7523SM   H4S 9849   6.644   6.395  16.864 -2.2616 -0.5688  0.6564
   7523SM   C5S 9850   6.792   6.246  16.831  0.0103  0.4578 -0.2349
   7523SM   H5S 9851   6.840   6.154  16.869 -0.6624  1.0120  2.1088
   7523SM   C6S 9852   6.855   6.292  16.707  0.7473 -0.1997 -0.2336
   7523SM   H6S 9853   6.953   6.241  16.697  2.1303  2.3341 -0.4663
   7523SM   H6T 9854   6.870   6.402  16.711  0.7990 -0.2244  0.5047
   7523SM   C7S 9855   6.766   6.268  16.583 -0.6042 -0.1667  0.3016
   7523SM   H7S 9856   6.663   6.309  16.594 -0.9924 -0.8185 -0.7178
   7523SM   H7T 9857   6.760   6.161  16.553 -1.4325 -0.0899  0.1508
   7523SM   C8S 9858   6.832   6.342  16.462  0.1551  0.7665  0.2250
   7523SM   H8S 9859   6.942   6.325  16.460 -0.0688 -0.6807 -0.8109
   7523SM   H8T 9860   6.814   6.451  16.476 -2.4135  0.7027 -1.8481
   7523SM   C9S 9861   6.768   6.297  16.329  0.0322  0.3645  0.5586
   7523SM   H9S 9862   6.658   6.286  16.337  0.0863 -1.1586 -0.3519
   7523SM   H9T 9863   6.807   6.194  16.316 -2.6383 -0.6632  0.0292
   7523SM  C10S 9864   6.800   6.393  16.209 -0.3867  0.1302 -0.3362
   7523SM  H10S 9865   6.904   6.429  16.222 -0.8706  0.6974  2.7808
   7523SM  H10T 9866   6.743   6.488  16.225 -1.1328 -0.2427 -0.6903
   7523SM  C11S 9867   6.784   6.344  16.062  0.0541  0.9314 -0.7709
   7523SM  H11S 9868   6.694   6.279  16.055  0.3434  0.1924  1.6356
   7523SM  H11T 9869   6.875   6.285  16.035  0.9793  1.7744  0.4130
   7523SM  C12S 9870   6.749   6.450  15.956 -0.2891 -0.3379 -1.3646
   7523SM  H12S 9871   6.830   6.525  15.969  0.0451 -1.0302  0.8929
   7523SM  H12T 9872   6.652   6.488  15.995  0.5197 -0.3894  0.8079
   7523SM  C13S 9873   6.726   6.392  15.817  0.3081 -0.5612  0.4170
   7523SM  H13S 9874   6.628   6.339  15.819 -0.3987  0.6332 -1.2491
   7523SM  H13T 9875   6.811   6.329  15.786  1.2000  0.4878  0.6714
   7523SM  C14S 9876   6.703   6.496  15.705 -0.8216  0.2694  0.0421
   7523SM  H14S 9877   6.609   6.549  15.729 -1.6486 -1.1473  0.0052
   7523SM  H14T 9878   6.676   6.437  15.615 -0.8638 -0.8187  0.7569
   7523SM  C15S 9879   6.816   6.592  15.691  0.6351 -0.0330  0.4144
   7523SM  H15S 9880   6.910   6.544  15.657  1.8122  0.3346  2.9001
   7523SM  H15T 9881   6.828   6.645  15.788  0.7863  0.9326 -0.1169
   7523SM  C16S 9882   6.792   6.689  15.573 -0.0822 -0.2497  0.0260
   7523SM  H16S 9883   6.699   6.746  15.589 -0.1789 -0.2676 -0.4432
   7523SM  H16T 9884   6.770   6.621  15.488 -0.3945 -0.9587  0.6601
   7523SM  C17S 9885   6.906   6.789  15.544  0.0127 -0.0372  0.7752
   7523SM  H17S 9886   6.968   6.806  15.635  2.6328 -0.6126 -0.7799
   7523SM  H17T 9887   6.854   6.883  15.517  0.9926 -0.3724 -2.8921
   7523SM  C18S 9888   6.999   6.758  15.428 -0.3399  0.3077  0.4363
   7523SM  H18S 9889   7.081   6.832  15.418 -0.4984  0.1865 -3.7000
   7523SM  H18T 9890   6.939   6.770  15.335 -2.2024  0.8081  1.6393
   7523SM  H18U 9891   7.034   6.654  15.443  0.4012  0.7602  2.0358
   7523SM   C1F 9892   6.317   6.113  16.906 -0.4358 -0.0280  0.0568
   7523SM    OF 9893   6.227   6.184  16.944  0.1964 -0.5726  0.4388
   7523SM   C2F 9894   6.294   5.997  16.815  0.5604 -0.2236  0.1893
   7523SM   H2F 9895   6.311   5.900  16.868  0.8185 -0.3465 -0.1161
   7523SM   H2G 9896   6.378   5.991  16.743  0.7752  0.0550  0.4132
   7523SM   C3F 9897   6.152   6.010  16.747 -0.0299  0.5745  0.2512
   7523SM   H3F 9898   6.148   6.092  16.672  0.9944  0.7677  0.3958
   7523SM   H3G 9899   6.082   6.028  16.832 -1.2739  0.6630 -0.7700
   7523SM   C4F 9900   6.132   5.873  16.680  0.4397 -0.5854 -0.1788
   7523SM   H4F 9901   6.026   5.866  16.648 -0.1258 -0.1728  1.4828
   7523SM   H4G 9902   6.158   5.797  16.757  4.1074 -1.4713 -2.0408
   7523SM   C5F 9903   6.231   5.849  16.563 -1.1059  0.2923  0.5835
   7523SM   H5F 9904   6.333   5.834  16.607  0.3740  1.0951 -2.3431
   7523SM   H5G 9905   6.229   5.946  16.508 -1.5790 -0.1502 -0.1906
   7523SM   C6F 9906   6.199   5.740  16.473  1.0876 -0.1178 -0.4837
   7523SM   H6F 9907   6.107   5.760  16.413 -0.0374 -2.2421  0.4343
   7523SM   H6G 9908   6.179   5.651  16.536  0.3021 -0.7865 -1.6265
   7523SM   C7F 9909   6.303   5.707  16.376 -0.6396  0.2999  0.5264
   7523SM   H7F 9910   6.271   5.628  16.304 -1.8684  2.3319 -1.2955
   7523SM   H7G 9911   6.399   5.689  16.428 -1.0632  2.3538  2.1387
   7523SM   C8F 9912   6.350   5.817  16.281  0.1903  0.1112 -0.4887
   7523SM   H8F 9913   6.411   5.888  16.341  3.1779 -2.8154  0.2001
   7523SM   H8G 9914   6.261   5.872  16.242  0.0815  0.9734  0.8874
   7523SM   C9F 9915   6.428   5.773  16.157  0.1223  0.5173 -0.6863
   7523SM   H9F 9916   6.378   5.698  16.092  1.3355  0.3870 -1.5242
   7523SM   H9G 9917   6.525   5.723  16.180  0.0415  0.7795  0.2626
   7523SM  C10F 9918   6.458   5.891  16.060  0.2480 -0.0420 -0.0971
   7523SM  H10F 9919   6.514   5.961  16.126 -0.6675  2.5045 -1.8697
   7523SM  H10G 9920   6.366   5.941  16.022 -0.2552 -0.1541  0.9295
   7523SM  C11F 9921   6.535   5.840  15.940  0.1374 -0.5620 -0.2097
   7523SM  H11F 9922   6.486   5.750  15.897  0.1132  0.3604 -2.2134
   7523SM  H11G 9923   6.631   5.793  15.970  0.6157 -1.6669 -3.1607
   7523SM  C12F 9924   6.566   5.962  15.849  0.3481  1.1817  0.5180
   7523SM  H12F 9925   6.628   6.035  15.904  3.1939 -1.7310  1.5025
   7523SM  H12G 9926   6.469   6.003  15.814 -0.3930 -1.9455 -1.5896
   7523SM  C13F 9927   6.651   5.927  15.724 -0.5547 -0.5674  0.2977
   7523SM  H13F 9928   6.748   5.882  15.756  0.1794  1.3584  0.9470
   7523SM  H13G 9929   6.665   6.025  15.674  0.7355  0.7886  3.0980
   7523SM  C14F 9930   6.590   5.841  15.617  0.1838  0.0986 -0.2942
   7523SM  H14F 9931   6.485   5.875  15.607  0.3304  1.2619  1.7652
   7523SM  H14G 9932   6.580   5.737  15.653  2.1485  0.3841  1.2735
   7523SM  C15F 9933   6.667   5.836  15.490 -0.1931 -0.3026 -0.0612
   7523SM  H15F 9934   6.679   5.937  15.447 -3.6100  0.2032 -0.1567
   7523SM  H15G 9935   6.604   5.780  15.417 -0.5312 -0.6349  0.4749
   7523SM  C16F 9936   6.795   5.749  15.489 -0.1584  0.2951 -0.5249
   7523SM  H16F 9937   6.770   5.646  15.524 -2.1061  1.2659  1.1111
   7523SM  H16G 9938   6.858   5.797  15.567  0.9869  0.5066 -1.5509
   7523SM  C17F 9939   6.878   5.754  15.367 -0.2295  0.1740 -0.1958
   7523SM  H17F 9940   6.982   5.733  15.400 -0.6488 -0.3545  0.8502
   7523SM  H17G 9941   6.868   5.854  15.321 -1.8660  1.7858  3.2600
   7523SM  C18F 9942   6.832   5.658  15.254  0.1733  0.2449  0.6958
   7523SM  H18F 9943   6.722   5.672  15.239  0.0635  0.5336  1.6941
   7523SM  H18G 9944   6.854   5.557  15.294  1.8543  0.0627 -0.6004
   7523SM  C19F 9945   6.888   5.683  15.109  0.4405 -0.4161 -0.2002
   7523SM  H19F 9946   6.883   5.578  15.074  1.7608 -0.7448  0.5444
   7523SM  H19G 9947   6.993   5.721  15.115 -0.1491  1.0341  1.6983
   7523SM  C20F 9948   6.808   5.775  15.014 -0.2257 -0.1180 -0.8065
   7523SM  H20F 9949   6.806   5.879  15.052 -1.8466 -0.7821  1.0963
   7523SM  H20G 9950   6.702   5.743  15.025 -0.3430  0.7754  1.2824
   7523SM  C21F 9951   6.855   5.778  14.871 -0.4551  1.2237 -0.0194
   7523SM  H21F 9952   6.841   5.683  14.816 -0.8660  1.9607 -1.2365
   7523SM  H21G 9953   6.962   5.805  14.861  0.5982 -2.7476 -0.9134
   7523SM  C22F 9954   6.781   5.880  14.786  0.1799 -0.0319  0.2746
   7523SM  H22F 9955   6.765   5.975  14.840 -1.5282 -0.6538  0.9320
   7523SM  H22G 9956   6.676   5.843  14.774 -0.3266  2.0133 -2.9519
   7523SM  C23F 9957   6.846   5.895  14.644  0.7018 -0.0061 -0.0805
   7523SM  H23F 9958   6.772   5.939  14.574 -0.8440 -1.4321  0.5822
   7523SM  H23G 9959   6.878   5.792  14.616  1.2523 -0.6740  2.7048
   7523SM  H23H 9960   6.934   5.963  14.647 -0.2761  1.2741  1.2824
   7623SM     N 9961   0.014   5.174  17.234 -0.6887 -0.1657 -0.9685
   7623SM   C15 9962   0.020   5.185  17.092  0.2078 -0.1482  0.4933
   7623SM  H15A 9963   0.109   5.237  17.059 -0.0064 -0.0082  0.1310
   7623SM  H15B 9964  -0.066   5.238  17.054  1.0693  0.5997 -0.4849
   7623SM  H15C 9965   0.029   5.090  17.043  0.9200  0.8355 -1.4011
   7623SM   C14 9966   0.005   5.313  17.289  0.5483  0.3521 -0.0081
   7623SM  H14A 9967  -0.016   5.311  17.395 -0.4752 -2.2427 -0.1858
   7623SM  H14B 9968  -0.083   5.360  17.250  0.0405  0.1857  0.8968
   7623SM  H14C 9969   0.096   5.370  17.278  2.0169 -1.7422  0.4946
   7623SM   C13 9970  -0.102   5.100  17.286 -0.8731  0.6856  0.3397
   7623SM  H13A 9971  -0.091   5.083  17.392 -0.4213  1.0662  0.3554
   7623SM  H13B 9972  -0.097   5.002  17.240  3.0971  1.1877 -0.7206
   7623SM  H13C 9973  -0.195   5.143  17.252 -1.5607  0.5114  1.9489
   7623SM   C12 9974   0.146   5.116  17.284  0.7078 -0.3237 -0.1636
   7623SM  H12A 9975   0.148   5.010  17.262  1.2348 -0.5689  0.9973
   7623SM  H12B 9976   0.146   5.131  17.391 -0.5824 -3.2108  0.3469
   7623SM   C11 9977   0.275   5.176  17.228  0.6214 -0.4119  0.4053
   7623SM  H11A 9978   0.280   5.160  17.118 -0.3144 -1.7807  0.5380
   7623SM  H11B 9979   0.345   5.110  17.282 -1.6243 -1.2969  2.4340
   7623SM     P 9980   0.375   5.369  17.389 -0.1966  0.4564  0.2047
   7623SM   O13 9981   0.303   5.490  17.440 -0.3841 -0.0300  0.0885
   7623SM   O14 9982   0.422   5.268  17.488  0.2860  0.0016 -0.0425
   7623SM   O11 9983   0.508   5.405  17.316 -0.1103  0.4846  0.5933
   7623SM   O12 9984   0.290   5.310  17.261 -0.1552 -0.2097 -0.9904
   7623SM   C1S 9985   0.606   5.313  17.254 -0.2864  0.5646 -0.2970
   7623SM   H1S 9986   0.569   5.208  17.258  0.2007  0.4261  1.5133
   7623SM   H1T 9987   0.705   5.316  17.305 -0.3622 -0.1655 -0.0941
   7623SM    NF 9988   0.703   5.220  17.045 -0.1739  0.5588  1.0811
   7623SM   HNF 9989   0.802   5.232  17.040  0.4435 -2.4638  3.0837
   7623SM   C2S 9990   0.621   5.328  17.100 -0.7122  0.8993  0.5022
   7623SM   H2S 9991   0.520   5.313  17.057 -0.1995  0.3938 -0.5586
   7623SM   C3S 9992   0.683   5.472  17.078  0.2428  0.0317 -0.2033
   7623SM   H3S 9993   0.785   5.469  17.122 -0.5605  1.7817  2.0289
   7623SM    O3 9994   0.606   5.580  17.134 -0.0225  0.4668 -0.1112
   7623SM   HO3 9995   0.535   5.553  17.193 -0.6428  4.6107  1.3485
   7623SM   C4S 9996   0.702   5.500  16.932 -0.4515 -0.7324 -0.2526
   7623SM   H4S 9997   0.605   5.522  16.886 -0.3468 -0.3329 -0.2932
   7623SM   C5S 9998   0.820   5.518  16.867 -0.2029 -0.3848  0.5931
   7623SM   H5S 9999   0.915   5.517  16.923  0.1280  2.3309  0.2166
   7623SM   C6S10000   0.833   5.541  16.721 -0.1004  0.9279 -0.1415
   7623SM   H6S10001   0.928   5.506  16.674 -0.4348  3.3095 -2.7920
   7623SM   H6T10002   0.834   5.648  16.692  1.0224  0.9276 -0.1510
   7623SM   C7S10003   0.724   5.473  16.641 -0.1628 -0.0806  0.7269
   7623SM   H7S10004   0.617   5.493  16.664 -1.0707 -1.3638 -1.9941
   7623SM   H7T10005   0.729   5.363  16.653 -2.2872 -0.3292 -0.1855
   7623SM   C8S10006   0.750   5.487  16.485  0.3568  0.6293 -0.0058
   7623SM   H8S10007   0.850   5.445  16.465  0.2357 -1.1774  2.6111
   7623SM   H8T10008   0.745   5.597  16.470 -0.6357  0.7151  0.7968
   7623SM   C9S10009   0.639   5.402  16.414 -0.0725 -0.5527 -0.5423
   7623SM   H9S10010   0.540   5.425  16.460  0.6112  1.3782  0.0936
   7623SM   H9T10011   0.641   5.292  16.427 -1.3024 -0.5760 -0.4127
   7623SM  C10S10012   0.633   5.424  16.262  0.7659  0.1469  0.2671
   7623SM  H10S10013   0.733   5.385  16.231  0.6869  0.0595  0.1187
   7623SM  H10T10014   0.634   5.530  16.230  0.8226 -0.4287 -1.8190
   7623SM  C11S10015   0.516   5.345  16.194 -0.0260  0.0772 -0.9710
   7623SM  H11S10016   0.421   5.403  16.201 -0.6644 -0.9309 -1.0436
   7623SM  H11T10017   0.507   5.247  16.245 -1.5822  0.7761  0.1945
   7623SM  C12S10018   0.534   5.312  16.048  0.2597 -0.1232 -0.4003
   7623SM  H12S10019   0.437   5.263  16.024  0.0587 -0.1192  0.3813
   7623SM  H12T10020   0.612   5.232  16.047 -1.1304 -1.5357 -1.4059
   7623SM  C13S10021   0.568   5.431  15.954 -0.4239 -0.4834  0.2234
   7623SM  H13S10022   0.650   5.494  15.994 -1.3334 -0.0812  1.5078
   7623SM  H13T10023   0.483   5.501  15.957  0.2571  0.3175  1.4951
   7623SM  C14S10024   0.599   5.378  15.814  0.6007 -0.0047  0.1744
   7623SM  H14S10025   0.518   5.305  15.795  1.4931 -0.4851 -2.1115
   7623SM  H14T10026   0.694   5.323  15.797 -0.6616 -2.3260  0.2545
   7623SM  C15S10027   0.593   5.489  15.705  0.3186  1.1788 -0.1848
   7623SM  H15S10028   0.673   5.563  15.726  0.0770  1.1040  1.0656
   7623SM  H15T10029   0.497   5.544  15.712 -1.0224 -0.5385 -3.0187
   7623SM  C16S10030   0.615   5.433  15.570  0.7523 -0.0694  0.6836
   7623SM  H16S10031   0.521   5.386  15.535  1.6885 -1.1091 -0.5125
   7623SM  H16T10032   0.694   5.356  15.577  0.4422 -0.3178  1.7532
   7623SM  C17S10033   0.669   5.544  15.468 -0.2082  0.4069 -0.3959
   7623SM  H17S10034   0.691   5.483  15.378  0.4819 -1.8097  1.1815
   7623SM  H17T10035   0.766   5.582  15.507  0.0780 -1.0007  0.3234
   7623SM  C18S10036   0.579   5.669  15.458 -0.3291 -0.3224  0.1786
   7623SM  H18S10037   0.590   5.739  15.544  0.8545  0.0489 -0.2540
   7623SM  H18T10038   0.471   5.646  15.447 -0.2601 -0.7180  0.3254
   7623SM  H18U10039   0.622   5.726  15.373  2.2376 -1.8431  0.3434
   7623SM   C1F10040   0.662   5.099  17.032  0.6374 -0.0248  0.0340
   7623SM    OF10041   0.550   5.062  17.071  0.1076  0.4255  0.2923
   7623SM   C2F10042   0.761   5.011  16.967  0.3328  0.2761 -0.1939
   7623SM   H2F10043   0.804   4.947  17.048 -0.1399  2.1437  1.6046
   7623SM   H2G10044   0.840   5.074  16.921 -0.2729  0.7956 -0.5351
   7623SM   C3F10045   0.689   4.927  16.857 -0.7081 -0.6419  0.1616
   7623SM   H3F10046   0.603   4.866  16.894 -0.2397 -1.0276  0.6276
   7623SM   H3G10047   0.769   4.856  16.829  1.2251  1.3994  0.2345
   7623SM   C4F10048   0.663   5.008  16.730  0.0192 -0.1508 -0.4260
   7623SM   H4F10049   0.761   5.052  16.699  0.5008 -0.0432  1.1611
   7623SM   H4G10050   0.591   5.090  16.749 -0.5686 -0.7654  0.0258
   7623SM   C5F10051   0.620   4.924  16.617  0.3938 -0.1637  0.1780
   7623SM   H5F10052   0.527   4.875  16.652 -0.3449  0.7967 -0.3818
   7623SM   H5G10053   0.687   4.840  16.587  0.8161  0.3699 -0.4095
   7623SM   C6F10054   0.604   5.005  16.489  0.1983  0.1168  0.2199
   7623SM   H6F10055   0.709   5.039  16.481  1.4073 -3.2959  0.1168
   7623SM   H6G10056   0.524   5.082  16.490  0.6050  0.5406  0.3513
   7623SM   C7F10057   0.591   4.895  16.381 -0.8295  0.7264 -0.2588
   7623SM   H7F10058   0.504   4.829  16.401 -0.2414  0.1574  0.4737
   7623SM   H7G10059   0.674   4.822  16.372 -1.6473 -0.2953  0.2386
   7623SM   C8F10060   0.566   4.954  16.246  0.2338 -0.4134  0.1520
   7623SM   H8F10061   0.638   5.036  16.221 -1.5848  1.5545  1.0006
   7623SM   H8G10062   0.472   5.012  16.258  0.7957  0.3520  1.0628
   7623SM   C9F10063   0.558   4.841  16.141 -0.4727 -0.5878  0.0018
   7623SM   H9F10064   0.490   4.758  16.169 -1.7457  0.1566 -0.7950
   7623SM   H9G10065   0.658   4.792  16.134  0.1375  0.7743 -1.5064
   7623SM  C10F10066   0.511   4.904  16.012  0.0203  0.4774  0.3386
   7623SM  H10F10067   0.575   4.993  15.996  1.5562 -0.2654  2.1007
   7623SM  H10G10068   0.407   4.937  16.035  0.1324  0.8627  0.3029
   7623SM  C11F10069   0.506   4.809  15.896  0.5384  0.7390  0.2978
   7623SM  H11F10070   0.450   4.714  15.911 -1.6711  2.0984  1.1549
   7623SM  H11G10071   0.606   4.769  15.872 -0.1526 -0.9627  0.1441
   7623SM  C12F10072   0.446   4.890  15.780 -0.5238 -0.0992  0.7198
   7623SM  H12F10073   0.511   4.980  15.775  0.7864 -1.0658 -0.5364
   7623SM  H12G10074   0.337   4.901  15.797 -1.0467 -2.1991 -0.9847
   7623SM  C13F10075   0.457   4.814  15.644 -0.2737 -0.6072 -0.4713
   7623SM  H13F10076   0.389   4.727  15.651 -1.2320  0.1647 -0.0472
   7623SM  H13G10077   0.557   4.765  15.644 -0.2501 -0.5627 -0.0119
   7623SM  C14F10078   0.390   4.889  15.526 -0.4134  0.5860 -0.5891
   7623SM  H14F10079   0.437   4.989  15.522  1.9470 -0.4325  0.0774
   7623SM  H14G10080   0.285   4.909  15.557 -0.2034  0.5746  0.1377
   7623SM  C15F10081   0.403   4.813  15.402  0.0092  0.4285  0.1194
   7623SM  H15F10082   0.363   4.710  15.417  1.6785 -0.2564  0.0708
   7623SM  H15G10083   0.511   4.803  15.380  0.2872 -0.6457  1.7589
   7623SM  C16F10084   0.333   4.882  15.285 -0.1266  0.4078 -0.2372
   7623SM  H16F10085   0.369   4.987  15.283 -0.9365  0.6983 -0.0603
   7623SM  H16G10086   0.224   4.877  15.308 -0.5805  0.3913 -2.1876
   7623SM  C17F10087   0.373   4.812  15.156  0.2289  0.8508 -0.4741
   7623SM  H17F10088   0.359   4.702  15.162 -3.2630  1.2277  0.0875
   7623SM  H17G10089   0.482   4.833  15.149  0.6408 -0.4918  1.1748
   7623SM  C18F10090   0.293   4.868  15.039 -0.3664 -0.3464 -0.4207
   7623SM  H18F10091   0.271   4.977  15.026 -0.3340 -0.4767 -1.7721
   7623SM  H18G10092   0.192   4.823  15.051 -0.7806  0.7830  0.4823
   7623SM  C19F10093   0.349   4.823  14.903  0.3220 -0.1005  0.5514
   7623SM  H19F10094   0.370   4.714  14.903  0.1756 -0.1678  2.8302
   7623SM  H19G10095   0.449   4.868  14.885 -0.2179  0.1001 -2.5340
   7623SM  C20F10096   0.245   4.851  14.784  0.4178  0.4683 -1.0106
   7623SM  H20F10097   0.176   4.935  14.807 -0.9656 -1.2308  1.4537
   7623SM  H20G10098   0.175   4.765  14.780  0.0455  0.6352  0.8955
   7623SM  C21F10099   0.314   4.877  14.647  0.3513  0.1425  0.2148
   7623SM  H21F10100   0.398   4.946  14.670  0.8670 -0.2361 -0.5024
   7623SM  H21G10101   0.252   4.929  14.571 -0.7732 -2.3715 -0.6805
   7623SM  C22F10102   0.362   4.750  14.580  0.0143  0.4612 -0.6470
   7623SM  H22F10103   0.270   4.687  14.577  0.3961 -0.2815  1.3677
   7623SM  H22G10104   0.426   4.698  14.655 -1.0623  2.8367  2.0774
   7623SM  C23F10105   0.434   4.767  14.445  0.4668 -0.2653  0.1069
   7623SM  H23F10106   0.465   4.674  14.393  1.3015  0.0575  0.0192
   7623SM  H23G10107   0.520   4.831  14.475 -0.4948  2.0626 -1.6962
   7623SM  H23H10108   0.367   4.830  14.382  0.2300  0.8866  1.4763
   7723SM     N10109   0.201   2.109  17.635  0.3934  0.0739  0.3766
   7723SM   C1510110   0.235   2.252  17.660  0.6937  0.4451 -0.4058
   7723SM  H15A10111   0.198   2.283  17.756  2.7765 -0.2230  0.6788
   7723SM  H15B10112   0.177   2.307  17.587 -2.8442 -2.8217 -0.3474
   7723SM  H15C10113   0.340   2.278  17.662  0.4614  1.5399  3.0823
   7723SM   C1410114   0.276   2.069  17.515  0.5473 -0.2305  0.2713
   7723SM  H14A10115   0.253   2.125  17.426  2.7255  0.0913 -0.1452
   7723SM  H14B10116   0.254   1.964  17.500 -0.9795 -0.4685  3.3787
   7723SM  H14C10117   0.382   2.082  17.531  0.3168  1.6777  0.4356
   7723SM   C1310118   0.236   2.011  17.749 -0.1785  0.2807 -0.8176
   7723SM  H13A10119   0.170   2.035  17.830 -1.3850 -1.4661 -1.2327
   7723SM  H13B10120   0.342   2.010  17.772  0.2235  0.1390 -2.5162
   7723SM  H13C10121   0.204   1.913  17.718 -0.0794  0.0219 -0.1032
   7723SM   C1210122   0.046   2.088  17.610 -0.1599 -0.9018 -0.1404
   7723SM  H12A10123   0.030   2.141  17.517  2.2707 -2.6491 -1.6956
   7723SM  H12B10124  -0.004   2.135  17.693  1.3417 -0.1279  0.3773
   7723SM   C1110125  -0.001   1.940  17.579  0.9577 -0.7607 -0.1216
   7723SM  H11A10126  -0.111   1.939  17.563  0.4541 -1.4743  2.7709
   7723SM  H11B10127   0.026   1.883  17.671  0.8716  0.4041  0.6487
   7723SM     P10128   0.039   1.747  17.413 -0.1570 -0.2825  0.0705
   7723SM   O1310129   0.044   1.658  17.529  0.5465  0.2371 -0.0879
   7723SM   O1410130  -0.086   1.740  17.331  0.1606  1.0588  0.1895
   7723SM   O1110131   0.163   1.718  17.315  0.3002 -0.5831  0.0553
   7723SM   O1210132   0.067   1.896  17.462  0.3018  0.4490  0.4500
   7723SM   C1S10133   0.163   1.786  17.189  0.1295  0.2009  0.5025
   7723SM   H1S10134   0.190   1.894  17.194 -0.6396  0.3965  0.6259
   7723SM   H1T10135   0.062   1.791  17.142  0.8566  2.7885 -1.0325
   7723SM    NF10136   0.252   1.792  16.960  0.2903 -0.0467  0.5316
   7723SM   HNF10137   0.192   1.759  16.888 -0.2140  0.1792  0.8466
   7723SM   C2S10138   0.253   1.718  17.087  0.0908 -0.3317 -0.1086
   7723SM   H2S10139   0.358   1.711  17.124  0.2129  0.7955 -0.1913
   7723SM   C3S10140   0.203   1.564  17.073  0.3571  0.2870  0.2735
   7723SM   H3S10141   0.093   1.571  17.059  0.1652 -4.3927 -2.4624
   7723SM    O310142   0.211   1.478  17.192 -0.1921 -0.0125  0.3299
   7723SM   HO310143   0.191   1.545  17.257  0.3194  1.2589 -0.7746
   7723SM   C4S10144   0.275   1.497  16.958  0.6773 -0.7569 -0.1974
   7723SM   H4S10145   0.384   1.497  16.970  0.4360 -1.8697  2.6372
   7723SM   C5S10146   0.216   1.442  16.847 -0.2621 -0.3339  0.6509
   7723SM   H5S10147   0.106   1.441  16.846 -0.3188  1.6916  1.3735
   7723SM   C6S10148   0.282   1.378  16.728 -0.0530 -0.1836 -1.1990
   7723SM   H6S10149   0.262   1.269  16.738 -2.0691  0.3150  1.4435
   7723SM   H6T10150   0.391   1.400  16.725  0.2680 -1.6488 -1.1911
   7723SM   C7S10151   0.210   1.425  16.602 -0.1544  0.1961  0.8383
   7723SM   H7S10152   0.229   1.534  16.597 -0.1869  0.1485 -2.2259
   7723SM   H7T10153   0.100   1.411  16.605 -0.0080 -1.2234  0.3785
   7723SM   C8S10154   0.274   1.356  16.479  0.2411  0.0143 -0.1226
   7723SM   H8S10155   0.270   1.245  16.488  0.8593 -0.3583 -3.2146
   7723SM   H8T10156   0.379   1.390  16.469  0.3040  0.3949  1.5249
   7723SM   C9S10157   0.186   1.390  16.357  0.2355  0.3269  1.0379
   7723SM   H9S10158   0.140   1.490  16.373 -3.0427 -1.2270  2.2446
   7723SM   H9T10159   0.098   1.323  16.353  0.2264  0.3945 -0.7072
   7723SM  C10S10160   0.257   1.375  16.220  0.9676 -0.3516  0.8179
   7723SM  H10S10161   0.315   1.281  16.225 -0.7335 -1.6133 -1.2797
   7723SM  H10T10162   0.333   1.455  16.206 -1.2854  1.4352 -3.0228
   7723SM  C11S10163   0.165   1.387  16.103  0.2734  0.4042  0.5966
   7723SM  H11S10164   0.133   1.492  16.092 -1.8506 -0.0875  1.5319
   7723SM  H11T10165   0.074   1.330  16.134 -1.4353  2.9502  0.5319
   7723SM  C12S10166   0.225   1.346  15.964  0.5446 -0.1584 -0.3132
   7723SM  H12S10167   0.258   1.241  15.981 -1.9587 -0.6145  2.7720
   7723SM  H12T10168   0.311   1.413  15.945 -1.0000  2.2606  0.8110
   7723SM  C13S10169   0.112   1.348  15.857 -0.2587 -0.4885 -0.6907
   7723SM  H13S10170   0.055   1.443  15.861  1.0942  0.3783 -1.2954
   7723SM  H13T10171   0.044   1.262  15.877  0.8152 -1.1664  0.1982
   7723SM  C14S10172   0.180   1.336  15.721 -0.6562 -0.2303  0.4083
   7723SM  H14S10173   0.227   1.238  15.701  2.5610  1.8577 -3.9420
   7723SM  H14T10174   0.271   1.400  15.723  0.4944 -1.7724 -0.2197
   7723SM  C15S10175   0.092   1.360  15.601  0.9552  0.2641  0.1750
   7723SM  H15S10176   0.055   1.465  15.606 -0.7271 -0.3439  1.4491
   7723SM  H15T10177   0.000   1.297  15.597  1.6109 -0.6968 -0.1689
   7723SM  C16S10178   0.161   1.349  15.465  0.2582 -0.3696  0.2015
   7723SM  H16S10179   0.259   1.403  15.467  0.1656 -0.2159  0.8037
   7723SM  H16T10180   0.096   1.414  15.402 -1.0837 -2.1167 -0.2746
   7723SM  C17S10181   0.150   1.210  15.408  0.4187  0.3775  0.2100
   7723SM  H17S10182   0.088   1.206  15.315 -0.0151  3.1595  0.2791
   7723SM  H17T10183   0.106   1.142  15.484  2.2185 -0.2658  0.7067
   7723SM  C18S10184   0.291   1.156  15.382 -0.3708  0.3788 -0.1845
   7723SM  H18S10185   0.284   1.053  15.340 -1.4662  1.0973 -1.8447
   7723SM  H18T10186   0.349   1.150  15.476  1.0855  0.3200 -1.0622
   7723SM  H18U10187   0.364   1.221  15.330  1.9939 -0.8379  1.4262
   7723SM   C1F10188   0.303   1.911  16.942 -0.1742 -0.9556 -0.3830
   7723SM    OF10189   0.364   1.960  17.040  0.0543  0.3531  0.1212
   7723SM   C2F10190   0.280   1.994  16.812 -0.7841  0.0892  0.4620
   7723SM   H2F10191   0.211   2.080  16.827 -1.5841 -0.1300 -1.5999
   7723SM   H2G10192   0.234   1.924  16.739 -0.5168 -0.4883  0.8438
   7723SM   C3F10193   0.411   2.049  16.762  0.0251  0.5832  0.1334
   7723SM   H3F10194   0.501   1.996  16.800  0.4959  1.8014  0.7637
   7723SM   H3G10195   0.434   2.153  16.793  0.3607  0.3985  0.5203
   7723SM   C4F10196   0.437   2.052  16.605  0.4842 -0.5540 -0.6528
   7723SM   H4F10197   0.367   1.981  16.556  1.5928 -1.0624 -1.5478
   7723SM   H4G10198   0.532   2.012  16.564  0.5536 -0.9628 -0.1175
   7723SM   C5F10199   0.401   2.190  16.536 -0.7153 -0.1169 -0.0864
   7723SM   H5F10200   0.475   2.265  16.571 -0.0076 -1.0946  0.5567
   7723SM   H5G10201   0.301   2.225  16.570  0.2592  0.8441  1.9673
   7723SM   C6F10202   0.391   2.173  16.383  0.3591  0.0045  0.2397
   7723SM   H6F10203   0.315   2.092  16.373 -0.3189  0.5664  0.8363
   7723SM   H6G10204   0.485   2.136  16.336 -0.1382 -1.5306  0.3821
   7723SM   C7F10205   0.342   2.303  16.307  0.4628  0.6706  0.0079
   7723SM   H7F10206   0.405   2.394  16.317  2.5912 -0.7567  0.2440
   7723SM   H7G10207   0.245   2.340  16.344  0.7577  1.4358  0.0279
   7723SM   C8F10208   0.307   2.268  16.161 -0.5649 -0.8334  0.0167
   7723SM   H8F10209   0.275   2.162  16.161 -1.8462 -0.4862  1.4758
   7723SM   H8G10210   0.408   2.269  16.115 -0.4365 -2.4734  0.1963
   7723SM   C9F10211   0.197   2.353  16.091  0.4224 -0.4177 -0.2380
   7723SM   H9F10212   0.207   2.463  16.107  1.2421 -0.3470 -1.1557
   7723SM   H9G10213   0.103   2.337  16.147  0.2857 -0.2268 -0.4108
   7723SM  C10F10214   0.152   2.309  15.948  1.1893 -0.1754  0.1263
   7723SM  H10F10215   0.045   2.329  15.930  0.9830 -0.9697  0.4258
   7723SM  H10G10216   0.168   2.200  15.960  2.3858 -0.2785 -1.9515
   7723SM  C11F10217   0.235   2.366  15.835 -0.6205 -0.4186 -0.0436
   7723SM  H11F10218   0.338   2.369  15.877 -0.5360 -0.5083 -0.2419
   7723SM  H11G10219   0.201   2.469  15.810 -0.5192 -0.4397 -0.2680
   7723SM  C12F10220   0.226   2.282  15.716 -0.2009 -0.5122  0.2345
   7723SM  H12F10221   0.119   2.297  15.687  0.2085  2.0073 -0.2884
   7723SM  H12G10222   0.235   2.178  15.752  1.0734  0.2281  2.2592
   7723SM  C13F10223   0.309   2.331  15.594 -0.3391  0.3740 -0.7991
   7723SM  H13F10224   0.295   2.245  15.524  0.2440 -0.7535  0.4278
   7723SM  H13G10225   0.416   2.339  15.621 -0.9840  1.5552  1.6559
   7723SM  C14F10226   0.246   2.459  15.542 -0.0183 -0.0021  1.0189
   7723SM  H14F10227   0.269   2.551  15.599 -1.8293  1.4484 -0.4939
   7723SM  H14G10228   0.136   2.455  15.557  0.0361  1.5060  2.0477
   7723SM  C15F10229   0.276   2.488  15.393  0.3487 -0.5806  0.2023
   7723SM  H15F10230   0.229   2.406  15.333 -0.7120  0.7551 -0.8768
   7723SM  H15G10231   0.383   2.492  15.367 -0.0442  1.4847 -1.3298
   7723SM  C16F10232   0.201   2.617  15.355 -0.6013 -0.3014  0.6877
   7723SM  H16F10233   0.197   2.701  15.427  0.8507  1.0585 -0.7201
   7723SM  H16G10234   0.095   2.585  15.348 -0.8141  0.5698 -0.3619
   7723SM  C17F10235   0.251   2.663  15.219 -0.0432  0.1874 -0.2831
   7723SM  H17F10236   0.256   2.580  15.145 -0.3343 -0.7960  0.7710
   7723SM  H17G10237   0.356   2.697  15.229  0.0127  0.1886 -0.8268
   7723SM  C18F10238   0.178   2.777  15.155  0.3035 -0.4890 -0.0399
   7723SM  H18F10239   0.188   2.864  15.224 -1.1949  0.3272 -0.8047
   7723SM  H18G10240   0.071   2.750  15.143  0.5838 -3.1722  2.5956
   7723SM  C19F10241   0.243   2.823  15.020 -0.0906  0.1092  0.9739
   7723SM  H19F10242   0.344   2.863  15.043  0.2439 -0.0559 -0.1445
   7723SM  H19G10243   0.178   2.897  14.969 -0.2560 -0.4311  0.3890
   7723SM  C20F10244   0.265   2.709  14.919  0.3972 -0.1038  0.0949
   7723SM  H20F10245   0.170   2.670  14.877  0.4547  1.2116 -1.3326
   7723SM  H20G10246   0.328   2.629  14.964 -1.3787 -2.2036 -0.9694
   7723SM  C21F10247   0.347   2.759  14.795 -0.5708  0.2492  0.2295
   7723SM  H21F10248   0.431   2.822  14.832  0.1917 -0.9390  0.5903
   7723SM  H21G10249   0.283   2.825  14.733 -0.4183 -1.2117 -1.5741
   7723SM  C22F10250   0.390   2.642  14.701  0.5194  0.1739 -0.8193
   7723SM  H22F10251   0.434   2.676  14.605  1.0302 -0.1456 -0.7010
   7723SM  H22G10252   0.293   2.594  14.673  0.1637  0.0875  0.4728
   7723SM  C23F10253   0.477   2.530  14.770 -0.0072  0.0292  0.0231
   7723SM  H23F10254   0.435   2.472  14.855  0.5231 -2.3657 -1.2707
   7723SM  H23G10255   0.582   2.563  14.790 -0.7474  1.9017  1.1205
   7723SM  H23H10256   0.495   2.459  14.686 -1.0675  1.3999 -1.4254
   7823SM     N10257   0.581   6.916  17.342 -0.3299 -0.3074  0.0144
   7823SM   C1510258   0.522   6.787  17.287  0.2062 -0.0736 -0.0362
   7823SM  H15A10259   0.494   6.726  17.372  1.6025 -2.5895 -1.2582
   7823SM  H15B10260   0.603   6.739  17.233  2.1931  0.3357  2.4010
   7823SM  H15C10261   0.432   6.800  17.228  0.8160  2.0915 -0.5688
   7823SM   C1410262   0.585   7.008  17.224  0.1743 -0.0232  0.3983
   7823SM  H14A10263   0.489   7.041  17.189  0.3343 -1.9815 -2.1349
   7823SM  H14B10264   0.632   6.960  17.140  0.0764 -0.2730  0.4888
   7823SM  H14C10265   0.631   7.103  17.251  0.8430 -1.1209  3.5979
   7823SM   C1310266   0.494   6.959  17.450  0.3451 -0.8532 -0.2097
   7823SM  H13A10267   0.462   6.885  17.522 -0.6161 -0.7787 -0.5414
   7823SM  H13B10268   0.402   7.005  17.415  0.2171 -2.1753 -1.7322
   7823SM  H13C10269   0.546   7.041  17.498  0.8113 -0.7460 -0.8916
   7823SM   C1210270   0.724   6.888  17.397  0.5102 -0.3766  0.2206
   7823SM  H12A10271   0.780   6.849  17.313  3.3857 -1.2643  2.3924
   7823SM  H12B10272   0.723   6.813  17.474 -2.1151 -0.8444 -0.1625
   7823SM   C1110273   0.811   7.008  17.447 -0.1306  0.4473  0.6514
   7823SM  H11A10274   0.860   6.982  17.544  1.2719  1.8730  0.3640
   7823SM  H11B10275   0.745   7.094  17.474  1.0422  0.9145  2.2204
   7823SM     P10276   0.916   7.201  17.304 -0.1992 -0.3077 -0.4939
   7823SM   O1310277   0.789   7.226  17.238  0.7396 -0.1601 -0.0182
   7823SM   O1410278   0.961   7.302  17.406  0.1535 -0.8717 -0.2663
   7823SM   O1110279   1.023   7.190  17.183  0.0569  0.3180 -0.4000
   7823SM   O1210280   0.914   7.046  17.359  0.1910 -0.2186  0.1270
   7823SM   C1S10281   0.992   7.166  17.049 -0.4220  0.1063  0.6061
   7823SM   H1S10282   0.884   7.182  17.025 -0.6940 -1.3104  0.7860
   7823SM   H1T10283   1.005   7.057  17.035 -2.7186 -0.0764 -0.5153
   7823SM    NF10284   1.038   7.229  16.814  0.6710 -0.3456  0.1192
   7823SM   HNF10285   1.090   7.181  16.743 -2.3892 -1.5438 -1.5346
   7823SM   C2S10286   1.087   7.233  16.946 -0.1111  0.6949 -0.0737
   7823SM   H2S10287   1.102   7.339  16.974  0.3065  0.5456  0.2827
   7823SM   C3S10288   1.222   7.157  16.959  0.0048 -0.1521  0.0333
   7823SM   H3S10289   1.208   7.051  16.931 -1.2913 -0.4663  1.7108
   7823SM    O310290   1.286   7.160  17.089  0.3460  0.7279  0.0207
   7823SM   HO310291   1.214   7.159  17.152 -1.7228 -0.7361 -2.1483
   7823SM   C4S10292   1.317   7.223  16.866 -0.1582 -0.7406  0.2009
   7823SM   H4S10293   1.339   7.169  16.773  1.5376  1.1482 -0.5936
   7823SM   C5S10294   1.377   7.345  16.874 -0.0360 -0.0928  0.7124
   7823SM   H5S10295   1.390   7.389  16.974 -0.5881  1.9011 -0.0400
   7823SM   C6S10296   1.466   7.411  16.767 -0.6494  0.0833  0.0767
   7823SM   H6S10297   1.567   7.418  16.812 -1.1640 -2.1996  1.7695
   7823SM   H6T10298   1.439   7.515  16.738  1.9679  0.2027 -2.3270
   7823SM   C7S10299   1.476   7.336  16.629 -0.3640 -0.0528 -0.6280
   7823SM   H7S10300   1.372   7.323  16.593 -1.6363  1.3679  2.1982
   7823SM   H7T10301   1.510   7.234  16.657  0.9825  0.6030  0.2335
   7823SM   C8S10302   1.572   7.401  16.533  0.2082  0.5480  0.4814
   7823SM   H8S10303   1.675   7.372  16.562 -0.4214 -3.8225 -0.9192
   7823SM   H8T10304   1.556   7.511  16.534 -1.3497  0.3361  0.6245
   7823SM   C9S10305   1.559   7.349  16.391  0.2705 -0.8544 -0.0718
   7823SM   H9S10306   1.568   7.239  16.402 -1.8063 -1.1727 -1.0451
   7823SM   H9T10307   1.647   7.393  16.339  0.7087 -0.3736  1.0576
   7823SM  C10S10308   1.426   7.385  16.315  1.0229  0.4261 -0.1354
   7823SM  H10S10309   1.417   7.496  16.316  1.7286  0.5079  1.8123
   7823SM  H10T10310   1.344   7.339  16.373 -0.1617  0.6126 -1.5992
   7823SM  C11S10311   1.412   7.324  16.178  0.1567 -0.6019 -0.2316
   7823SM  H11S10312   1.314   7.349  16.133 -0.3158 -1.8088  0.0661
   7823SM  H11T10313   1.403   7.215  16.198  0.8443 -0.5858  0.2033
   7823SM  C12S10314   1.528   7.341  16.086 -0.8114  0.3794 -0.1125
   7823SM  H12S10315   1.619   7.291  16.126  0.1946  1.6117 -0.7968
   7823SM  H12T10316   1.542   7.451  16.081 -3.1603  0.7953  0.9752
   7823SM  C13S10317   1.491   7.280  15.946 -0.4406  0.1416  0.0002
   7823SM  H13S10318   1.471   7.171  15.952 -1.7877  0.4260  1.6880
   7823SM  H13T10319   1.589   7.282  15.893  0.0258  2.3083  0.8195
   7823SM  C14S10320   1.393   7.354  15.860 -0.9884  0.1275 -0.1832
   7823SM  H14S10321   1.421   7.462  15.864 -2.9074  0.6445  0.3408
   7823SM  H14T10322   1.293   7.346  15.908 -1.8495  0.6242 -1.8270
   7823SM  C15S10323   1.368   7.301  15.716 -0.5184  0.1478 -0.3411
   7823SM  H15S10324   1.351   7.192  15.719  1.0931 -0.1079  1.1429
   7823SM  H15T10325   1.454   7.326  15.649  0.3930  0.4777  0.9170
   7823SM  C16S10326   1.245   7.364  15.651  0.0299  0.0284 -0.1674
   7823SM  H16S10327   1.269   7.473  15.649  1.7025 -0.3104 -1.5515
   7823SM  H16T10328   1.151   7.343  15.705 -0.4209 -1.2665 -1.3834
   7823SM  C17S10329   1.224   7.303  15.514 -0.4501 -0.0968  0.2802
   7823SM  H17S10330   1.224   7.192  15.519  0.5604 -0.2349 -1.8850
   7823SM  H17T10331   1.312   7.328  15.452  0.1379 -0.0899  1.1011
   7823SM  C18S10332   1.094   7.360  15.446  0.1783 -0.4336 -0.5702
   7823SM  H18S10333   1.008   7.323  15.507  0.0176  0.6616 -0.1033
   7823SM  H18T10334   1.075   7.328  15.341 -1.5445  0.0325 -0.4363
   7823SM  H18U10335   1.110   7.469  15.454 -0.9760 -0.2421 -0.6010
   7823SM   C1F10336   0.919   7.286  16.772 -0.1931 -0.0276  0.2967
   7823SM    OF10337   0.839   7.337  16.849  0.9424 -0.7804 -0.0223
   7823SM   C2F10338   0.906   7.285  16.623 -0.1082  0.2914 -0.6763
   7823SM   H2F10339   0.896   7.183  16.581 -1.1192 -0.1892  0.6559
   7823SM   H2G10340   0.994   7.333  16.574 -0.2112  1.2574  0.0588
   7823SM   C3F10341   0.766   7.344  16.582 -0.3640 -1.2282  0.3050
   7823SM   H3F10342   0.765   7.445  16.628 -0.9611  0.1990 -2.5688
   7823SM   H3G10343   0.672   7.293  16.614 -2.6275 -0.1105 -3.8086
   7823SM   C4F10344   0.759   7.364  16.427  0.3659  0.4910  0.5588
   7823SM   H4F10345   0.766   7.265  16.377  2.5568  1.3027 -0.9079
   7823SM   H4G10346   0.856   7.414  16.407 -0.3282  3.5044  3.6987
   7823SM   C5F10347   0.648   7.442  16.363  1.0946 -0.3556  0.6451
   7823SM   H5F10348   0.629   7.536  16.419  0.7167 -0.5094  0.7817
   7823SM   H5G10349   0.553   7.385  16.371 -0.1893  1.2411 -1.6922
   7823SM   C6F10350   0.683   7.468  16.209  0.2444 -0.2436 -0.7669
   7823SM   H6F10351   0.791   7.493  16.204  0.4161 -0.9898 -0.9856
   7823SM   H6G10352   0.625   7.553  16.169  0.1005 -0.7282 -1.6088
   7823SM   C7F10353   0.659   7.346  16.123  0.3417 -0.1265  0.1362
   7823SM   H7F10354   0.552   7.320  16.135  0.8925 -1.6955  1.9662
   7823SM   H7G10355   0.720   7.267  16.171 -2.1358 -1.4945  1.2341
   7823SM   C8F10356   0.686   7.371  15.973 -0.7077 -0.3771  0.0234
   7823SM   H8F10357   0.787   7.416  15.961 -0.7864 -0.5133 -1.3742
   7823SM   H8G10358   0.627   7.460  15.942  0.8302  0.5209 -0.4467
   7823SM   C9F10359   0.670   7.252  15.875 -0.0914 -0.2927 -0.1193
   7823SM   H9F10360   0.563   7.225  15.885 -0.1466 -0.9888 -2.1624
   7823SM   H9G10361   0.734   7.171  15.916 -1.1748 -1.5658 -0.8627
   7823SM  C10F10362   0.707   7.285  15.730 -0.1923 -0.0517 -0.4213
   7823SM  H10F10363   0.813   7.306  15.707 -0.8492  1.3618 -2.5045
   7823SM  H10G10364   0.665   7.383  15.696 -1.0673 -0.7829 -1.5258
   7823SM  C11F10365   0.641   7.186  15.625 -0.3978  0.2783 -0.3779
   7823SM  H11F10366   0.534   7.184  15.656 -0.7212 -0.0860 -1.4690
   7823SM  H11G10367   0.691   7.087  15.634 -0.3516  0.2928 -0.4833
   7823SM  C12F10368   0.646   7.231  15.480  0.3222 -0.6835  0.2305
   7823SM  H12F10369   0.749   7.227  15.438  0.3484  0.8151  0.0691
   7823SM  H12G10370   0.608   7.336  15.478 -0.3043 -0.9074  0.2478
   7823SM  C13F10371   0.552   7.147  15.393 -0.0128  0.1526 -0.5721
   7823SM  H13F10372   0.446   7.155  15.428 -0.3798  0.2733 -1.6875
   7823SM  H13G10373   0.587   7.042  15.405  1.3227  0.2860 -2.7719
   7823SM  C14F10374   0.573   7.180  15.244 -0.7735  0.4779 -0.3666
   7823SM  H14F10375   0.678   7.149  15.223 -0.9969  0.8849 -2.2686
   7823SM  H14G10376   0.560   7.288  15.224  2.0143  0.8911 -0.3174
   7823SM  C15F10377   0.476   7.113  15.151  0.0595 -1.4018  0.1793
   7823SM  H15F10378   0.485   7.154  15.048  2.1235 -1.2081  0.3945
   7823SM  H15G10379   0.373   7.136  15.188 -0.2783  0.2957 -1.6580
   7823SM  C16F10380   0.476   6.961  15.153 -0.0222 -0.2407 -0.4908
   7823SM  H16F10381   0.428   6.934  15.249  0.9591  2.2234  0.7825
   7823SM  H16G10382   0.580   6.923  15.151  0.9481  2.1991 -3.2549
   7823SM  C17F10383   0.399   6.905  15.031  0.4999  0.3575  0.2811
   7823SM  H17F10384   0.459   6.922  14.940  0.4425  0.7697  0.3168
   7823SM  H17G10385   0.303   6.959  15.018 -1.0972 -2.1684  0.7532
   7823SM  C18F10386   0.376   6.753  15.047  0.7115 -0.2908 -0.1218
   7823SM  H18F10387   0.320   6.734  15.141 -0.5520  0.9276 -0.5818
   7823SM  H18G10388   0.476   6.707  15.056  0.1832 -1.0530  3.8267
   7823SM  C19F10389   0.305   6.679  14.934 -0.3051  0.4188  0.6502
   7823SM  H19F10390   0.302   6.571  14.960  0.4285 -0.0017 -0.8810
   7823SM  H19G10391   0.362   6.689  14.839  0.6904  1.1386  1.2934
   7823SM  C20F10392   0.158   6.718  14.913 -0.2481 -0.2815  0.7808
   7823SM  H20F10393   0.153   6.825  14.884  1.3080 -0.2031  0.7178
   7823SM  H20G10394   0.106   6.711  15.010  0.3367 -1.0562  1.0513
   7823SM  C21F10395   0.080   6.628  14.828  0.0806 -0.4441 -0.0003
   7823SM  H21F10396   0.069   6.533  14.885 -1.6920 -0.5310 -0.4203
   7823SM  H21G10397   0.136   6.614  14.733 -0.5403  1.1641 -0.6377
   7823SM  C22F10398  -0.061   6.673  14.792  0.8732  0.1085 -0.0125
   7823SM  H22F10399  -0.058   6.749  14.712  0.0751  1.2909  1.0516
   7823SM  H22G10400  -0.116   6.710  14.881  0.9888  0.8416 -0.2394
   7823SM  C23F10401  -0.148   6.556  14.737  0.6402  0.3951  0.1336
   7823SM  H23F10402  -0.119   6.454  14.769  0.4576  0.5286  0.7472
   7823SM  H23G10403  -0.159   6.548  14.627 -0.6823  2.6963  0.0367
   7823SM  H23H10404  -0.253   6.574  14.768  0.6310  0.7675 -0.1050
   7923SM     N10405   7.387   0.458  17.326  0.0747  0.5189  0.4199
   7923SM   C1510406   7.389   0.526  17.191 -0.3226  0.8413 -0.3446
   7923SM  H15A10407   7.319   0.486  17.120 -0.3813  0.7703 -0.2476
   7923SM  H15B10408   7.489   0.532  17.151 -0.3023  0.3293 -0.3841
   7923SM  H15C10409   7.360   0.630  17.192 -2.2083  0.3618 -1.2696
   7923SM   C1410410   7.480   0.536  17.416  0.2170  0.4046  0.1697
   7923SM  H14A10411   7.470   0.497  17.516 -1.4652  0.7673  0.1843
   7923SM  H14B10412   7.450   0.640  17.417 -1.6649 -0.0923 -0.2113
   7923SM  H14C10413   7.583   0.537  17.384 -0.0050  0.9349 -0.5782
   7923SM   C1310414   7.251   0.465  17.386  0.1552 -0.1859 -0.2933
   7923SM  H13A10415   7.220   0.567  17.403 -0.2244 -0.3657  0.1082
   7923SM  H13B10416   7.245   0.412  17.480 -1.5638 -0.9645 -0.8031
   7923SM  H13C10417   7.173   0.413  17.333 -1.0015  0.4860  0.7074
   7923SM   C1210418   7.430   0.307  17.303 -0.4951 -0.3018 -0.3389
   7923SM  H12A10419   7.532   0.308  17.268 -0.2800 -1.2468  0.2105
   7923SM  H12B10420   7.372   0.261  17.224  0.5471 -0.7953 -0.8342
   7923SM   C1110421   7.432   0.232  17.434 -0.5588 -0.3012  0.4531
   7923SM  H11A10422   7.457   0.303  17.515 -0.2319  0.4116 -0.2593
   7923SM  H11B10423   7.516   0.160  17.439  1.0971  1.6129  1.3198
   7923SM     P10424   7.255   0.045  17.396  0.3567  0.0385  0.0583
   7923SM   O1310425   7.340  -0.073  17.424  0.4532 -0.6212  0.0819
   7923SM   O1410426   7.110   0.030  17.431 -0.0216 -0.5984  0.6098
   7923SM   O1110427   7.267   0.069  17.236 -0.3054  0.1466 -0.0807
   7923SM   O1210428   7.305   0.179  17.461 -0.2248 -0.1204  0.1033
   7923SM   C1S10429   7.165   0.130  17.166  0.0578 -0.2739 -0.2561
   7923SM   H1S10430   7.138   0.231  17.206 -3.1736 -0.8217 -0.7157
   7923SM   H1T10431   7.074   0.068  17.178  0.2818 -0.1727  2.6310
   7923SM    NF10432   7.098   0.211  16.944 -0.2929  0.4661  0.0198
   7923SM   HNF10433   7.032   0.155  16.894 -0.2044  0.1776  0.2229
   7923SM   C2S10434   7.209   0.138  17.017 -0.2489  0.1109  0.3527
   7923SM   H2S10435   7.298   0.204  17.007 -0.5893  0.2645 -2.6126
   7923SM   C3S10436   7.244  -0.006  16.956 -0.6668 -0.4937 -0.2121
   7923SM   H3S10437   7.152  -0.068  16.952 -1.0507  0.0188  0.3346
   7923SM    O310438   7.330  -0.084  17.039  0.1586  0.1090  0.5423
   7923SM   HO310439   7.312  -0.025  17.113  1.6892  0.4965  0.6339
   7923SM   C4S10440   7.305   0.009  16.811 -0.0276  0.2394  0.2815
   7923SM   H4S10441   7.225   0.001  16.737  0.9249 -0.6426 -0.6921
   7923SM   C5S10442   7.433   0.030  16.778  0.5946 -0.2877 -0.3832
   7923SM   H5S10443   7.509   0.045  16.857  0.5702 -0.6176 -0.2965
   7923SM   C6S10444   7.484   0.054  16.640 -0.2985  0.7087 -0.0690
   7923SM   H6S10445   7.409   0.034  16.560 -0.2328  0.0966  0.0129
   7923SM   H6T10446   7.559  -0.028  16.629 -1.3420 -0.4034  0.8678
   7923SM   C7S10447   7.549   0.187  16.614  0.6211  0.3703  0.7787
   7923SM   H7S10448   7.641   0.214  16.670  1.9660 -0.1374 -1.0621
   7923SM   H7T10449   7.470   0.264  16.615 -1.2343 -1.3430 -1.3587
   7923SM   C8S10450   7.611   0.195  16.472  0.0537 -0.4632  0.0767
   7923SM   H8S10451   7.567   0.126  16.396  0.8956  1.1119 -1.9341
   7923SM   H8T10452   7.715   0.160  16.489  0.3653  0.1230 -0.5714
   7923SM   C9S10453   7.617   0.336  16.414  0.2928 -0.1983 -0.5406
   7923SM   H9S10454   7.684   0.403  16.473  1.7504 -2.0676  0.0220
   7923SM   H9T10455   7.515   0.378  16.417  0.4083  0.0740 -0.3790
   7923SM  C10S10456   7.656   0.355  16.267 -0.1984  0.2367 -0.4464
   7923SM  H10S10457   7.759   0.316  16.254 -0.2765 -0.4912  0.9143
   7923SM  H10T10458   7.656   0.464  16.248  1.3390  1.3587  4.5277
   7923SM  C11S10459   7.555   0.284  16.179 -0.4915  0.0720 -0.3047
   7923SM  H11S10460   7.454   0.309  16.217  0.1636  0.9250  0.9079
   7923SM  H11T10461   7.567   0.177  16.205  1.0812  0.8523  2.5826
   7923SM  C12S10462   7.571   0.314  16.031 -0.6718 -0.2335  0.1244
   7923SM  H12S10463   7.534   0.225  15.975  1.3942 -0.8323 -0.4178
   7923SM  H12T10464   7.677   0.301  15.998 -0.1697 -0.7776  1.8084
   7923SM  C13S10465   7.507   0.440  15.979  0.1254 -0.2734  0.7015
   7923SM  H13S10466   7.530   0.446  15.871  3.7452 -1.2503  1.2735
   7923SM  H13T10467   7.563   0.524  16.024  0.2407 -0.6098  1.2026
   7923SM  C14S10468   7.356   0.459  15.994 -0.3394  0.3026  0.3317
   7923SM  H14S10469   7.345   0.566  15.965  0.6685  0.2891 -0.1453
   7923SM  H14T10470   7.335   0.461  16.103 -0.1040  1.6095  0.3678
   7923SM  C15S10471   7.268   0.350  15.927  0.9196 -0.5214  0.6408
   7923SM  H15S10472   7.164   0.389  15.933  1.2233  0.6061 -0.8437
   7923SM  H15T10473   7.272   0.257  15.988 -3.1030 -1.0173  0.4453
   7923SM  C16S10474   7.308   0.314  15.783 -0.3515 -0.5090  0.2897
   7923SM  H16S10475   7.418   0.296  15.783 -0.6442 -2.5174 -0.1513
   7923SM  H16T10476   7.297   0.395  15.708 -0.2419 -1.6520 -1.0148
   7923SM  C17S10477   7.248   0.186  15.736  0.2620 -0.6444 -0.2574
   7923SM  H17S10478   7.228   0.136  15.833  5.0245  1.4530  2.1660
   7923SM  H17T10479   7.332   0.134  15.686  0.0340 -0.0622 -1.2724
   7923SM  C18S10480   7.130   0.211  15.645 -0.0159  0.3676  0.0938
   7923SM  H18S10481   7.084   0.118  15.605 -1.1213 -0.5246  3.1673
   7923SM  H18T10482   7.172   0.264  15.556  0.3701  0.7141  0.4795
   7923SM  H18U10483   7.048   0.271  15.691 -0.6843 -0.9810  0.6932
   7923SM   C1F10484   7.082   0.339  16.935  0.4544  0.2182 -0.2928
   7923SM    OF10485   7.167   0.413  16.986 -0.2403  0.4158 -0.3061
   7923SM   C2F10486   6.962   0.389  16.869  1.1064  0.2551 -0.5777
   7923SM   H2F10487   6.969   0.499  16.860 -2.2564  0.5253 -1.1477
   7923SM   H2G10488   6.867   0.385  16.927 -1.2124  1.9768 -3.9688
   7923SM   C3F10489   6.931   0.336  16.727  0.3760 -0.3061  0.2874
   7923SM   H3F10490   6.855   0.256  16.732 -1.1674  1.1058  0.3036
   7923SM   H3G10491   7.024   0.298  16.680  0.9707 -1.9694  2.6410
   7923SM   C4F10492   6.879   0.454  16.636 -0.5888  0.4890  0.0248
   7923SM   H4F10493   6.890   0.421  16.531 -2.5385 -2.2077  0.5336
   7923SM   H4G10494   6.944   0.541  16.655  0.4926 -0.5897  1.5290
   7923SM   C5F10495   6.732   0.493  16.662  0.4577  0.0361 -0.0154
   7923SM   H5F10496   6.731   0.527  16.768  1.6672 -1.1501  0.4122
   7923SM   H5G10497   6.671   0.401  16.648 -0.1869  0.3681  0.5619
   7923SM   C6F10498   6.682   0.600  16.571  0.2790 -0.0837  0.0666
   7923SM   H6F10499   6.574   0.615  16.592  0.3702  1.2288 -0.3317
   7923SM   H6G10500   6.688   0.565  16.466 -1.5343  0.6464 -0.3172
   7923SM   C7F10501   6.761   0.724  16.595  0.5365  0.2801 -0.5966
   7923SM   H7F10502   6.858   0.708  16.543  1.0242  0.5474  0.2198
   7923SM   H7G10503   6.783   0.742  16.702  2.7082  2.5993 -1.3393
   7923SM   C8F10504   6.696   0.851  16.535 -0.8537  0.3024 -0.2753
   7923SM   H8F10505   6.755   0.939  16.568 -1.2220  0.5597 -0.2846
   7923SM   H8G10506   6.600   0.865  16.590 -0.9078  1.3084 -0.5931
   7923SM   C9F10507   6.679   0.863  16.385  0.3612  0.1651  0.3088
   7923SM   H9F10508   6.673   0.757  16.352  0.7961  0.2712 -0.1238
   7923SM   H9G10509   6.764   0.895  16.321 -1.6140  0.2139 -2.4532
   7923SM  C10F10510   6.559   0.952  16.355 -0.0827  0.5160  0.1295
   7923SM  H10F10511   6.572   1.053  16.401  0.0067 -0.0128  1.3026
   7923SM  H10G10512   6.466   0.903  16.391  1.0304 -2.4431 -0.7458
   7923SM  C11F10513   6.545   0.967  16.200 -0.0697  0.1636 -0.0403
   7923SM  H11F10514   6.451   1.018  16.170 -1.0793 -2.5634 -1.9039
   7923SM  H11G10515   6.545   0.864  16.158 -0.5574 -0.1694  0.7527
   7923SM  C12F10516   6.661   1.041  16.133 -0.3941  0.1439  0.2316
   7923SM  H12F10517   6.751   0.976  16.127  0.5198  1.3413  0.5871
   7923SM  H12G10518   6.682   1.136  16.186  2.9779 -0.3666  0.0669
   7923SM  C13F10519   6.623   1.094  15.991 -0.3043  0.3285 -0.2159
   7923SM  H13F10520   6.708   1.157  15.960  0.7971 -1.0098 -0.0401
   7923SM  H13G10521   6.528   1.149  16.006 -0.9026 -0.4234 -1.1381
   7923SM  C14F10522   6.599   0.982  15.899 -0.2564 -0.5368  0.7768
   7923SM  H14F10523   6.508   0.932  15.938  0.3821 -0.6377  2.2070
   7923SM  H14G10524   6.680   0.907  15.891  0.8468  0.6963 -0.2392
   7923SM  C15F10525   6.565   1.026  15.752  0.3552  0.3914  0.1306
   7923SM  H15F10526   6.536   0.934  15.697  1.6953  0.0439 -0.0163
   7923SM  H15G10527   6.654   1.060  15.696  1.1076 -0.1939  0.9472
   7923SM  C16F10528   6.455   1.133  15.746 -0.2271 -0.1088 -0.1044
   7923SM  H16F10529   6.498   1.221  15.797  2.0093 -1.3125  0.2379
   7923SM  H16G10530   6.370   1.119  15.815  0.0249  0.6067  0.3595
   7923SM  C17F10531   6.393   1.148  15.604 -0.0717  0.5394  0.2953
   7923SM  H17F10532   6.309   1.220  15.614  1.1087  2.2074 -1.1807
   7923SM  H17G10533   6.375   1.044  15.570 -1.5565  0.2324  1.8904
   7923SM  C18F10534   6.484   1.216  15.502  0.1772  0.0140 -0.0683
   7923SM  H18F10535   6.572   1.150  15.484  0.0231 -0.4982  0.9602
   7923SM  H18G10536   6.510   1.319  15.533  1.7169 -0.4585  0.3395
   7923SM  C19F10537   6.411   1.237  15.367 -0.2872 -0.0287  0.0684
   7923SM  H19F10538   6.318   1.293  15.390  0.8051  1.0249  2.2926
   7923SM  H19G10539   6.378   1.135  15.340  1.5754 -0.0722 -2.4133
   7923SM  C20F10540   6.486   1.315  15.255 -0.3495 -0.2322  0.2450
   7923SM  H20F10541   6.575   1.251  15.239  0.9186  0.8377  2.4502
   7923SM  H20G10542   6.516   1.411  15.302  0.0212 -0.1886 -0.0838
   7923SM  C21F10543   6.413   1.333  15.120  0.2812 -0.4961  0.7418
   7923SM  H21F10544   6.320   1.391  15.138  0.3411 -0.9376  2.7184
   7923SM  H21G10545   6.375   1.234  15.087  0.6570 -0.3704 -0.0883
   7923SM  C22F10546   6.503   1.389  15.006 -0.0563 -1.1948 -0.7621
   7923SM  H22F10547   6.445   1.373  14.913 -0.6596 -0.1292 -0.5887
   7923SM  H22G10548   6.598   1.331  15.002  1.1811  0.7566 -1.1338
   7923SM  C23F10549   6.540   1.540  15.012  0.3808  0.1745 -0.1480
   7923SM  H23F10550   6.609   1.554  15.097 -1.3188 -3.3184  2.0505
   7923SM  H23G10551   6.444   1.587  15.040  0.3818 -1.1667  2.3775
   7923SM  H23H10552   6.591   1.583  14.923 -1.3724 -1.2928 -1.9555
   8023SM     N10553   0.644   0.125  17.778  0.4654 -0.1826 -0.1676
   8023SM   C1510554   0.659   0.236  17.879  0.5021 -0.6170 -0.2388
   8023SM  H15A10555   0.583   0.229  17.956  0.9234  0.7863  0.3357
   8023SM  H15B10556   0.646   0.333  17.833  1.3094 -1.0930 -1.4982
   8023SM  H15C10557   0.759   0.235  17.919  0.1796 -0.8218  0.5861
   8023SM   C1410558   0.737   0.141  17.672  0.0103 -0.3016  0.7071
   8023SM  H14A10559   0.736   0.241  17.631 -1.3120 -0.7809 -0.4728
   8023SM  H14B10560   0.713   0.074  17.591 -2.5692 -0.9353  1.8739
   8023SM  H14C10561   0.835   0.114  17.707  0.1811 -0.1393  0.3602
   8023SM   C1310562   0.676  -0.007  17.852 -0.7235 -0.1457  0.2005
   8023SM  H13A10563   0.782  -0.009  17.873 -0.4838  0.3153 -0.9465
   8023SM  H13B10564   0.652  -0.098  17.800  1.0149 -1.6869  1.9120
   8023SM  H13C10565   0.625  -0.009  17.948  0.2351  0.6187  0.7470
   8023SM   C1210566   0.501   0.111  17.734  0.3735 -0.6328 -0.1458
   8023SM  H12A10567   0.437   0.109  17.821  1.0333 -0.6371  0.3365
   8023SM  H12B10568   0.483   0.021  17.676 -0.1892 -0.0612 -0.8958
   8023SM   C1110569   0.440   0.220  17.643  0.4571 -0.0799  0.1809
   8023SM  H11A10570   0.452   0.325  17.677 -0.6716 -0.0372  0.4856
   8023SM  H11B10571   0.330   0.207  17.635  0.7127 -1.2083 -3.5325
   8023SM     P10572   0.451   0.071  17.422  0.1875 -0.3147  0.0489
   8023SM   O1310573   0.576  -0.002  17.395  0.3222 -0.0367 -0.0139
   8023SM   O1410574   0.333  -0.000  17.477 -0.1654  0.3093 -0.3391
   8023SM   O1110575   0.395   0.136  17.290  0.2539  0.2191  0.4144
   8023SM   O1210576   0.488   0.205  17.510 -0.2133  0.5918 -0.6624
   8023SM   C1S10577   0.420   0.262  17.232  0.5318 -0.2370  0.8463
   8023SM   H1S10578   0.521   0.302  17.253  1.1160 -0.1140 -1.8828
   8023SM   H1T10579   0.340   0.336  17.254 -0.9038 -1.9632  1.7311
   8023SM    NF10580   0.492   0.370  17.016  0.3334  0.0261 -0.7324
   8023SM   HNF10581   0.446   0.448  16.975  1.1664  0.2726 -1.2364
   8023SM   C2S10582   0.426   0.249  17.075 -0.2241  0.6062  0.5691
   8023SM   H2S10583   0.483   0.156  17.057 -0.1925  0.7473 -0.0541
   8023SM   C3S10584   0.282   0.232  17.016  0.3209  0.8331  0.1474
   8023SM   H3S10585   0.217   0.321  17.026  0.5528  1.1553 -1.0259
   8023SM    O310586   0.213   0.134  17.091  0.1916 -0.1487  0.0616
   8023SM   HO310587   0.249   0.150  17.179 -2.8581  1.5060  1.1580
   8023SM   C4S10588   0.297   0.175  16.873 -0.5205  0.0969  0.0771
   8023SM   H4S10589   0.278   0.068  16.858 -0.3105  0.0259  0.3141
   8023SM   C5S10590   0.311   0.254  16.760  0.1951  0.2427  0.4554
   8023SM   H5S10591   0.332   0.359  16.784  3.4175 -0.3190  0.4889
   8023SM   C6S10592   0.324   0.203  16.617  0.4393  0.0396 -0.2782
   8023SM   H6S10593   0.265   0.259  16.542  2.2863 -0.8739 -2.5508
   8023SM   H6T10594   0.282   0.102  16.597 -1.8155  0.6912  0.9065
   8023SM   C7S10595   0.474   0.223  16.574 -0.2184  0.3944 -0.2925
   8023SM   H7S10596   0.534   0.163  16.645 -1.5058 -0.9298 -0.2943
   8023SM   H7T10597   0.507   0.329  16.579  2.2882 -0.2372 -1.6235
   8023SM   C8S10598   0.497   0.166  16.434 -0.1454 -0.6902 -0.4965
   8023SM   H8S10599   0.479   0.057  16.441 -1.1712 -0.4478  1.2534
   8023SM   H8T10600   0.605   0.181  16.414 -0.1738 -0.2590 -0.3467
   8023SM   C9S10601   0.407   0.226  16.321  0.3615 -0.2245  0.4272
   8023SM   H9S10602   0.400   0.336  16.335 -0.7545 -0.3271  0.8469
   8023SM   H9T10603   0.303   0.187  16.334  0.4048 -0.8044 -0.8149
   8023SM  C10S10604   0.453   0.197  16.176  0.3184 -0.1048  0.8328
   8023SM  H10S10605   0.468   0.088  16.185 -2.5748 -0.5897  0.7202
   8023SM  H10T10606   0.545   0.254  16.151  0.3821 -0.4684  0.2311
   8023SM  C11S10607   0.340   0.220  16.073 -0.1754  0.7087 -0.1465
   8023SM  H11S10608   0.320   0.329  16.072  0.4513  0.8241 -0.4112
   8023SM  H11T10609   0.243   0.181  16.109  0.3026  1.7398  2.5083
   8023SM  C12S10610   0.363   0.153  15.937 -0.3424 -0.0217  0.0149
   8023SM  H12S10611   0.352   0.042  15.945 -1.3652  0.1299  1.0386
   8023SM  H12T10612   0.461   0.183  15.894  0.9312 -1.3817  1.7894
   8023SM  C13S10613   0.244   0.191  15.840 -0.2935  0.2538 -0.1090
   8023SM  H13S10614   0.238   0.301  15.827  0.6512  0.5446  1.6466
   8023SM  H13T10615   0.151   0.146  15.881  0.2171 -0.0891  0.6814
   8023SM  C14S10616   0.270   0.128  15.705  0.9724  0.2026 -0.3537
   8023SM  H14S10617   0.304   0.025  15.729  0.6617  0.2927  0.5222
   8023SM  H14T10618   0.348   0.181  15.645  0.5103 -0.6695 -1.7682
   8023SM  C15S10619   0.133   0.136  15.619 -0.1627 -0.1006 -0.0276
   8023SM  H15S10620   0.055   0.094  15.686 -1.4506 -1.2893 -2.1646
   8023SM  H15T10621   0.148   0.070  15.531  0.3783  0.0631 -0.0624
   8023SM  C16S10622   0.100   0.277  15.563  0.3502  0.2577  0.2188
   8023SM  H16S10623   0.191   0.329  15.525 -0.7868  1.7402 -0.6187
   8023SM  H16T10624   0.076   0.341  15.651 -1.5229 -0.3529  0.2009
   8023SM  C17S10625  -0.010   0.258  15.460 -0.4027  0.1933 -0.3314
   8023SM  H17S10626  -0.099   0.209  15.505  0.1821 -2.5293 -1.9442
   8023SM  H17T10627   0.036   0.197  15.380  2.2450 -0.3301  1.4367
   8023SM  C18S10628  -0.057   0.397  15.407  0.5957  0.2077  0.4851
   8023SM  H18S10629  -0.132   0.386  15.326  0.9077  1.3432  0.0260
   8023SM  H18T10630   0.030   0.453  15.367  0.2866  0.8767  0.7426
   8023SM  H18U10631  -0.101   0.455  15.491  2.4871  0.2296  1.5294
   8023SM   C1F10632   0.627   0.390  17.018  0.1541 -0.1936 -0.2188
   8023SM    OF10633   0.703   0.309  17.072  0.1970 -0.0345 -0.2075
   8023SM   C2F10634   0.685   0.506  16.948  0.7031 -0.4262 -0.7037
   8023SM   H2F10635   0.784   0.521  16.995  0.5705 -2.5157  0.3769
   8023SM   H2G10636   0.622   0.593  16.975  1.7586 -0.1350  0.9545
   8023SM   C3F10637   0.683   0.477  16.793  0.2312  1.3749 -0.1877
   8023SM   H3F10638   0.575   0.490  16.768 -0.4246 -1.9004  0.3910
   8023SM   H3G10639   0.701   0.370  16.770  0.5482  0.8819  2.1157
   8023SM   C4F10640   0.767   0.568  16.712  0.0858 -0.2327  0.2131
   8023SM   H4F10641   0.875   0.551  16.734 -0.4439 -2.5899  1.2354
   8023SM   H4G10642   0.736   0.669  16.747 -1.9316 -0.3569 -1.0481
   8023SM   C5F10643   0.739   0.549  16.559  0.0218  0.2622 -0.8773
   8023SM   H5F10644   0.630   0.550  16.539  0.0447 -1.8061 -1.3842
   8023SM   H5G10645   0.780   0.450  16.530  0.9875  0.7632 -1.2940
   8023SM   C6F10646   0.812   0.660  16.483  0.5344  0.7375  0.2749
   8023SM   H6F10647   0.918   0.674  16.513  0.4023  0.3925  0.9416
   8023SM   H6G10648   0.765   0.757  16.511  0.0628 -0.0868  2.5785
   8023SM   C7F10649   0.817   0.621  16.333  0.3205 -0.8125  0.2841
   8023SM   H7F10650   0.868   0.522  16.328  1.8085 -0.1184  0.9506
   8023SM   H7G10651   0.878   0.698  16.281 -0.1678 -0.7618 -0.2172
   8023SM   C8F10652   0.679   0.617  16.254  0.5842 -0.3455  0.1300
   8023SM   H8F10653   0.618   0.710  16.257  0.3727 -0.4720 -0.1515
   8023SM   H8G10654   0.622   0.547  16.319  2.7805 -0.9082  1.5653
   8023SM   C9F10655   0.696   0.551  16.120 -0.0235  0.2632  0.1206
   8023SM   H9F10656   0.603   0.496  16.094 -0.1267  0.2263  0.5625
   8023SM   H9G10657   0.778   0.476  16.112 -0.1797  0.2952 -3.1390
   8023SM  C10F10658   0.730   0.641  15.999 -0.0633 -0.5085  0.0775
   8023SM  H10F10659   0.825   0.696  16.016 -0.5151  0.3840 -0.1832
   8023SM  H10G10660   0.658   0.726  15.992  0.7479  0.4958  2.6108
   8023SM  C11F10661   0.732   0.555  15.873  0.5655  0.3902  0.1260
   8023SM  H11F10662   0.627   0.521  15.858  0.9876 -1.2241  0.7474
   8023SM  H11G10663   0.793   0.468  15.902  0.5144  0.1147 -0.5653
   8023SM  C12F10664   0.792   0.615  15.749 -1.2978  0.0240 -0.1382
   8023SM  H12F10665   0.898   0.649  15.759 -1.7127  1.3373  0.0873
   8023SM  H12G10666   0.724   0.701  15.733 -0.8913  0.7086  1.5010
   8023SM  C13F10667   0.789   0.523  15.629  0.1723  0.5446 -0.1691
   8023SM  H13F10668   0.698   0.462  15.646  2.1314 -2.2946  0.9058
   8023SM  H13G10669   0.873   0.451  15.637 -1.0047 -0.7273  1.2325
   8023SM  C14F10670   0.775   0.587  15.490 -0.2985  0.3322 -0.9857
   8023SM  H14F10671   0.874   0.628  15.463 -0.9606  2.3044 -0.5967
   8023SM  H14G10672   0.699   0.668  15.490  0.7079  1.3059 -1.5643
   8023SM  C15F10673   0.727   0.479  15.384  0.1526 -0.7127 -0.6507
   8023SM  H15F10674   0.628   0.455  15.429  1.2346 -3.3538  0.5429
   8023SM  H15G10675   0.791   0.388  15.388  1.7029  0.3851  1.3457
   8023SM  C16F10676   0.711   0.549  15.251 -0.0195 -0.3529  0.0001
   8023SM  H16F10677   0.687   0.657  15.263  1.6106 -0.0657  0.8870
   8023SM  H16G10678   0.630   0.497  15.195  0.2742  0.7376 -1.4923
   8023SM  C17F10679   0.846   0.545  15.177 -0.6956 -0.5931  0.4709
   8023SM  H17F10680   0.919   0.587  15.249  0.6536 -1.5547 -0.2858
   8023SM  H17G10681   0.843   0.611  15.087  3.1898 -0.5260  0.2288
   8023SM  C18F10682   0.894   0.402  15.133 -0.2961  0.3211  0.3887
   8023SM  H18F10683   0.802   0.349  15.101 -0.7492  2.3294 -1.9654
   8023SM  H18G10684   0.939   0.340  15.213 -0.0012  0.3449  0.2428
   8023SM  C19F10685   0.999   0.421  15.026  0.7808 -0.6328 -0.6242
   8023SM  H19F10686   1.092   0.453  15.079  0.9132 -2.2478  0.1906
   8023SM  H19G10687   0.970   0.504  14.959  0.2939  0.6664  1.1149
   8023SM  C20F10688   1.024   0.285  14.956 -0.1626 -0.5834  0.4740
   8023SM  H20F10689   0.931   0.264  14.900 -1.3851  1.8153  1.4954
   8023SM  H20G10690   1.032   0.212  15.040 -0.8183  1.4088  2.3435
   8023SM  C21F10691   1.151   0.278  14.864  0.4361  0.2613  0.1169
   8023SM  H21F10692   1.243   0.301  14.921 -0.4281 -0.1754  1.7332
   8023SM  H21G10693   1.127   0.358  14.790  1.3705  1.9637  1.5703
   8023SM  C22F10694   1.176   0.139  14.807 -0.6166 -0.0296 -0.3645
   8023SM  H22F10695   1.094   0.111  14.737 -0.5638 -0.3780 -0.2847
   8023SM  H22G10696   1.149   0.052  14.870 -0.4994 -0.1942 -0.5408
   8023SM  C23F10697   1.315   0.117  14.747  0.2962 -0.1531  0.2305
   8023SM  H23F10698   1.398   0.092  14.816 -0.0893 -0.2795  0.6541
   8023SM  H23G10699   1.330   0.206  14.682 -0.9040 -0.2704 -0.2351
   8023SM  H23H10700   1.305   0.033  14.675  0.6498 -0.4154  0.4855
   8123SM     N10701   4.568   3.761  12.729 -0.2953 -0.3075  0.6997
   8123SM   C1510702   4.533   3.649  12.828 -0.4250  0.6474 -0.1652
   8123SM  H15A10703   4.620   3.600  12.870  0.0487  2.6537  1.2982
   8123SM  H15B10704   4.486   3.566  12.776  0.8221 -0.4161  0.3442
   8123SM  H15C10705   4.476   3.683  12.913 -2.6688  0.9762 -1.6918
   8123SM   C1410706   4.624   3.883  12.793 -0.1788 -0.3251 -0.7192
   8123SM  H14A10707   4.721   3.866  12.836  0.3369  1.1372 -1.2430
   8123SM  H14B10708   4.561   3.900  12.879  2.2821 -0.9312  1.3256
   8123SM  H14C10709   4.630   3.974  12.736  1.0378  1.3505  1.8904
   8123SM   C1310710   4.676   3.710  12.639  0.6194  0.6055  0.1449
   8123SM  H13A10711   4.759   3.680  12.702 -0.0731  0.8684  1.2156
   8123SM  H13B10712   4.713   3.781  12.567  0.1805  0.1928 -0.4977
   8123SM  H13C10713   4.643   3.624  12.582 -1.3695  0.0152  2.0306
   8123SM   C1210714   4.453   3.790  12.641  0.3286 -0.5437  0.2205
   8123SM  H12A10715   4.420   3.704  12.585  1.9490 -1.3074  0.3799
   8123SM  H12B10716   4.479   3.869  12.572  0.2162 -0.4728  0.2579
   8123SM   C1110717   4.337   3.849  12.713 -0.3973 -0.2326 -0.0933
   8123SM  H11A10718   4.359   3.913  12.802 -2.8055  0.0588  0.3892
   8123SM  H11B10719   4.275   3.767  12.754 -0.4663  0.5747  1.5170
   8123SM     P10720   4.290   4.086  12.611 -0.3162 -0.2665 -0.1476
   8123SM   O1310721   4.430   4.100  12.559 -0.1981  0.2764 -0.9576
   8123SM   O1410722   4.183   4.162  12.532  0.2752 -0.2815  0.0388
   8123SM   O1110723   4.287   4.143  12.763  0.4386 -0.1039  0.8063
   8123SM   O1210724   4.259   3.932  12.623  0.0615  0.3516  0.2800
   8123SM   C1S10725   4.176   4.115  12.844  0.6420  0.2091  0.2888
   8123SM   H1S10726   4.162   4.009  12.872 -2.2627  0.3036 -0.4691
   8123SM   H1T10727   4.083   4.147  12.792  1.2361  2.5383  0.5377
   8123SM    NF10728   4.076   4.143  13.076 -0.9141 -0.3510  0.6552
   8123SM   HNF10729   3.998   4.200  13.097 -0.1852  1.6506 -1.5567
   8123SM   C2S10730   4.172   4.197  12.974  0.1279 -0.3430 -0.4978
   8123SM   H2S10731   4.273   4.194  13.019 -0.4015 -0.5564  0.7385
   8123SM   C3S10732   4.138   4.348  12.943  0.0089 -0.0387 -1.3228
   8123SM   H3S10733   4.030   4.343  12.917 -0.1477 -0.0421 -0.6916
   8123SM    O310734   4.209   4.403  12.833  0.2508  0.4205 -0.1537
   8123SM   HO310735   4.267   4.332  12.806 -0.1263 -0.3251  0.9570
   8123SM   C4S10736   4.170   4.433  13.069  0.1563 -0.4866  0.0661
   8123SM   H4S10737   4.093   4.447  13.146  0.3932  0.6512  0.1121
   8123SM   C5S10738   4.289   4.488  13.098 -0.2107 -0.1659  0.8235
   8123SM   H5S10739   4.368   4.484  13.021 -0.9661  0.9660 -0.0472
   8123SM   C6S10740   4.325   4.563  13.221 -0.0946 -0.1356 -0.5007
   8123SM   H6S10741   4.290   4.669  13.221 -0.4803 -0.2437  0.8373
   8123SM   H6T10742   4.435   4.554  13.233 -0.1804 -0.0557  0.4657
   8123SM   C7S10743   4.270   4.492  13.346  0.1397 -0.5302 -0.5616
   8123SM   H7S10744   4.291   4.383  13.343 -1.0096 -0.8767  1.9503
   8123SM   H7T10745   4.159   4.495  13.346  0.0868  3.1207  0.8225
   8123SM   C8S10746   4.316   4.551  13.481  1.0871 -0.6028  0.1344
   8123SM   H8S10747   4.279   4.654  13.496  2.5547 -0.3891  2.9588
   8123SM   H8T10748   4.425   4.566  13.497  0.4329  2.5015  2.4497
   8123SM   C9S10749   4.265   4.472  13.603  0.1521  0.2343  0.1803
   8123SM   H9S10750   4.294   4.367  13.583  1.3706  0.7900 -1.1609
   8123SM   H9T10751   4.154   4.480  13.610  0.2003  0.8797  0.2794
   8123SM  C10S10752   4.327   4.521  13.726 -0.1942  0.0084  0.6052
   8123SM  H10S10753   4.308   4.630  13.728 -0.8163 -0.0686 -0.5288
   8123SM  H10T10754   4.436   4.499  13.716 -0.4690 -1.3538  0.4108
   8123SM  C11S10755   4.271   4.445  13.843  0.0475 -0.3049  0.5753
   8123SM  H11S10756   4.274   4.340  13.807  0.9065 -0.0310 -0.2048
   8123SM  H11T10757   4.164   4.476  13.845 -0.1468 -0.9623  0.6981
   8123SM  C12S10758   4.330   4.472  13.979 -0.3982  0.8526  0.2722
   8123SM  H12S10759   4.284   4.562  14.025 -0.7751 -0.3377  2.3368
   8123SM  H12T10760   4.439   4.493  13.978 -0.2880  0.7414  2.9184
   8123SM  C13S10761   4.323   4.352  14.069 -0.0042 -0.0565  0.2904
   8123SM  H13S10762   4.380   4.267  14.025  1.0324  0.0100  1.4537
   8123SM  H13T10763   4.215   4.324  14.064  0.4678 -1.9887  0.1227
   8123SM  C14S10764   4.369   4.361  14.208  0.7195  0.1948 -0.4302
   8123SM  H14S10765   4.312   4.447  14.250  2.0512  0.1682  1.5932
   8123SM  H14T10766   4.478   4.382  14.205  0.9588 -0.9309 -0.2577
   8123SM  C15S10767   4.343   4.234  14.300  0.4966 -0.0379 -0.8577
   8123SM  H15S10768   4.395   4.249  14.397  0.2405 -0.7800 -0.5998
   8123SM  H15T10769   4.388   4.142  14.256  0.8876  1.0434 -2.8692
   8123SM  C16S10770   4.197   4.204  14.329 -0.2123 -0.0034  0.3487
   8123SM  H16S10771   4.192   4.097  14.362  0.4180  0.7023  2.9645
   8123SM  H16T10772   4.131   4.228  14.243  0.5540  1.1342  0.0689
   8123SM  C17S10773   4.138   4.280  14.448 -0.1257 -0.2892 -0.8424
   8123SM  H17S10774   4.029   4.260  14.455 -0.1492  0.3844  1.5590
   8123SM  H17T10775   4.133   4.389  14.427  1.7946 -0.2392 -1.2169
   8123SM  C18S10776   4.200   4.257  14.581 -0.2816  0.3224 -0.1875
   8123SM  H18S10777   4.215   4.149  14.603 -3.0120  0.0749  0.7844
   8123SM  H18T10778   4.146   4.307  14.664 -0.4627 -0.1416 -0.0244
   8123SM  H18U10779   4.305   4.295  14.580  0.4590 -1.5482  1.3205
   8123SM   C1F10780   4.099   4.037  13.139 -0.4616  0.1069 -0.4474
   8123SM    OF10781   4.202   3.963  13.128  0.0957 -1.2061 -0.0360
   8123SM   C2F10782   3.988   3.998  13.236 -0.5587 -0.1550 -0.4781
   8123SM   H2F10783   4.001   3.888  13.237  1.4130  0.0307 -0.7454
   8123SM   H2G10784   3.887   4.029  13.204 -0.8912  1.7491  2.0908
   8123SM   C3F10785   4.012   4.054  13.383  0.5291  0.4538  0.1674
   8123SM   H3F10786   4.118   4.032  13.410  0.5424 -1.8096 -1.5194
   8123SM   H3G10787   3.951   3.994  13.454 -0.0465 -1.0968 -1.5801
   8123SM   C4F10788   3.969   4.206  13.396  0.2021  0.2425 -0.1930
   8123SM   H4F10789   3.859   4.214  13.394  0.2546  1.5095  0.6439
   8123SM   H4G10790   4.026   4.265  13.321  0.5775  1.3051  0.8786
   8123SM   C5F10791   4.014   4.259  13.533  0.4734  0.1037 -0.1515
   8123SM   H5F10792   4.007   4.369  13.521  2.0917  0.4550  1.6947
   8123SM   H5G10793   4.121   4.233  13.545  0.5497  0.8734  0.8947
   8123SM   C6F10794   3.934   4.208  13.652  0.2112 -0.6323 -0.1234
   8123SM   H6F10795   3.951   4.099  13.660  0.3427 -0.5593  0.6547
   8123SM   H6G10796   3.826   4.212  13.629  0.6017  1.0561 -2.0018
   8123SM   C7F10797   3.978   4.270  13.783 -0.2063 -0.7244  0.0137
   8123SM   H7F10798   3.994   4.379  13.765 -5.0378  0.0575 -1.1838
   8123SM   H7G10799   4.077   4.225  13.801 -0.0868 -1.0920 -1.5147
   8123SM   C8F10800   3.879   4.251  13.900 -0.5445  0.0112 -0.0345
   8123SM   H8F10801   3.833   4.150  13.894  0.9999 -0.6571 -2.8691
   8123SM   H8G10802   3.800   4.328  13.889  2.6883  3.4711 -1.4568
   8123SM   C9F10803   3.940   4.278  14.039  0.6719  0.2958  0.3617
   8123SM   H9F10804   3.992   4.375  14.024  0.7653 -0.0511 -1.8442
   8123SM   H9G10805   4.015   4.201  14.062  1.0045  0.0294 -1.4920
   8123SM  C10F10806   3.836   4.277  14.158 -0.4933  0.0734 -0.2066
   8123SM  H10F10807   3.760   4.357  14.146 -0.6469 -0.1173 -0.5192
   8123SM  H10G10808   3.890   4.287  14.255  0.1209  1.6289 -0.6826
   8123SM  C11F10809   3.761   4.142  14.165  0.4925 -0.5121 -0.1840
   8123SM  H11F10810   3.715   4.132  14.064 -2.4631 -0.5629  1.0668
   8123SM  H11G10811   3.677   4.160  14.235  1.7555  0.3913  1.1417
   8123SM  C12F10812   3.840   4.013  14.206  0.5448 -0.3225 -0.4361
   8123SM  H12F10813   3.892   4.024  14.303  1.4280  2.2500 -1.1107
   8123SM  H12G10814   3.917   4.005  14.127 -0.3891 -0.8101 -1.3279
   8123SM  C13F10815   3.744   3.889  14.222  0.0178 -0.6400 -0.2671
   8123SM  H13F10816   3.709   3.874  14.118 -0.1165 -0.5382 -0.2362
   8123SM  H13G10817   3.654   3.926  14.275 -0.7323  0.0569 -1.9441
   8123SM  C14F10818   3.817   3.778  14.297  0.4954 -0.8012  0.3465
   8123SM  H14F10819   3.848   3.818  14.395 -0.1896  0.3255  0.1226
   8123SM  H14G10820   3.912   3.758  14.242  1.0701  0.9730  0.6263
   8123SM  C15F10821   3.736   3.650  14.325  0.2625  0.7279  0.0473
   8123SM  H15F10822   3.701   3.600  14.233 -1.8843  0.0799  1.1381
   8123SM  H15G10823   3.646   3.690  14.377 -0.9633 -0.7060 -0.8786
   8123SM  C16F10824   3.807   3.552  14.421 -0.1398 -0.4489  0.5742
   8123SM  H16F10825   3.845   3.609  14.509  0.3455  0.2452 -0.0714
   8123SM  H16G10826   3.897   3.510  14.371  0.2165 -1.8259  2.2595
   8123SM  C17F10827   3.714   3.440  14.457  0.0491 -0.1501 -0.4736
   8123SM  H17F10828   3.679   3.400  14.359 -2.9370  2.0778 -0.4458
   8123SM  H17G10829   3.624   3.482  14.507  0.8186 -1.2769  1.9912
   8123SM  C18F10830   3.776   3.339  14.555 -0.1673  0.4501  0.2057
   8123SM  H18F10831   3.821   3.400  14.636  0.5549 -0.2680  0.3541
   8123SM  H18G10832   3.854   3.287  14.495 -0.0100  1.4607 -0.4979
   8123SM  C19F10833   3.683   3.224  14.611 -0.3039  0.2392  0.1855
   8123SM  H19F10834   3.752   3.154  14.663 -0.8185 -2.0274 -1.9882
   8123SM  H19G10835   3.636   3.160  14.533 -0.4864 -0.1046  0.5665
   8123SM  C20F10836   3.572   3.289  14.694  0.2476 -0.2051 -0.3667
   8123SM  H20F10837   3.506   3.358  14.638  2.1384 -0.5835 -3.2786
   8123SM  H20G10838   3.628   3.350  14.769  1.4796  0.1253 -1.5150
   8123SM  C21F10839   3.492   3.181  14.779  0.1183 -0.0547  0.5482
   8123SM  H21F10840   3.560   3.096  14.797 -0.9300 -0.6485  1.8671
   8123SM  H21G10841   3.412   3.151  14.708  1.6153 -1.5766 -0.5697
   8123SM  C22F10842   3.438   3.233  14.919 -0.0792  0.0008  0.2786
   8123SM  H22F10843   3.525   3.289  14.958  0.3334  1.8309 -2.9804
   8123SM  H22G10844   3.399   3.156  14.989 -0.2557 -1.5632 -1.4754
   8123SM  C23F10845   3.332   3.338  14.901 -0.3009 -0.3440 -0.1331
   8123SM  H23F10846   3.297   3.381  14.998  0.0303  1.0649 -0.6287
   8123SM  H23G10847   3.244   3.303  14.843 -1.3794  0.1656  1.1314
   8123SM  H23H10848   3.378   3.414  14.835  1.9576 -0.3228  1.3623
   8223SM     N10849   4.893   4.297  12.197 -0.0955  0.0286  0.0115
   8223SM   C1510850   4.806   4.407  12.143  0.0962 -0.5255 -0.1837
   8223SM  H15A10851   4.705   4.409  12.179  0.0344 -0.3106 -0.3655
   8223SM  H15B10852   4.808   4.405  12.035 -1.0925 -0.2448 -0.2271
   8223SM  H15C10853   4.852   4.500  12.175  0.6421 -0.6504 -0.5752
   8223SM   C1410854   4.818   4.175  12.168 -0.0391 -0.0149  0.4093
   8223SM  H14A10855   4.851   4.128  12.077  1.5223 -2.0466  1.9348
   8223SM  H14B10856   4.711   4.182  12.177 -0.0372 -0.9048  1.2293
   8223SM  H14C10857   4.844   4.107  12.247 -0.8711  2.0896  2.6301
   8223SM   C1310858   5.028   4.294  12.138  0.1112  0.7234 -0.1534
   8223SM  H13A10859   5.028   4.270  12.032  1.8820  2.0308 -0.5029
   8223SM  H13B10860   5.079   4.215  12.190 -0.8981  0.9194  1.1905
   8223SM  H13C10861   5.085   4.386  12.149  1.3053  0.2146 -1.6067
   8223SM   C1210862   4.901   4.317  12.347  0.2792 -1.1042  0.0861
   8223SM  H12A10863   4.931   4.223  12.390 -0.0507 -1.2210  0.0697
   8223SM  H12B10864   4.801   4.341  12.380  0.7464  1.8752 -0.4014
   8223SM   C1110865   5.005   4.419  12.410  0.5056 -0.0835  0.0867
   8223SM  H11A10866   5.105   4.391  12.372  1.7929  0.7246  2.6825
   8223SM  H11B10867   4.987   4.398  12.518  0.3016 -0.5902 -0.0436
   8223SM     P10868   5.070   4.670  12.393 -0.1740  0.0287  0.0881
   8223SM   O1310869   5.197   4.631  12.324  0.4042 -0.3762  0.5284
   8223SM   O1410870   5.010   4.799  12.353  0.7228  0.0601  0.6275
   8223SM   O1110871   5.098   4.667  12.548 -0.1442  0.6023 -0.5206
   8223SM   O1210872   4.964   4.556  12.370  0.1120 -0.2189  0.1728
   8223SM   C1S10873   4.996   4.654  12.648  0.5918 -0.5683  0.3634
   8223SM   H1S10874   4.932   4.565  12.627 -0.3854 -0.3866  2.2943
   8223SM   H1T10875   4.923   4.738  12.648 -1.3002 -2.1438  0.4043
   8223SM    NF10876   4.949   4.613  12.905 -0.2281 -1.1847  0.2836
   8223SM   HNF10877   4.924   4.687  12.967  0.9569 -0.1430 -0.4326
   8223SM   C2S10878   5.051   4.638  12.801  0.4383  0.0353  0.1215
   8223SM   H2S10879   5.124   4.554  12.797 -0.5794 -0.8595  0.1797
   8223SM   C3S10880   5.132   4.765  12.832 -0.0950 -0.7344 -0.3015
   8223SM   H3S10881   5.054   4.843  12.841 -0.0595 -0.8084  0.8343
   8223SM    O310882   5.227   4.812  12.735  0.3232 -0.3543  0.2997
   8223SM   HO310883   5.200   4.763  12.657  0.3928 -1.9406  1.2261
   8223SM   C4S10884   5.207   4.741  12.964 -0.7156 -0.6707 -0.1618
   8223SM   H4S10885   5.253   4.641  12.971  1.6013  0.2187 -1.6659
   8223SM   C5S10886   5.234   4.830  13.057  0.0520  0.2003  0.5375
   8223SM   H5S10887   5.208   4.935  13.035 -0.0077  0.0730 -0.0269
   8223SM   C6S10888   5.312   4.814  13.181  0.2737  0.2165 -0.6775
   8223SM   H6S10889   5.402   4.880  13.186 -0.5749  1.4593 -1.3891
   8223SM   H6T10890   5.349   4.711  13.199 -0.4819 -0.0330 -0.5312
   8223SM   C7S10891   5.218   4.856  13.302  0.6771 -0.0216 -0.1132
   8223SM   H7S10892   5.126   4.794  13.306  0.8895 -0.3500  3.6102
   8223SM   H7T10893   5.198   4.963  13.277 -1.4768 -0.0810  1.1108
   8223SM   C8S10894   5.286   4.850  13.433 -0.7706  0.5398  0.1781
   8223SM   H8S10895   5.235   4.918  13.505 -0.1946  1.1719  0.0045
   8223SM   H8T10896   5.391   4.889  13.431 -0.3975 -0.4182  0.4985
   8223SM   C9S10897   5.299   4.709  13.498  0.3708 -0.0803  0.4795
   8223SM   H9S10898   5.328   4.640  13.415 -1.2588  0.8392 -0.9068
   8223SM   H9T10899   5.203   4.675  13.542  0.4522  0.3532  1.0034
   8223SM  C10S10900   5.405   4.705  13.607  0.4168  0.1862  0.8762
   8223SM  H10S10901   5.502   4.735  13.562  0.6576 -0.7022  0.7731
   8223SM  H10T10902   5.427   4.596  13.620 -1.3982 -0.3437 -0.0798
   8223SM  C11S10903   5.376   4.788  13.738 -0.9191  0.0035 -0.4176
   8223SM  H11S10904   5.272   4.763  13.765 -0.7932 -1.8397 -1.4540
   8223SM  H11T10905   5.392   4.896  13.717  3.4771 -0.5963 -1.1993
   8223SM  C12S10906   5.487   4.759  13.838  0.1592  0.2829 -0.3443
   8223SM  H12S10907   5.586   4.776  13.792 -0.3979  2.8906 -0.6973
   8223SM  H12T10908   5.479   4.657  13.882 -0.9469  0.1669 -0.7714
   8223SM  C13S10909   5.477   4.859  13.958  0.1270  0.1096 -0.1193
   8223SM  H13S10910   5.372   4.864  13.994  0.7302  2.1653  1.5475
   8223SM  H13T10911   5.501   4.958  13.914  0.7791  0.4580  0.9846
   8223SM  C14S10912   5.586   4.836  14.068  0.2054  1.0661 -0.1573
   8223SM  H14S10913   5.682   4.851  14.015  0.1565  0.8276 -0.3148
   8223SM  H14T10914   5.565   4.729  14.086 -2.4495  1.6084  0.4789
   8223SM  C15S10915   5.568   4.913  14.195 -0.0219 -0.1674  0.5670
   8223SM  H15S10916   5.474   4.885  14.247  0.7625 -1.8781  1.1415
   8223SM  H15T10917   5.563   5.022  14.174  1.2560 -0.0750  0.6469
   8223SM  C16S10918   5.686   4.879  14.286  0.4527 -0.0721 -0.3667
   8223SM  H16S10919   5.784   4.906  14.240  0.2764  0.0851 -0.6540
   8223SM  H16T10920   5.702   4.769  14.288  0.4794 -0.0657  0.9512
   8223SM  C17S10921   5.678   4.939  14.430  0.0243 -0.5337  0.8560
   8223SM  H17S10922   5.591   4.906  14.490 -0.5846  1.9760  1.4346
   8223SM  H17T10923   5.667   5.049  14.423 -2.7755 -0.7538  0.9215
   8223SM  C18S10924   5.807   4.914  14.506  0.3368  0.6087  0.0063
   8223SM  H18S10925   5.892   4.969  14.460  0.2987  0.7889  0.1500
   8223SM  H18T10926   5.831   4.807  14.522 -2.9146 -0.0358  1.5528
   8223SM  H18U10927   5.789   4.961  14.605 -3.2585 -0.1657 -0.1491
   8223SM   C1F10928   4.859   4.509  12.907 -0.6326 -1.0504  0.5107
   8223SM    OF10929   4.854   4.426  12.815  0.3082 -0.3783  0.6515
   8223SM   C2F10930   4.776   4.487  13.032  0.3573  0.2030  0.3020
   8223SM   H2F10931   4.673   4.473  12.994 -0.2486  1.2951  1.4651
   8223SM   H2G10932   4.781   4.576  13.099  2.0784 -1.1229  2.0416
   8223SM   C3F10933   4.827   4.370  13.116 -0.7298 -0.0037  0.1591
   8223SM   H3F10934   4.815   4.272  13.065  0.8386  1.0092 -2.3277
   8223SM   H3G10935   4.774   4.360  13.214 -0.9121  0.8998  0.1590
   8223SM   C4F10936   4.972   4.401  13.159 -0.1013 -0.5661 -0.1022
   8223SM   H4F10937   4.990   4.508  13.183 -1.3730 -0.6309  1.3167
   8223SM   H4G10938   5.049   4.379  13.082 -1.1172  1.1670 -1.6946
   8223SM   C5F10939   5.006   4.320  13.281 -0.2585  0.5584  0.2701
   8223SM   H5F10940   5.116   4.304  13.277 -0.1142  1.6287 -1.1610
   8223SM   H5G10941   4.959   4.220  13.279 -2.5399  1.5567  0.5696
   8223SM   C6F10942   4.980   4.383  13.415 -0.3991  0.2451  0.3344
   8223SM   H6F10943   4.871   4.382  13.440 -0.2932 -1.6588  0.9046
   8223SM   H6G10944   5.020   4.486  13.422  0.6375 -0.0621 -0.7391
   8223SM   C7F10945   5.050   4.317  13.533 -1.1556  0.8137 -0.5302
   8223SM   H7F10946   5.153   4.285  13.506 -0.7236 -1.3148  3.0141
   8223SM   H7G10947   4.999   4.225  13.569 -1.9683  1.5744  0.3188
   8223SM   C8F10948   5.063   4.411  13.644 -0.1233 -0.5558 -0.1262
   8223SM   H8F10949   4.958   4.419  13.678 -0.1945 -2.3413  0.1390
   8223SM   H8G10950   5.106   4.509  13.612 -0.7579  0.2070  1.2390
   8223SM   C9F10951   5.154   4.354  13.761 -0.6314  0.2026 -0.0549
   8223SM   H9F10952   5.261   4.356  13.732 -0.9079  0.7947 -1.0807
   8223SM   H9G10953   5.126   4.250  13.786  1.2162 -0.5682 -1.0281
   8223SM  C10F10954   5.131   4.445  13.889 -0.0759  0.0412 -0.8748
   8223SM  H10F10955   5.024   4.451  13.915  0.7017 -1.2142  3.3843
   8223SM  H10G10956   5.152   4.548  13.853 -0.8042 -0.2236 -2.1263
   8223SM  C11F10957   5.215   4.394  14.006 -0.2891 -0.2189  0.5512
   8223SM  H11F10958   5.324   4.404  13.987 -0.3704  5.1927  1.3342
   8223SM  H11G10959   5.184   4.291  14.031 -0.1887 -0.3067  0.3138
   8223SM  C12F10960   5.205   4.478  14.134 -0.5430 -0.2502 -0.4965
   8223SM  H12F10961   5.101   4.476  14.172 -0.9044 -0.7224 -1.5090
   8223SM  H12G10962   5.219   4.585  14.109  1.1781 -0.0263  1.1638
   8223SM  C13F10963   5.302   4.446  14.253  0.4418 -0.1527 -0.1511
   8223SM  H13F10964   5.406   4.469  14.220  0.5235  0.4872  0.5491
   8223SM  H13G10965   5.284   4.343  14.291  0.4749  0.0753  0.4802
   8223SM  C14F10966   5.269   4.547  14.363  0.1191 -0.3708  1.3361
   8223SM  H14F10967   5.160   4.564  14.374 -0.6648 -1.0298 -3.2964
   8223SM  H14G10968   5.302   4.648  14.331  2.7646 -0.8002  2.4594
   8223SM  C15F10969   5.345   4.523  14.497  0.8030 -0.2828  0.5332
   8223SM  H15F10970   5.451   4.496  14.476  1.4358  1.8028  0.8496
   8223SM  H15G10971   5.292   4.444  14.554  2.2602 -0.3552  1.8675
   8223SM  C16F10972   5.358   4.644  14.590 -0.4222 -0.1867 -0.1949
   8223SM  H16F10973   5.254   4.675  14.612 -1.2788 -1.7637 -1.7056
   8223SM  H16G10974   5.418   4.725  14.543  1.4299 -1.8906 -0.9062
   8223SM  C17F10975   5.441   4.607  14.720 -0.2004  0.5630 -0.1028
   8223SM  H17F10976   5.541   4.577  14.682 -0.7048 -1.1101 -0.2074
   8223SM  H17G10977   5.394   4.518  14.768  1.4867 -0.0302  0.5286
   8223SM  C18F10978   5.448   4.714  14.830 -0.1528  0.2760  0.1468
   8223SM  H18F10979   5.537   4.690  14.892  0.3222 -1.9915 -1.2938
   8223SM  H18G10980   5.361   4.697  14.897 -0.9656  1.1201 -0.6737
   8223SM  C19F10981   5.452   4.861  14.785 -0.8786 -0.0429  0.2743
   8223SM  H19F10982   5.351   4.901  14.766 -0.3478  0.1049 -2.8254
   8223SM  H19G10983   5.506   4.875  14.689 -1.1299  1.0702  0.2809
   8223SM  C20F10984   5.524   4.951  14.889  0.5578 -0.4205  0.3286
   8223SM  H20F10985   5.537   5.057  14.858 -4.1291  0.8051  1.7879
   8223SM  H20G10986   5.616   4.900  14.925 -0.6413 -1.7221  1.6536
   8223SM  C21F10987   5.431   4.964  15.006  0.1197 -0.3894  0.3701
   8223SM  H21F10988   5.397   4.862  15.036  2.2914 -0.9100  1.2751
   8223SM  H21G10989   5.338   5.023  14.988  0.3302 -0.3669 -0.6813
   8223SM  C22F10990   5.509   5.015  15.124  0.0251 -0.1413 -0.2629
   8223SM  H22F10991   5.585   4.937  15.146  0.1039 -0.1940 -0.7106
   8223SM  H22G10992   5.431   5.025  15.202 -0.9131  0.1002 -1.2117
   8223SM  C23F10993   5.571   5.154  15.112 -0.4891  0.6497 -0.4822
   8223SM  H23F10994   5.494   5.216  15.062 -1.3216  0.2294  0.2456
   8223SM  H23G10995   5.667   5.165  15.058  0.0116 -1.6585 -0.1961
   8223SM  H23H10996   5.591   5.185  15.217  0.9262 -0.5775 -0.3599
   8323SM     N10997   6.055   4.389  12.268  0.5168  0.2641  0.3569
   8323SM   C1510998   6.016   4.257  12.191  0.1300 -0.0282 -0.3140
   8323SM  H15A10999   6.053   4.268  12.090  1.4496 -0.7507  0.0598
   8323SM  H15B11000   5.911   4.234  12.200  0.1489  0.3369  1.0987
   8323SM  H15C11001   6.063   4.173  12.241 -1.8710 -0.0909  1.5720
   8323SM   C1411002   6.179   4.437  12.203 -0.9612 -0.8167  0.7129
   8323SM  H14A11003   6.216   4.529  12.247 -0.8411 -0.7005  0.3656
   8323SM  H14B11004   6.171   4.456  12.097  0.6060 -0.4720  0.6372
   8323SM  H14C11005   6.254   4.361  12.218 -1.8606 -1.3588  2.9646
   8323SM   C1311006   5.941   4.482  12.230  0.1999 -0.0499 -1.1596
   8323SM  H13A11007   5.854   4.451  12.286 -0.3747  1.8290 -0.9590
   8323SM  H13B11008   5.927   4.479  12.123  1.1159  1.5765 -1.3579
   8323SM  H13C11009   5.969   4.583  12.256 -0.7913  0.2974 -1.4058
   8323SM   C1211010   6.070   4.377  12.416  0.7620 -0.2946  0.4101
   8323SM  H12A11011   6.085   4.477  12.455 -1.0309 -0.2219  1.0143
   8323SM  H12B11012   6.155   4.320  12.451  0.8151  0.6801  1.9932
   8323SM   C1111013   5.951   4.314  12.497  0.3494 -0.1164  0.2848
   8323SM  H11A11014   5.985   4.280  12.597 -1.4311  1.0207  1.3269
   8323SM  H11B11015   5.937   4.218  12.441  0.9789  0.5122 -0.9790
   8323SM     P11016   5.697   4.329  12.519  0.2556  0.0545  0.0493
   8323SM   O1311017   5.602   4.426  12.582  0.4495  0.4561  0.2380
   8323SM   O1411018   5.653   4.265  12.400  0.0898  0.6265 -0.2351
   8323SM   O1111019   5.727   4.220  12.624  0.4753 -0.8217  0.3968
   8323SM   O1211020   5.828   4.396  12.504  0.0621 -0.3665  0.3270
   8323SM   C1S11021   5.725   4.253  12.766  0.0065 -0.3286  0.4244
   8323SM   H1S11022   5.738   4.359  12.796 -0.9623 -0.3834  1.0794
   8323SM   H1T11023   5.811   4.203  12.815  0.6998 -0.1588 -0.5870
   8323SM    NF11024   5.591   4.243  12.975 -0.5288 -0.8138  0.1580
   8323SM   HNF11025   5.624   4.172  13.037  0.0907 -0.0515  0.7265
   8323SM   C2S11026   5.588   4.210  12.832  0.1310  0.1052 -0.6254
   8323SM   H2S11027   5.508   4.269  12.782  0.8261  0.2468 -1.5980
   8323SM   C3S11028   5.562   4.058  12.797  0.2884  0.3674 -0.2513
   8323SM   H3S11029   5.653   4.001  12.824 -0.1502  0.3165  1.2069
   8323SM    O311030   5.538   4.032  12.657  0.0293  0.2180 -0.2105
   8323SM   HO311031   5.603   4.085  12.611  0.7910  0.5403  1.1806
   8323SM   C4S11032   5.439   4.025  12.873  0.8391  0.7821 -0.0059
   8323SM   H4S11033   5.357   4.061  12.810  1.8756  0.2342 -1.7335
   8323SM   C5S11034   5.412   3.953  12.980  0.2772  0.1083  0.0219
   8323SM   H5S11035   5.498   3.894  13.013  1.3316  0.3821 -2.0809
   8323SM   C6S11036   5.292   3.917  13.049 -0.5741  0.6385 -0.1276
   8323SM   H6S11037   5.277   3.807  13.045 -1.2188  0.7484 -0.8854
   8323SM   H6T11038   5.199   3.968  13.015  0.0962  1.1516 -1.2252
   8323SM   C7S11039   5.320   3.939  13.199  0.2015  0.4306 -0.0362
   8323SM   H7S11040   5.334   4.048  13.211  1.1152  0.2299  0.8048
   8323SM   H7T11041   5.412   3.883  13.226 -0.3635 -1.8894 -2.4531
   8323SM   C8S11042   5.204   3.901  13.288 -0.4342 -0.0258 -0.2575
   8323SM   H8S11043   5.215   3.792  13.304 -0.5261  0.1165  0.8155
   8323SM   H8T11044   5.118   3.912  13.218 -0.1473 -2.0070 -0.9678
   8323SM   C9S11045   5.199   3.974  13.424 -1.1531 -0.2671 -0.1417
   8323SM   H9S11046   5.116   3.933  13.486  0.2825 -2.1078  0.6504
   8323SM   H9T11047   5.207   4.084  13.411 -1.3528 -0.4396 -1.8424
   8323SM  C10S11048   5.322   3.948  13.517  0.1312  0.6288 -0.4035
   8323SM  H10S11049   5.421   3.969  13.470  1.0192  1.3898  1.6378
   8323SM  H10T11050   5.316   3.840  13.540  2.2467  0.6504  0.4862
   8323SM  C11S11051   5.300   4.023  13.642 -0.0004  0.0007  0.4830
   8323SM  H11S11052   5.195   4.028  13.678  0.3147  1.3829  1.3238
   8323SM  H11T11053   5.324   4.127  13.610 -1.0906  0.3270  0.7019
   8323SM  C12S11054   5.384   3.981  13.767  0.3844 -0.4779  0.2532
   8323SM  H12S11055   5.494   3.991  13.753  0.4881  1.4731  1.9290
   8323SM  H12T11056   5.371   3.871  13.773 -4.8071 -0.4059 -3.5285
   8323SM  C13S11057   5.349   4.048  13.895 -0.7373 -0.0391 -0.5264
   8323SM  H13S11058   5.240   4.059  13.912 -0.2472  4.4062  1.2324
   8323SM  H13T11059   5.376   4.156  13.896  0.3502 -0.3007 -0.4616
   8323SM  C14S11060   5.408   3.978  14.020  0.1011 -0.2667  0.6396
   8323SM  H14S11061   5.517   3.966  13.999 -0.0445  3.1445 -3.2251
   8323SM  H14T11062   5.374   3.874  14.039 -0.1319 -0.0821  1.2478
   8323SM  C15S11063   5.370   4.055  14.143 -0.1602 -0.7430  0.3451
   8323SM  H15S11064   5.261   4.052  14.163 -0.3698 -0.7226 -0.7112
   8323SM  H15T11065   5.396   4.162  14.129 -1.8421 -0.5056 -1.2849
   8323SM  C16S11066   5.448   4.016  14.268 -0.1440 -1.0638 -0.2792
   8323SM  H16S11067   5.555   4.022  14.242 -0.2527  1.0582 -0.4293
   8323SM  H16T11068   5.420   3.911  14.293  2.5023 -1.3356  2.0257
   8323SM  C17S11069   5.419   4.100  14.396  0.6178  0.4725  0.9859
   8323SM  H17S11070   5.308   4.110  14.405  0.2073  1.4093 -3.0510
   8323SM  H17T11071   5.455   4.202  14.368  0.4081 -0.1195 -1.7636
   8323SM  C18S11072   5.488   4.049  14.520  0.2965  0.5247 -0.4276
   8323SM  H18S11073   5.455   3.955  14.572  0.6243  0.5768 -0.1200
   8323SM  H18T11074   5.486   4.127  14.599  1.9183  0.6445 -0.4777
   8323SM  H18U11075   5.592   4.022  14.491 -0.3403 -2.5130 -0.2882
   8323SM   C1F11076   5.578   4.369  13.026 -0.1817  0.3360 -0.2123
   8323SM    OF11077   5.516   4.456  12.964  0.7621 -0.3252 -0.1032
   8323SM   C2F11078   5.646   4.393  13.158  0.5371  0.5513  0.1635
   8323SM   H2F11079   5.650   4.504  13.162 -0.2541  0.6859 -1.9025
   8323SM   H2G11080   5.749   4.354  13.147  0.4461  0.2697  0.2957
   8323SM   C3F11081   5.554   4.336  13.275 -0.3417 -0.5223  0.1296
   8323SM   H3F11082   5.521   4.230  13.266 -0.4546 -0.6406  1.6112
   8323SM   H3G11083   5.456   4.389  13.278 -0.9145 -1.4979 -0.5270
   8323SM   C4F11084   5.630   4.354  13.414 -0.7161  0.1035  0.6231
   8323SM   H4F11085   5.658   4.460  13.432 -0.9123 -0.0256  1.8157
   8323SM   H4G11086   5.719   4.287  13.412 -0.8112 -0.0248 -1.6359
   8323SM   C5F11087   5.549   4.320  13.538  0.1077 -0.5262 -0.2281
   8323SM   H5F11088   5.540   4.213  13.563 -1.4703 -0.5557 -0.7985
   8323SM   H5G11089   5.446   4.356  13.514  0.5812  0.6362 -0.5700
   8323SM   C6F11090   5.595   4.392  13.660  0.0814 -0.2099 -0.3257
   8323SM   H6F11091   5.509   4.414  13.727  1.2889  0.2479  1.1407
   8323SM   H6G11092   5.634   4.490  13.624  0.6675 -0.9805 -1.8850
   8323SM   C7F11093   5.709   4.310  13.731  0.1465 -0.4310 -0.7517
   8323SM   H7F11094   5.791   4.300  13.658  0.8650  1.6129 -0.2946
   8323SM   H7G11095   5.656   4.214  13.750 -2.5140  0.9272 -0.8244
   8323SM   C8F11096   5.770   4.385  13.852  0.5483  0.4344  0.8160
   8323SM   H8F11097   5.781   4.493  13.829 -0.8967  0.5498  0.5708
   8323SM   H8G11098   5.875   4.351  13.859  1.2283  1.0809 -3.3399
   8323SM   C9F11099   5.690   4.371  13.983 -0.0905 -0.4539  0.0547
   8323SM   H9F11100   5.697   4.264  14.010  0.4443 -0.5291 -0.3544
   8323SM   H9G11101   5.580   4.389  13.975 -0.0506  0.0395  0.6115
   8323SM  C10F11102   5.751   4.448  14.098  0.4741  0.0561  0.2282
   8323SM  H10F11103   5.745   4.558  14.082  1.0048  0.3583  1.9084
   8323SM  H10G11104   5.857   4.416  14.094  0.7855  1.1361 -0.6458
   8323SM  C11F11105   5.702   4.403  14.242  0.6452  0.2053 -0.3487
   8323SM  H11F11106   5.717   4.293  14.241 -1.2647 -0.1030 -1.8934
   8323SM  H11G11107   5.592   4.416  14.251  0.6900 -0.7645  2.1498
   8323SM  C12F11108   5.779   4.458  14.362  0.4539 -0.3185 -0.6480
   8323SM  H12F11109   5.743   4.559  14.389 -0.6450 -1.2211  1.5151
   8323SM  H12G11110   5.885   4.486  14.340 -0.1667  1.7047 -1.2391
   8323SM  C13F11111   5.765   4.361  14.477  0.3704 -0.2532  0.0258
   8323SM  H13F11112   5.809   4.265  14.444  0.1902 -0.1541 -0.5162
   8323SM  H13G11113   5.659   4.330  14.493  0.4645 -0.6306 -0.0942
   8323SM  C14F11114   5.826   4.407  14.604 -0.0933 -0.3034  0.1124
   8323SM  H14F11115   5.758   4.486  14.643  0.8821  0.6538 -0.0842
   8323SM  H14G11116   5.928   4.450  14.588  0.7204 -2.2286 -0.1300
   8323SM  C15F11117   5.848   4.288  14.700  0.0776 -0.5430 -0.4117
   8323SM  H15F11118   5.916   4.218  14.647  1.2578  0.3423 -0.1167
   8323SM  H15G11119   5.751   4.239  14.718 -0.7437  0.9681 -0.5447
   8323SM  C16F11120   5.918   4.332  14.837  0.0662 -0.6278  0.0656
   8323SM  H16F11121   5.868   4.427  14.867  0.4483 -0.9527  1.8097
   8323SM  H16G11122   6.025   4.355  14.821  0.5673 -2.1495  0.9777
   8323SM  C17F11123   5.910   4.225  14.950  0.4503  0.5753 -0.1480
   8323SM  H17F11124   5.941   4.122  14.922  2.1666  0.7604  0.8877
   8323SM  H17G11125   5.804   4.204  14.974  1.0634 -0.9943  1.4300
   8323SM  C18F11126   5.963   4.274  15.092 -0.1791  0.0586 -0.1670
   8323SM  H18F11127   5.898   4.362  15.111  0.2193  0.1512  0.8720
   8323SM  H18G11128   6.069   4.307  15.088 -0.8499  2.3170 -0.6946
   8323SM  C19F11129   5.928   4.170  15.203  0.1899 -0.2610  0.3135
   8323SM  H19F11130   5.818   4.151  15.204 -0.1596  1.3911 -1.1525
   8323SM  H19G11131   5.962   4.220  15.297 -0.7502  0.5841  0.2317
   8323SM  C20F11132   6.013   4.039  15.184  0.2913  0.2317 -0.1401
   8323SM  H20F11133   5.981   4.004  15.084 -1.6513  0.0412  0.5009
   8323SM  H20G11134   5.987   3.961  15.260 -0.5806 -0.8256 -1.4770
   8323SM  C21F11135   6.167   4.053  15.189 -0.0056 -0.3546 -0.1012
   8323SM  H21F11136   6.184   4.130  15.111  1.0990 -2.4015 -1.9918
   8323SM  H21G11137   6.214   3.964  15.144 -1.6013 -0.6139 -1.3350
   8323SM  C22F11138   6.232   4.081  15.321  0.4962  0.1075 -0.3569
   8323SM  H22F11139   6.218   4.184  15.362  1.2727 -0.0358  0.2925
   8323SM  H22G11140   6.342   4.090  15.309  0.4945  3.8824  1.0443
   8323SM  C23F11141   6.190   3.984  15.431  0.5082  0.0320  0.0980
   8323SM  H23F11142   6.220   3.881  15.404 -2.4723 -0.9319  0.1159
   8323SM  H23G11143   6.080   3.968  15.437  0.4685 -1.5253 -2.9093
   8323SM  H23H11144   6.239   4.020  15.524 -0.8291  0.0616  0.8248
   8423SM     N11145   4.113   3.236  12.299 -0.1345 -0.5695 -0.1714
   8423SM   C1511146   4.007   3.178  12.218  0.0814 -0.1097  0.2179
   8423SM  H15A11147   3.924   3.154  12.282 -0.5894 -0.6367 -0.8200
   8423SM  H15B11148   4.044   3.085  12.178 -0.2714  0.1640 -0.7785
   8423SM  H15C11149   3.969   3.237  12.136  0.9473  0.4914  0.2370
   8423SM   C1411150   4.247   3.216  12.235 -0.5660 -0.2054  0.0573
   8423SM  H14A11151   4.322   3.255  12.302  0.1250 -1.0189 -0.2279
   8423SM  H14B11152   4.258   3.266  12.139 -1.2272 -1.2323 -0.5758
   8423SM  H14C11153   4.269   3.113  12.212 -2.3574 -0.9041  1.2857
   8423SM   C1311154   4.094   3.387  12.305  0.5782 -0.3723 -0.7802
   8423SM  H13A11155   4.013   3.414  12.372  2.2250  0.3731  0.9904
   8423SM  H13B11156   4.080   3.420  12.204 -0.8005 -0.5368 -0.6697
   8423SM  H13C11157   4.179   3.436  12.350 -0.5760  1.3475 -0.3837
   8423SM   C1211158   4.118   3.184  12.443  0.2890 -0.1220  0.1616
   8423SM  H12A11159   4.168   3.089  12.448  1.1706  0.3917  2.7094
   8423SM  H12B11160   4.019   3.170  12.485  1.4145 -1.3190  2.5979
   8423SM   C1111161   4.200   3.272  12.545  0.1846 -0.1316 -0.3098
   8423SM  H11A11162   4.220   3.212  12.636  1.4024  2.1254  1.0119
   8423SM  H11B11163   4.144   3.363  12.573 -0.1618 -0.6960  0.8765
   8423SM     P11164   4.417   3.423  12.547  0.0889  0.0491  0.1387
   8423SM   O1311165   4.559   3.393  12.523 -0.0013  0.6007  0.0741
   8423SM   O1411166   4.372   3.550  12.491 -0.0795  0.0141  0.0368
   8423SM   O1111167   4.381   3.422  12.704 -0.2092 -0.2131 -0.1186
   8423SM   O1211168   4.329   3.306  12.491 -0.5160 -0.2512  0.2817
   8423SM   C1S11169   4.417   3.323  12.801 -0.4491  0.7743  0.1810
   8423SM   H1S11170   4.528   3.324  12.814 -0.0682  2.9468 -2.2228
   8423SM   H1T11171   4.396   3.224  12.757  4.2020  0.3568 -1.7508
   8423SM    NF11172   4.419   3.251  13.038  0.6993  0.0274 -0.0292
   8423SM   HNF11173   4.375   3.162  13.053 -1.5810  0.8173 -1.4686
   8423SM   C2S11174   4.348   3.339  12.944 -0.3797 -0.3700  0.1455
   8423SM   H2S11175   4.354   3.440  12.990 -0.9898 -0.1907 -0.1570
   8423SM   C3S11176   4.196   3.306  12.929 -0.9240 -0.2225 -0.7556
   8423SM   H3S11177   4.187   3.207  12.877 -2.2048 -0.8987  0.6773
   8423SM    O311178   4.132   3.404  12.852  0.3202 -0.3653 -0.7983
   8423SM   HO311179   4.205   3.444  12.804  1.2347 -0.2273  0.6588
   8423SM   C4S11180   4.133   3.303  13.065  0.2709 -0.4892 -0.1209
   8423SM   H4S11181   4.120   3.404  13.107 -2.0370 -0.7523 -0.1099
   8423SM   C5S11182   4.083   3.202  13.134  0.1570  0.3268  0.0295
   8423SM   H5S11183   4.083   3.100  13.091  2.5648  0.0726  0.4893
   8423SM   C6S11184   4.013   3.222  13.267 -0.5616  0.3704  0.0423
   8423SM   H6S11185   3.993   3.331  13.278 -2.4485 -0.0011  0.5947
   8423SM   H6T11186   4.079   3.192  13.352  3.2625 -1.2888 -3.1853
   8423SM   C7S11187   3.880   3.144  13.290 -0.1095 -0.5600 -0.5002
   8423SM   H7S11188   3.894   3.035  13.308  1.1733 -0.4943 -0.9973
   8423SM   H7T11189   3.811   3.149  13.204  2.7040 -1.3393 -2.9606
   8423SM   C8S11190   3.817   3.202  13.418 -0.3063 -0.0295 -0.1067
   8423SM   H8S11191   3.706   3.195  13.408 -0.1395  0.4850 -3.2292
   8423SM   H8T11192   3.835   3.311  13.406 -0.8362  0.0244 -0.4439
   8423SM   C9S11193   3.859   3.134  13.549 -0.3066 -0.2866  0.1333
   8423SM   H9S11194   3.964   3.099  13.540 -0.5282 -0.5461 -1.9782
   8423SM   H9T11195   3.814   3.033  13.562 -0.7708 -0.1001 -0.0202
   8423SM  C10S11196   3.816   3.206  13.678  0.0601 -0.4910  0.0566
   8423SM  H10S11197   3.841   3.149  13.770 -0.6497  0.2764  0.7369
   8423SM  H10T11198   3.706   3.218  13.674 -0.2940 -3.3254 -0.3722
   8423SM  C11S11199   3.893   3.335  13.693  0.2036 -0.1499  1.2251
   8423SM  H11S11200   3.861   3.407  13.615  0.3117  2.5140  3.4553
   8423SM  H11T11201   4.002   3.321  13.677  0.0505  1.2284 -1.4476
   8423SM  C12S11202   3.877   3.412  13.825  0.2856 -0.3171  0.4222
   8423SM  H12S11203   3.893   3.344  13.911 -1.9492 -2.1804 -0.5181
   8423SM  H12T11204   3.775   3.455  13.830  0.2958 -0.1342 -0.6041
   8423SM  C13S11205   3.961   3.536  13.838 -0.4508 -0.1773  0.7889
   8423SM  H13S11206   3.909   3.621  13.789 -1.7216 -0.4543  1.6356
   8423SM  H13T11207   4.055   3.513  13.783  0.5260  1.0911  1.8500
   8423SM  C14S11208   3.992   3.584  13.980  0.5110  0.3269  0.0426
   8423SM  H14S11209   4.003   3.494  14.043  0.0438  0.2515  0.0191
   8423SM  H14T11210   3.908   3.639  14.030  0.4495 -0.3140  0.6639
   8423SM  C15S11211   4.117   3.676  13.977  0.2333  0.2877 -0.1837
   8423SM  H15S11212   4.198   3.628  13.919  1.2463  2.4249 -0.6599
   8423SM  H15T11213   4.158   3.687  14.080 -0.9672 -0.8057  0.4352
   8423SM  C16S11214   4.086   3.800  13.892  0.0445 -0.7214  0.2336
   8423SM  H16S11215   4.003   3.856  13.941 -0.6618 -2.2159  0.7930
   8423SM  H16T11216   4.060   3.765  13.791 -0.5287 -2.0305  0.8164
   8423SM  C17S11217   4.201   3.901  13.886  0.2076  0.2845  1.0001
   8423SM  H17S11218   4.188   3.966  13.797 -0.5507 -1.2569 -0.0740
   8423SM  H17T11219   4.296   3.846  13.873  1.3044  1.7534  2.3981
   8423SM  C18S11220   4.211   3.995  14.006 -0.3548  0.0960  0.6552
   8423SM  H18S11221   4.224   3.932  14.096  1.5161  0.3871  0.6325
   8423SM  H18T11222   4.112   4.043  14.017 -0.2753  0.7045 -0.9514
   8423SM  H18U11223   4.283   4.080  14.000  0.3728 -0.6117 -1.8558
   8423SM   C1F11224   4.533   3.277  13.090  0.0245 -0.1594 -0.7852
   8423SM    OF11225   4.591   3.378  13.065 -0.3421 -0.1839  0.2771
   8423SM   C2F11226   4.599   3.184  13.185  0.3053 -0.4963  0.1997
   8423SM   H2F11227   4.706   3.185  13.154  0.7713 -3.1818  1.4433
   8423SM   H2G11228   4.573   3.077  13.171  1.9113 -0.9268  0.2688
   8423SM   C3F11229   4.561   3.230  13.325  0.0522  0.3141  0.2713
   8423SM   H3F11230   4.547   3.340  13.326 -2.4573  0.0687  1.9976
   8423SM   H3G11231   4.632   3.186  13.398 -0.2309 -1.6289 -0.5534
   8423SM   C4F11232   4.422   3.169  13.361  0.2712 -0.0217 -0.6452
   8423SM   H4F11233   4.416   3.059  13.350  2.5123 -0.0861 -1.7773
   8423SM   H4G11234   4.350   3.215  13.289  1.1163  2.5619  0.0630
   8423SM   C5F11235   4.373   3.214  13.498  0.5608 -0.2101  0.5307
   8423SM   H5F11236   4.267   3.244  13.483  0.5936  0.3019  1.2917
   8423SM   H5G11237   4.415   3.315  13.518 -0.2331  0.5495 -1.3732
   8423SM   C6F11238   4.380   3.117  13.618  0.2957  0.5005  0.7410
   8423SM   H6F11239   4.481   3.086  13.651 -0.4501  0.1721  2.8784
   8423SM   H6G11240   4.328   3.022  13.592  1.7944 -0.0699 -0.2978
   8423SM   C7F11241   4.313   3.189  13.730  0.0751  0.3740  0.1276
   8423SM   H7F11242   4.203   3.193  13.722 -0.0260  0.0839  1.1982
   8423SM   H7G11243   4.359   3.290  13.727  1.1086 -0.0837 -0.0645
   8423SM   C8F11244   4.348   3.136  13.877 -0.4617 -0.1271  0.1817
   8423SM   H8F11245   4.459   3.138  13.879 -0.4867  1.5720  1.1231
   8423SM   H8G11246   4.312   3.033  13.895 -1.8743  0.2474 -0.3639
   8423SM   C9F11247   4.294   3.236  13.986 -0.4133 -0.4282 -0.8706
   8423SM   H9F11248   4.184   3.221  13.989 -0.2598 -1.4562  1.0659
   8423SM   H9G11249   4.324   3.342  13.973  0.0463 -0.2877  1.0045
   8423SM  C10F11250   4.349   3.220  14.129  0.2359 -0.3896 -0.6152
   8423SM  H10F11251   4.439   3.283  14.142  0.3612 -0.8511  1.0289
   8423SM  H10G11252   4.373   3.113  14.148  0.0434 -0.4558 -0.7371
   8423SM  C11F11253   4.243   3.271  14.226 -0.4652  0.3181 -0.7838
   8423SM  H11F11254   4.153   3.205  14.232 -1.0577  0.9995 -1.8348
   8423SM  H11G11255   4.206   3.371  14.194  1.7764  1.3220 -0.3855
   8423SM  C12F11256   4.295   3.280  14.368  0.0471 -0.7050 -0.1528
   8423SM  H12F11257   4.354   3.373  14.387 -0.4322 -0.6651  1.2428
   8423SM  H12G11258   4.351   3.187  14.388  0.0260 -0.7806 -0.4419
   8423SM  C13F11259   4.169   3.281  14.456  0.2056  0.1379 -0.0146
   8423SM  H13F11260   4.123   3.181  14.443  0.2309 -0.1352  1.6988
   8423SM  H13G11261   4.090   3.353  14.428  0.4835  1.2853  1.9386
   8423SM  C14F11262   4.220   3.293  14.606  0.6110 -0.0478  0.6255
   8423SM  H14F11263   4.270   3.392  14.612  1.8994 -0.5791 -0.6832
   8423SM  H14G11264   4.293   3.213  14.630  1.0658  0.5356  1.2290
   8423SM  C15F11265   4.107   3.289  14.714 -0.4432 -0.0471  0.5530
   8423SM  H15F11266   4.072   3.184  14.703  0.7774 -0.5214  1.0027
   8423SM  H15G11267   4.016   3.346  14.686 -0.0824 -0.1738 -0.9737
   8423SM  C16F11268   4.145   3.316  14.864 -0.3715 -0.1689  0.4028
   8423SM  H16F11269   4.054   3.288  14.923 -0.9810  2.4044  0.7994
   8423SM  H16G11270   4.159   3.425  14.878  0.7821 -0.5645  2.8138
   8423SM  C17F11271   4.275   3.256  14.913 -0.0846  0.2773 -0.8274
   8423SM  H17F11272   4.295   3.291  15.016  0.7933 -0.5431 -0.7018
   8423SM  H17G11273   4.362   3.286  14.849 -0.8879  0.4459 -1.8758
   8423SM  C18F11274   4.278   3.107  14.912 -0.1688  0.0289  0.1454
   8423SM  H18F11275   4.243   3.075  14.812 -1.6414  2.8756 -0.3573
   8423SM  H18G11276   4.205   3.066  14.984 -1.0358 -0.2304 -0.8534
   8423SM  C19F11277   4.417   3.059  14.953 -0.1364 -0.6192  0.4524
   8423SM  H19F11278   4.444   3.090  15.057  2.2944 -1.7541  0.2425
   8423SM  H19G11279   4.491   3.119  14.895 -0.9597 -0.1503 -0.1281
   8423SM  C20F11280   4.444   2.915  14.911 -0.4559  0.1097  0.5431
   8423SM  H20F11281   4.412   2.897  14.806  2.8558  0.3644 -0.6357
   8423SM  H20G11282   4.396   2.842  14.980  1.7188 -0.3633  1.6547
   8423SM  C21F11283   4.599   2.884  14.921  0.2961  0.0635 -0.2994
   8423SM  H21F11284   4.637   2.915  15.021 -0.7894  0.8433 -0.1032
   8423SM  H21G11285   4.653   2.945  14.846  1.7692 -0.9599 -0.1069
   8423SM  C22F11286   4.630   2.739  14.902 -0.5526  0.0077  0.3381
   8423SM  H22F11287   4.614   2.722  14.793 -2.7102  2.0182  0.2532
   8423SM  H22G11288   4.556   2.674  14.954 -1.1069 -0.0475 -0.5039
   8423SM  C23F11289   4.777   2.709  14.939 -0.0040 -0.2429 -0.5531
   8423SM  H23F11290   4.836   2.790  14.890  0.5223  0.1353  0.6604
   8423SM  H23G11291   4.815   2.618  14.888  2.0234  0.7413 -0.8796
   8423SM  H23H11292   4.792   2.711  15.049 -0.9676  1.3401 -0.4203
   8523SM     N11293   6.860   4.061  12.611 -0.2428 -0.5521  0.4421
   8523SM   C1511294   6.837   3.912  12.632 -0.0569  0.1851 -0.0015
   8523SM  H15A11295   6.918   3.846  12.660 -1.1994 -1.8503 -1.2154
   8523SM  H15B11296   6.800   3.871  12.539  1.6842  0.2435 -0.7538
   8523SM  H15C11297   6.758   3.899  12.705  1.3362 -1.3103  1.3225
   8523SM   C1411298   6.910   4.121  12.737 -0.0486  0.3450  0.3930
   8523SM  H14A11299   6.991   4.063  12.778  1.3245  1.4346 -0.6991
   8523SM  H14B11300   6.827   4.112  12.806 -0.9709 -3.5379 -0.9423
   8523SM  H14C11301   6.944   4.222  12.727 -3.3804  1.4039 -1.8180
   8523SM   C1311302   6.972   4.073  12.517 -0.6061  0.0814  0.1795
   8523SM  H13A11303   6.940   4.064  12.414  1.3805 -0.9133 -0.3943
   8523SM  H13B11304   7.044   3.997  12.541 -0.3982  0.6784  1.5143
   8523SM  H13C11305   7.024   4.167  12.523  1.7805 -1.2353  1.7109
   8523SM   C1211306   6.745   4.145  12.561  0.1149 -0.6186  1.2280
   8523SM  H12A11307   6.781   4.246  12.550 -0.0208 -0.6388  0.5694
   8523SM  H12B11308   6.667   4.153  12.635  0.6858  0.2073  1.7647
   8523SM   C1111309   6.681   4.094  12.425  0.3839 -0.1071  0.3809
   8523SM  H11A11310   6.759   4.087  12.347 -0.8123  1.2289 -1.0036
   8523SM  H11B11311   6.607   4.164  12.378 -0.1012 -0.4524  0.6178
   8523SM     P11312   6.468   3.964  12.475  0.0674 -0.1432 -0.0914
   8523SM   O1311313   6.389   3.999  12.352  0.1745 -0.9115 -0.2010
   8523SM   O1411314   6.440   3.832  12.528  0.2783 -0.0668  1.1575
   8523SM   O1111315   6.444   4.080  12.580  0.0823  0.6092 -0.2195
   8523SM   O1211316   6.621   3.971  12.446 -0.1598  0.1135 -0.1510
   8523SM   C1S11317   6.475   4.058  12.721 -0.1945  0.1271 -0.5584
   8523SM   H1S11318   6.584   4.040  12.733 -0.0060  1.1293 -0.6113
   8523SM   H1T11319   6.434   3.966  12.767  1.5255 -0.6865 -0.5782
   8523SM    NF11320   6.457   4.146  12.956  0.4903  0.0123 -0.0079
   8523SM   HNF11321   6.374   4.142  13.010  1.0591 -0.6038  0.8609
   8523SM   C2S11322   6.431   4.175  12.817  0.0141 -0.9621  0.6255
   8523SM   H2S11323   6.480   4.271  12.791 -0.1550 -1.0885 -0.1876
   8523SM   C3S11324   6.281   4.207  12.786 -0.2154  0.9011 -0.5384
   8523SM   H3S11325   6.224   4.112  12.780 -0.0140  0.8506 -1.8668
   8523SM    O311326   6.263   4.280  12.664 -1.1093 -0.7404 -0.3179
   8523SM   HO311327   6.337   4.250  12.611  0.9701  1.6867  0.9680
   8523SM   C4S11328   6.216   4.288  12.893  0.1591 -0.1749 -0.0988
   8523SM   H4S11329   6.280   4.372  12.922  0.9251 -0.6475 -0.4016
   8523SM   C5S11330   6.093   4.272  12.944  0.4069 -0.0823 -0.0799
   8523SM   H5S11331   6.029   4.192  12.905 -1.2991  0.6389  1.1219
   8523SM   C6S11332   6.025   4.357  13.048  0.0162  0.4452  0.1825
   8523SM   H6S11333   5.989   4.299  13.135 -1.6494 -0.6436 -1.1549
   8523SM   H6T11334   5.932   4.388  12.995  0.3023  0.2522 -0.4487
   8523SM   C7S11335   6.095   4.481  13.098  0.1290  0.2220  0.8951
   8523SM   H7S11336   6.109   4.555  13.016 -2.9419  1.8549  1.6953
   8523SM   H7T11337   6.192   4.448  13.142 -0.5322 -2.1383  0.7298
   8523SM   C8S11338   6.008   4.566  13.192  0.3007 -0.6362  0.0164
   8523SM   H8S11339   5.910   4.583  13.144  1.5263 -1.9488 -3.1985
   8523SM   H8T11340   6.057   4.666  13.199  1.6153 -1.1130 -1.6956
   8523SM   C9S11341   5.976   4.501  13.328 -0.2113  0.2551  0.1812
   8523SM   H9S11342   6.060   4.440  13.366  1.3724  1.6033 -1.0050
   8523SM   H9T11343   5.881   4.444  13.324  1.1370 -2.2309  1.5323
   8523SM  C10S11344   5.955   4.600  13.444 -0.0929 -0.1667 -0.2051
   8523SM  H10S11345   5.848   4.629  13.444 -0.5016 -1.5146  0.9765
   8523SM  H10T11346   6.007   4.698  13.434 -1.8196  1.0263  1.7362
   8523SM  C11S11347   5.984   4.541  13.579 -0.7311  0.4581  0.1321
   8523SM  H11S11348   6.091   4.511  13.577 -0.7319  0.4845 -0.5422
   8523SM  H11T11349   5.919   4.451  13.585 -1.2469  0.6753 -1.5371
   8523SM  C12S11350   5.963   4.642  13.692  0.3375 -0.0152 -0.4165
   8523SM  H12S11351   5.854   4.650  13.714  0.0076 -0.7316 -1.6967
   8523SM  H12T11352   5.987   4.739  13.645  1.4868  0.2056  0.5874
   8523SM  C13S11353   6.040   4.617  13.813 -0.5047 -0.5293 -0.1527
   8523SM  H13S11354   6.145   4.649  13.799 -1.0563  0.8371 -1.4294
   8523SM  H13T11355   6.051   4.509  13.838 -0.3678 -0.2710  0.9766
   8523SM  C14S11356   5.984   4.703  13.932  0.3779  0.3746  0.4235
   8523SM  H14S11357   5.881   4.666  13.951  0.5941 -0.6348 -0.3125
   8523SM  H14T11358   5.962   4.800  13.882 -2.4543  0.1227  0.9932
   8523SM  C15S11359   6.077   4.709  14.054  0.1314  0.0214  0.4280
   8523SM  H15S11360   6.169   4.757  14.015  0.6659  0.7750  2.4728
   8523SM  H15T11361   6.098   4.604  14.084  0.3779 -0.5431 -1.6073
   8523SM  C16S11362   6.005   4.790  14.170 -0.8176 -0.8152 -0.0545
   8523SM  H16S11363   5.908   4.738  14.188 -0.6398 -0.0702  4.0889
   8523SM  H16T11364   5.990   4.895  14.138  0.5146 -0.1669  1.3425
   8523SM  C17S11365   6.092   4.791  14.295 -0.2829 -0.1433 -0.0527
   8523SM  H17S11366   6.125   4.687  14.315 -2.6290 -0.5814  2.0774
   8523SM  H17T11367   6.038   4.835  14.382 -1.0568  2.0823 -1.5707
   8523SM  C18S11368   6.219   4.886  14.281 -0.8293 -0.7489  1.1235
   8523SM  H18S11369   6.189   4.986  14.245  1.8695  0.1416  1.1260
   8523SM  H18T11370   6.296   4.843  14.213 -0.6350 -0.4792  1.1726
   8523SM  H18U11371   6.260   4.901  14.383  1.3623 -0.7834  0.2919
   8523SM   C1F11372   6.578   4.149  13.013 -0.7523 -0.7822 -0.2453
   8523SM    OF11373   6.683   4.152  12.943 -0.4770 -0.5272  0.8971
   8523SM   C2F11374   6.587   4.162  13.163 -0.2143 -0.4491 -0.4904
   8523SM   H2F11375   6.494   4.206  13.207  0.2761 -1.1386  1.3296
   8523SM   H2G11376   6.661   4.243  13.182 -0.1339 -0.7480  0.5185
   8523SM   C3F11377   6.636   4.031  13.221 -0.5756 -0.0613 -0.4792
   8523SM   H3F11378   6.718   3.975  13.171 -0.5927 -1.1007  0.6063
   8523SM   H3G11379   6.551   3.959  13.229  0.3594 -0.9901  1.6589
   8523SM   C4F11380   6.675   4.046  13.369 -0.3303  0.0880  0.7598
   8523SM   H4F11381   6.761   4.117  13.368 -0.8919  0.8054 -0.8643
   8523SM   H4G11382   6.706   3.948  13.411 -2.3739 -1.6791 -1.5788
   8523SM   C5F11383   6.561   4.083  13.459  0.0603  0.0791  0.1922
   8523SM   H5F11384   6.477   4.010  13.458  0.6989 -0.6741  0.6024
   8523SM   H5G11385   6.515   4.182  13.437  0.5526  0.7089  1.8769
   8523SM   C6F11386   6.611   4.093  13.603  0.1245 -0.0129  0.9262
   8523SM   H6F11387   6.677   4.182  13.618  1.1096 -1.0056  2.9131
   8523SM   H6G11388   6.670   4.001  13.622  2.4485  0.8741 -1.4290
   8523SM   C7F11389   6.500   4.105  13.705  0.2313  0.3641 -0.3203
   8523SM   H7F11390   6.405   4.060  13.671  0.7766 -0.9384 -0.1676
   8523SM   H7G11391   6.466   4.211  13.710  2.1082  1.0684 -1.2089
   8523SM   C8F11392   6.542   4.072  13.844  0.4425  0.1053 -0.4325
   8523SM   H8F11393   6.623   4.141  13.877 -2.5366  2.7299  2.0542
   8523SM   H8G11394   6.590   3.972  13.838  0.9156  0.4072 -2.2703
   8523SM   C9F11395   6.437   4.103  13.951 -0.0113  0.2996  0.6786
   8523SM   H9F11396   6.363   4.020  13.961  1.6209 -1.3457 -0.2015
   8523SM   H9G11397   6.380   4.194  13.923  2.2109  2.3275  2.3530
   8523SM  C10F11398   6.499   4.118  14.091  0.9435 -0.4774 -0.7046
   8523SM  H10F11399   6.419   4.138  14.166  1.9847  0.5914  0.1650
   8523SM  H10G11400   6.561   4.210  14.086  0.3310  0.1823  1.9971
   8523SM  C11F11401   6.583   4.000  14.143 -0.7832 -0.0946 -0.1281
   8523SM  H11F11402   6.676   4.031  14.196  0.3090  0.9477 -2.4804
   8523SM  H11G11403   6.632   3.950  14.057  0.4177  0.2414  0.3400
   8523SM  C12F11404   6.503   3.915  14.240 -0.0818 -0.3253  0.8335
   8523SM  H12F11405   6.446   3.850  14.170 -0.6812  0.4552  0.5888
   8523SM  H12G11406   6.433   3.963  14.310  0.2836  0.9575  0.3504
   8523SM  C13F11407   6.591   3.806  14.307 -0.2476  0.1716 -0.0756
   8523SM  H13F11408   6.659   3.870  14.366  0.5012  0.3566 -1.1060
   8523SM  H13G11409   6.661   3.756  14.237  0.5516  0.1406  0.7290
   8523SM  C14F11410   6.520   3.722  14.405  0.6094  1.0740  0.6003
   8523SM  H14F11411   6.460   3.788  14.472 -2.8729 -0.8372 -0.4032
   8523SM  H14G11412   6.590   3.665  14.470  0.0742  0.3453  0.5515
   8523SM  C15F11413   6.420   3.618  14.345  0.7804  0.0099  0.1885
   8523SM  H15F11414   6.477   3.539  14.291 -0.0823 -1.3333  1.1726
   8523SM  H15G11415   6.352   3.664  14.270  1.9357  1.8657  0.2207
   8523SM  C16F11416   6.329   3.566  14.454  0.4644  0.5455  0.5082
   8523SM  H16F11417   6.291   3.657  14.505 -1.3694  1.5455 -2.3458
   8523SM  H16G11418   6.400   3.519  14.525  0.8903  0.6468  0.1598
   8523SM  C17F11419   6.209   3.473  14.416 -0.3977 -0.1311 -0.8309
   8523SM  H17F11420   6.246   3.397  14.344  1.2744 -0.7895  0.6468
   8523SM  H17G11421   6.127   3.528  14.365 -0.4615  0.1247 -0.4552
   8523SM  C18F11422   6.142   3.386  14.529  0.1569 -0.5684 -0.7561
   8523SM  H18F11423   6.061   3.320  14.490  0.7204 -0.3611 -2.3705
   8523SM  H18G11424   6.090   3.447  14.605 -0.2288 -1.6316 -0.1470
   8523SM  C19F11425   6.245   3.293  14.589  0.5047  0.7152  0.2401
   8523SM  H19F11426   6.314   3.347  14.658  0.6905  0.2894  0.3935
   8523SM  H19G11427   6.303   3.241  14.510 -2.3379 -0.6230 -1.1127
   8523SM  C20F11428   6.179   3.183  14.672 -0.2221  0.4736  0.2854
   8523SM  H20F11429   6.122   3.117  14.604  0.2748  2.1650 -1.9040
   8523SM  H20G11430   6.110   3.229  14.745 -0.1234  0.5843  0.3101
   8523SM  C21F11431   6.274   3.076  14.724  0.7305 -0.5732  0.1908
   8523SM  H21F11432   6.368   3.129  14.751  1.2962 -1.4436 -0.0069
   8523SM  H21G11433   6.313   3.015  14.640  1.3073  0.6794 -0.4876
   8523SM  C22F11434   6.211   2.984  14.833 -0.4096  0.6614 -0.2334
   8523SM  H22F11435   6.270   2.890  14.838 -0.0583  0.8287 -0.9943
   8523SM  H22G11436   6.110   2.948  14.806 -0.1375 -0.0984 -0.2653
   8523SM  C23F11437   6.211   3.060  14.973 -0.3241  0.2945 -0.0932
   8523SM  H23F11438   6.142   3.146  14.960 -1.9888 -0.8964  0.5084
   8523SM  H23G11439   6.309   3.104  14.998 -1.0083  0.5832  2.3807
   8523SM  H23H11440   6.184   2.994  15.059  0.7433 -1.0324 -0.7407
   8623SM     N11441   3.654   2.421  12.547 -0.1824 -0.7535 -0.2324
   8623SM   C1511442   3.767   2.500  12.601 -0.2056  0.0775 -0.1172
   8623SM  H15A11443   3.736   2.584  12.661  0.0520 -0.5875  0.9667
   8623SM  H15B11444   3.835   2.544  12.529  0.2381 -0.9087 -0.3175
   8623SM  H15C11445   3.823   2.436  12.668 -0.4710  0.0348  0.0645
   8623SM   C1411446   3.708   2.321  12.447  0.1982 -0.3926  0.6711
   8623SM  H14A11447   3.736   2.380  12.361  1.1416  1.8149  2.3834
   8623SM  H14B11448   3.628   2.256  12.415  0.2405 -0.5340  0.8531
   8623SM  H14C11449   3.796   2.271  12.483  1.4122  1.0375 -0.1644
   8623SM   C1311450   3.594   2.341  12.662  0.0817 -0.7893  0.8521
   8623SM  H13A11451   3.533   2.400  12.730  2.3139  2.2198  0.4831
   8623SM  H13B11452   3.673   2.294  12.718 -0.2158 -1.0729  1.0353
   8623SM  H13C11453   3.523   2.264  12.639 -1.1582  0.8258 -1.0802
   8623SM   C1211454   3.548   2.507  12.491  0.3756  0.2014 -0.2094
   8623SM  H12A11455   3.467   2.452  12.447 -0.1908  2.0863 -1.6660
   8623SM  H12B11456   3.598   2.551  12.406  3.5596 -2.3274  0.1426
   8623SM   C1111457   3.490   2.616  12.577  0.7012  0.1487  0.2249
   8623SM  H11A11458   3.439   2.699  12.523 -1.5373 -0.8132  0.7626
   8623SM  H11B11459   3.579   2.673  12.613  1.3640 -0.7140 -0.0233
   8623SM     P11460   3.257   2.539  12.667 -0.0216 -0.3064  0.0898
   8623SM   O1311461   3.230   2.544  12.526  0.1685  0.5319 -0.4843
   8623SM   O1411462   3.219   2.418  12.742 -0.0610  0.5012  0.3567
   8623SM   O1111463   3.194   2.664  12.732  0.0894  0.4666 -0.7510
   8623SM   O1211464   3.410   2.579  12.685  0.2568  0.2842 -0.2237
   8623SM   C1S11465   3.173   2.678  12.875  0.0554 -0.1174 -0.0326
   8623SM   H1S11466   3.138   2.583  12.920 -0.5814  0.0268 -0.2202
   8623SM   H1T11467   3.099   2.759  12.890  1.1103  0.8104  0.2983
   8623SM    NF11468   3.265   2.683  13.095 -0.2729  0.2947 -0.2724
   8623SM   HNF11469   3.269   2.766  13.150  0.0877  0.2321 -0.2050
   8623SM   C2S11470   3.302   2.705  12.960 -1.0616  0.2741 -0.6695
   8623SM   H2S11471   3.378   2.628  12.938 -0.9418 -0.1373  1.0482
   8623SM   C3S11472   3.351   2.846  12.933 -0.0319 -0.3754  0.1918
   8623SM   H3S11473   3.276   2.927  12.947  0.9006  0.6388 -0.4809
   8623SM    O311474   3.387   2.875  12.796 -0.2230 -0.1729 -0.2229
   8623SM   HO311475   3.362   2.797  12.744 -1.2101 -0.4655  0.6566
   8623SM   C4S11476   3.464   2.873  13.025 -0.7437 -0.1640  0.0674
   8623SM   H4S11477   3.433   2.930  13.113  0.1717  2.3604 -1.1310
   8623SM   C5S11478   3.602   2.853  13.018  0.1656 -0.2778  0.0052
   8623SM   H5S11479   3.641   2.802  12.929  0.9856 -1.1984  0.8706
   8623SM   C6S11480   3.703   2.886  13.122 -0.1860  0.5771 -0.4277
   8623SM   H6S11481   3.683   2.978  13.182  2.6675  1.4191 -0.6282
   8623SM   H6T11482   3.799   2.900  13.067  0.8019 -0.2563  1.0334
   8623SM   C7S11483   3.726   2.768  13.227  0.1131  0.0209  0.6256
   8623SM   H7S11484   3.819   2.796  13.281  1.0819  1.9302 -1.8253
   8623SM   H7T11485   3.740   2.671  13.176  0.5383 -0.2498  1.2432
   8623SM   C8S11486   3.608   2.754  13.325  0.1814 -0.1261 -0.5327
   8623SM   H8S11487   3.587   2.646  13.344 -0.7688  0.2503  0.6635
   8623SM   H8T11488   3.514   2.795  13.283  0.2055 -1.0549 -1.5312
   8623SM   C9S11489   3.642   2.830  13.457 -0.7702  0.4910  0.1346
   8623SM   H9S11490   3.645   2.938  13.433 -0.3964  0.3447 -0.5100
   8623SM   H9T11491   3.744   2.794  13.484  0.5967  1.8066 -2.7366
   8623SM  C10S11492   3.531   2.818  13.560 -0.0553 -0.3178 -0.5045
   8623SM  H10S11493   3.509   2.711  13.582 -0.2795 -0.8700 -3.0450
   8623SM  H10T11494   3.438   2.866  13.523  0.2059  0.1753 -0.5282
   8623SM  C11S11495   3.572   2.886  13.691 -0.1253  0.4203  0.2096
   8623SM  H11S11496   3.597   2.993  13.673 -0.0989  0.3138 -0.4003
   8623SM  H11T11497   3.663   2.834  13.726 -0.2278  1.0092  1.4329
   8623SM  C12S11498   3.458   2.882  13.799  0.5322  0.0674  0.9489
   8623SM  H12S11499   3.408   2.783  13.810 -0.3766  0.4991  0.7778
   8623SM  H12T11500   3.378   2.949  13.762  1.3292 -0.5101 -2.0878
   8623SM  C13S11501   3.510   2.925  13.936  0.4463 -0.2753  0.1476
   8623SM  H13S11502   3.552   3.025  13.910 -1.0730  1.0074  2.2693
   8623SM  H13T11503   3.586   2.857  13.978  1.3236  1.8106  2.2030
   8623SM  C14S11504   3.394   2.949  14.036  0.1075 -0.1027 -0.0209
   8623SM  H14S11505   3.436   2.983  14.133  0.2186  2.4075 -0.8781
   8623SM  H14T11506   3.351   2.850  14.061  1.1268  0.0099  2.5392
   8623SM  C15S11507   3.271   3.041  14.002 -0.4348  0.3236  0.2743
   8623SM  H15S11508   3.228   3.005  13.906  2.4066  1.8755 -1.6974
   8623SM  H15T11509   3.296   3.147  13.979 -1.4394  0.9345  1.8297
   8623SM  C16S11510   3.163   3.045  14.117 -0.0847 -0.1038 -0.6441
   8623SM  H16S11511   3.194   3.117  14.196  2.2706 -0.2243 -1.3709
   8623SM  H16T11512   3.148   2.942  14.156  1.9171 -1.7819 -3.8620
   8623SM  C17S11513   3.028   3.074  14.053 -0.3779  0.4283 -0.1333
   8623SM  H17S11514   3.014   3.017  13.958 -0.0821 -1.6475  1.0094
   8623SM  H17T11515   3.026   3.181  14.022  0.2894  0.0849 -1.4657
   8623SM  C18S11516   2.908   3.032  14.144 -0.5457 -0.3821  0.6129
   8623SM  H18S11517   2.923   3.040  14.254 -0.4533 -1.4193  0.6858
   8623SM  H18T11518   2.870   2.930  14.121  0.3226 -0.6714  0.4521
   8623SM  H18U11519   2.825   3.103  14.123  0.3702  0.7229  0.6452
   8623SM   C1F11520   3.260   2.558  13.151  1.4763 -0.1647  0.3610
   8623SM    OF11521   3.258   2.454  13.086 -0.1658  0.2079 -0.1517
   8623SM   C2F11522   3.255   2.546  13.301 -0.2957  0.3975 -0.9719
   8623SM   H2F11523   3.350   2.594  13.334 -0.6764  0.0438  0.7334
   8623SM   H2G11524   3.259   2.438  13.327 -2.9370  0.4185 -0.2121
   8623SM   C3F11525   3.139   2.613  13.378  0.1574 -0.2153 -0.0774
   8623SM   H3F11526   3.050   2.555  13.346 -0.4723  0.2985  0.7279
   8623SM   H3G11527   3.136   2.719  13.345  0.9376  0.3714  1.6533
   8623SM   C4F11528   3.149   2.587  13.528  0.2727 -0.3263 -0.5707
   8623SM   H4F11529   3.055   2.600  13.585 -0.4538  0.6339 -1.9331
   8623SM   H4G11530   3.213   2.672  13.562  0.2879 -0.3553 -0.5270
   8623SM   C5F11531   3.210   2.451  13.571  0.1640 -0.0235 -0.8584
   8623SM   H5F11532   3.314   2.447  13.533  0.5862 -0.2145  0.2597
   8623SM   H5G11533   3.150   2.367  13.529  0.7388 -0.7632 -0.2415
   8623SM   C6F11534   3.212   2.415  13.722 -0.3025  0.0844 -0.2481
   8623SM   H6F11535   3.234   2.308  13.743 -0.4216 -0.1150 -1.1040
   8623SM   H6G11536   3.109   2.433  13.760  0.4721 -1.1606  2.7123
   8623SM   C7F11537   3.310   2.504  13.795  0.2812  0.4638 -0.1798
   8623SM   H7F11538   3.259   2.602  13.798 -0.5384  0.1384 -2.1281
   8623SM   H7G11539   3.403   2.518  13.737  0.3705  0.2512 -0.0911
   8623SM   C8F11540   3.347   2.450  13.931  0.0803 -0.2665  0.1537
   8623SM   H8F11541   3.417   2.364  13.929  1.9629  1.1875  0.0809
   8623SM   H8G11542   3.253   2.423  13.983 -0.2286  1.1962  0.4142
   8623SM   C9F11543   3.427   2.565  14.002  0.4822  0.3151  0.5542
   8623SM   H9F11544   3.359   2.650  14.022  0.4638  0.3723  0.2578
   8623SM   H9G11545   3.498   2.611  13.930  0.6577  0.8057  1.0334
   8623SM  C10F11546   3.494   2.527  14.138  0.2052 -0.5158  0.4586
   8623SM  H10F11547   3.546   2.430  14.122  1.6790  0.2433  0.4272
   8623SM  H10G11548   3.421   2.525  14.222 -0.6825  0.1916 -0.2734
   8623SM  C11F11549   3.605   2.626  14.179  0.1174  0.1389  0.0678
   8623SM  H11F11550   3.565   2.729  14.179 -0.9605 -0.2617 -0.2931
   8623SM  H11G11551   3.675   2.628  14.093  0.0958  1.6011  0.0633
   8623SM  C12F11552   3.653   2.604  14.321  0.2140  0.1335 -0.3514
   8623SM  H12F11553   3.754   2.647  14.309  0.0029  1.3288  1.7993
   8623SM  H12G11554   3.670   2.494  14.324  1.6194  0.3504  1.3008
   8623SM  C13F11555   3.571   2.654  14.438 -0.4593  0.1846 -0.2743
   8623SM  H13F11556   3.481   2.589  14.428  0.0390 -0.4043 -1.0309
   8623SM  H13G11557   3.548   2.758  14.406  1.7728  0.7841 -0.1053
   8623SM  C14F11558   3.630   2.628  14.577 -0.4105  0.3513 -0.1622
   8623SM  H14F11559   3.725   2.683  14.566 -1.4283  2.2953  0.3064
   8623SM  H14G11560   3.658   2.522  14.594  1.0891  0.8435  0.6305
   8623SM  C15F11561   3.536   2.679  14.680 -0.1252  0.8131  0.5338
   8623SM  H15F11562   3.435   2.636  14.669  0.3911 -0.1770 -0.4460
   8623SM  H15G11563   3.545   2.787  14.656  1.1324  0.7766  0.7486
   8623SM  C16F11564   3.587   2.645  14.813 -0.4513  0.1513 -0.5304
   8623SM  H16F11565   3.697   2.655  14.811 -0.0817 -2.8538  0.3291
   8623SM  H16G11566   3.565   2.539  14.836 -0.1231  0.1630 -0.1476
   8623SM  C17F11567   3.532   2.730  14.936  0.6690  0.1879  1.0270
   8623SM  H17F11568   3.574   2.833  14.930 -0.9906  0.8769  0.8202
   8623SM  H17G11569   3.564   2.679  15.029 -0.2031 -1.6551  0.3584
   8623SM  C18F11570   3.376   2.748  14.949  0.6554  0.8278 -0.1919
   8623SM  H18F11571   3.326   2.649  14.957  0.0259  0.9934 -1.7602
   8623SM  H18G11572   3.336   2.787  14.854 -1.1938 -0.2992  0.0759
   8623SM  C19F11573   3.336   2.838  15.066  0.0451 -0.0581 -0.3196
   8623SM  H19F11574   3.414   2.917  15.070 -0.3401  0.3188 -0.1022
   8623SM  H19G11575   3.355   2.791  15.165  0.6223  0.1403 -0.3336
   8623SM  C20F11576   3.195   2.902  15.051  0.2429  0.3035  0.1298
   8623SM  H20F11577   3.124   2.816  15.050 -0.2034  0.6688 -0.0311
   8623SM  H20G11578   3.192   2.958  14.955 -0.4350  4.0856  2.1964
   8623SM  C21F11579   3.156   2.995  15.158 -0.8010  0.3839 -0.1908
   8623SM  H21F11580   3.230   3.078  15.157 -0.1140 -0.1720 -2.5779
   8623SM  H21G11581   3.142   2.951  15.259 -0.6370 -0.9187 -0.7163
   8623SM  C22F11582   3.018   3.060  15.131  0.1278  0.2430  0.6425
   8623SM  H22F11583   2.999   3.104  15.231  0.9193  1.6532  0.1974
   8623SM  H22G11584   2.935   2.990  15.109  1.4288 -0.7908 -1.2830
   8623SM  C23F11585   3.020   3.173  15.024 -0.1000  0.1820  0.1387
   8623SM  H23F11586   3.100   3.250  15.027 -0.1485  0.4009 -2.2732
   8623SM  H23G11587   2.929   3.237  15.029 -0.1894  0.0552  0.1329
   8623SM  H23H11588   3.020   3.149  14.916 -0.7312  0.9723 -0.0489
   8723SM     N11589   4.626   2.676  12.500 -0.1775  0.0913  0.4410
   8723SM   C1511590   4.739   2.685  12.600 -0.4595 -0.0483  0.6467
   8723SM  H15A11591   4.821   2.641  12.545  2.6244  2.6770  2.6568
   8723SM  H15B11592   4.715   2.631  12.690  0.3979  0.1638  1.0172
   8723SM  H15C11593   4.764   2.790  12.611 -1.0300  0.4228 -1.8432
   8723SM   C1411594   4.503   2.732  12.569  0.6481 -0.7952  0.6561
   8723SM  H14A11595   4.519   2.839  12.575 -1.5244 -0.1751 -2.2552
   8723SM  H14B11596   4.494   2.699  12.672 -0.0679 -1.0289  0.5199
   8723SM  H14C11597   4.410   2.726  12.516 -0.7335  3.2989  2.2079
   8723SM   C1311598   4.665   2.761  12.387  0.1047 -0.4122  0.2525
   8723SM  H13A11599   4.758   2.733  12.340  1.6213  0.1136  2.7749
   8723SM  H13B11600   4.678   2.866  12.410  2.2476 -0.6824  0.4898
   8723SM  H13C11601   4.591   2.746  12.310  0.5199  0.1779 -0.2819
   8723SM   C1211602   4.607   2.527  12.456  0.1154  0.3698 -0.0564
   8723SM  H12A11603   4.521   2.523  12.392 -1.0634  0.9133  1.4361
   8723SM  H12B11604   4.574   2.469  12.541  1.2052 -0.9641 -0.5018
   8723SM   C1111605   4.716   2.438  12.388 -0.3044  0.0212  0.1313
   8723SM  H11A11606   4.733   2.485  12.289  0.0135  1.6806  0.9530
   8723SM  H11B11607   4.670   2.339  12.363 -1.0854  0.2854  0.4891
   8723SM     P11608   4.876   2.345  12.566 -0.2451  0.2751  0.2011
   8723SM   O1311609   4.873   2.205  12.525 -0.1266 -0.3847  0.2509
   8723SM   O1411610   5.004   2.394  12.628 -0.1169 -0.0307  0.1260
   8723SM   O1111611   4.751   2.363  12.657  0.0045 -0.6822 -0.2351
   8723SM   O1211612   4.850   2.438  12.440  0.4113 -0.0398 -0.3032
   8723SM   C1S11613   4.753   2.313  12.793  0.0492 -0.1321  0.6970
   8723SM   H1S11614   4.853   2.319  12.842  0.1451  3.7392  0.3396
   8723SM   H1T11615   4.738   2.203  12.794  0.1158 -0.2461 -2.4396
   8723SM    NF11616   4.663   2.302  13.019  0.1204 -0.0705 -0.0906
   8723SM   HNF11617   4.586   2.243  13.043 -0.2278  0.1657 -0.6036
   8723SM   C2S11618   4.655   2.382  12.898 -0.9726  0.2729  0.2652
   8723SM   H2S11619   4.698   2.483  12.916  1.1432 -0.6809  0.8637
   8723SM   C3S11620   4.516   2.401  12.838  0.7505  0.5815  0.0884
   8723SM   H3S11621   4.463   2.305  12.819 -2.8319  2.6694 -1.3334
   8723SM    O311622   4.507   2.466  12.712  0.2390 -0.0237 -0.4290
   8723SM   HO311623   4.599   2.476  12.689  0.2254 -1.3706 -1.2006
   8723SM   C4S11624   4.428   2.475  12.940 -0.0391 -0.2373  0.8532
   8723SM   H4S11625   4.421   2.583  12.923 -0.3569 -0.4375 -0.3998
   8723SM   C5S11626   4.364   2.410  13.038  0.4504 -0.3033 -0.2927
   8723SM   H5S11627   4.360   2.301  13.029 -0.4458 -0.3271  0.2202
   8723SM   C6S11628   4.267   2.475  13.140 -0.5778  1.1521 -0.0554
   8723SM   H6S11629   4.279   2.421  13.237  0.7821  1.5862  0.0390
   8723SM   H6T11630   4.162   2.451  13.114 -0.4479  0.1951  0.2621
   8723SM   C7S11631   4.279   2.624  13.168  0.1654 -0.4511  0.6915
   8723SM   H7S11632   4.226   2.670  13.082  0.9170  2.8376  1.8566
   8723SM   H7T11633   4.382   2.666  13.171 -0.5150  1.2248  1.5438
   8723SM   C8S11634   4.208   2.668  13.291 -0.0142  0.3328 -0.4732
   8723SM   H8S11635   4.268   2.625  13.375 -2.2684  0.7091  1.4397
   8723SM   H8T11636   4.106   2.624  13.291  0.5368 -1.0284 -1.1876
   8723SM   C9S11637   4.204   2.818  13.314 -0.1118  0.9136 -0.3931
   8723SM   H9S11638   4.186   2.871  13.218  4.2890  0.3396 -1.7897
   8723SM   H9T11639   4.310   2.844  13.338  0.9489 -0.6804 -2.9582
   8723SM  C10S11640   4.095   2.854  13.415 -0.0276 -0.3455  0.5676
   8723SM  H10S11641   4.003   2.805  13.375  0.5584 -0.3243 -0.8760
   8723SM  H10T11642   4.081   2.963  13.430  1.2282 -0.0195 -0.4089
   8723SM  C11S11643   4.133   2.806  13.555 -0.9652  0.7236  0.4320
   8723SM  H11S11644   4.234   2.845  13.578 -0.0647 -2.2987  2.0580
   8723SM  H11T11645   4.156   2.697  13.553 -0.5712  0.7698  1.5948
   8723SM  C12S11646   4.033   2.837  13.663 -1.0588  0.5946 -0.2594
   8723SM  H12S11647   3.930   2.807  13.637 -0.8683 -0.6987  0.3555
   8723SM  H12T11648   4.033   2.947  13.672  1.2492  0.7192 -1.0201
   8723SM  C13S11649   4.079   2.760  13.793  0.2914 -0.5379 -0.2433
   8723SM  H13S11650   4.185   2.791  13.796 -0.2257  1.6662 -1.8350
   8723SM  H13T11651   4.078   2.649  13.789 -2.4732 -0.5893 -0.5912
   8723SM  C14S11652   4.013   2.800  13.925  0.1957 -0.0298 -0.6154
   8723SM  H14S11653   4.068   2.758  14.012  0.7000 -1.1806 -1.4648
   8723SM  H14T11654   3.922   2.738  13.938  0.9122 -1.3150 -1.4741
   8723SM  C15S11655   3.971   2.946  13.950  0.2050 -0.3798 -0.5148
   8723SM  H15S11656   3.883   2.949  13.882  1.1346 -2.6282 -1.9566
   8723SM  H15T11657   4.055   3.010  13.915  0.4904  0.7991  2.1474
   8723SM  C16S11658   3.919   2.983  14.089 -0.5568 -0.1904  0.4772
   8723SM  H16S11659   3.991   2.947  14.166 -0.7238  1.0986  1.2522
   8723SM  H16T11660   3.828   2.921  14.104 -0.9696 -0.0461 -1.1785
   8723SM  C17S11661   3.875   3.133  14.100 -0.5154  0.0293  0.2314
   8723SM  H17S11662   3.783   3.141  14.038  0.7409  0.2264 -1.7069
   8723SM  H17T11663   3.946   3.198  14.045 -1.4950  0.0648 -1.0646
   8723SM  C18S11664   3.859   3.188  14.243  0.1991 -0.4511 -0.3256
   8723SM  H18S11665   3.949   3.163  14.303  0.0262  3.0046  1.6434
   8723SM  H18T11666   3.764   3.143  14.278  0.3065 -2.0748 -1.9776
   8723SM  H18U11667   3.847   3.298  14.250 -2.8870 -0.8165  2.3437
   8723SM   C1F11668   4.765   2.294  13.101 -0.4864  0.8102  0.3418
   8723SM    OF11669   4.863   2.370  13.089  0.3315  0.0742  0.5480
   8723SM   C2F11670   4.755   2.187  13.214 -0.6518 -0.2273 -0.1091
   8723SM   H2F11671   4.854   2.169  13.260 -1.6948 -0.7917  2.0256
   8723SM   H2G11672   4.717   2.092  13.170  3.0349 -4.0166  3.8669
   8723SM   C3F11673   4.667   2.222  13.340  1.3779  0.1511  0.1613
   8723SM   H3F11674   4.690   2.325  13.375  1.2838  0.8546 -1.7583
   8723SM   H3G11675   4.697   2.145  13.414 -0.7613 -2.0563 -1.1628
   8723SM   C4F11676   4.516   2.205  13.308  0.3081 -0.0688 -0.1359
   8723SM   H4F11677   4.509   2.171  13.202  0.1048 -1.1279  0.2058
   8723SM   H4G11678   4.464   2.303  13.311  0.0021 -0.1275 -2.0809
   8723SM   C5F11679   4.454   2.092  13.405  0.1579 -0.5079 -0.0069
   8723SM   H5F11680   4.514   1.999  13.401 -0.6502 -1.0500  0.1808
   8723SM   H5G11681   4.354   2.067  13.363  0.6940 -0.2775 -1.4900
   8723SM   C6F11682   4.440   2.142  13.552 -0.1080 -0.7605  0.5776
   8723SM   H6F11683   4.538   2.140  13.605  0.2781 -0.2678 -0.1001
   8723SM   H6G11684   4.369   2.071  13.600 -1.4624 -2.1034 -3.0646
   8723SM   C7F11685   4.379   2.288  13.579 -0.2540 -0.5324  0.1393
   8723SM   H7F11686   4.332   2.322  13.484 -0.1210 -0.8768 -0.0528
   8723SM   H7G11687   4.467   2.355  13.593  0.6512 -1.1414 -2.1858
   8723SM   C8F11688   4.301   2.292  13.712 -0.3566 -0.0428 -0.6625
   8723SM   H8F11689   4.228   2.208  13.714 -0.6514  0.1687 -1.9354
   8723SM   H8G11690   4.244   2.388  13.717  0.5633  0.4945  3.6056
   8723SM   C9F11691   4.384   2.271  13.843  0.1833  0.5298 -0.2356
   8723SM   H9F11692   4.467   2.345  13.838 -0.4361  1.2456 -0.2616
   8723SM   H9G11693   4.425   2.168  13.846  1.1353  0.8867 -0.7688
   8723SM  C10F11694   4.298   2.303  13.967 -0.4396 -0.2045  0.3230
   8723SM  H10F11695   4.334   2.265  14.066  0.4231  1.2413  0.6020
   8723SM  H10G11696   4.205   2.248  13.947 -0.8720 -0.6887  3.2423
   8723SM  C11F11697   4.251   2.453  13.987  0.4332 -0.4373 -0.0400
   8723SM  H11F11698   4.178   2.472  13.905 -1.4532 -1.4052  1.3238
   8723SM  H11G11699   4.334   2.527  13.985 -1.3858  1.7876  1.7369
   8723SM  C12F11700   4.173   2.474  14.113 -0.0493 -0.0627  0.1134
   8723SM  H12F11701   4.131   2.576  14.114  0.0955 -0.0073  1.6785
   8723SM  H12G11702   4.236   2.446  14.200  1.4010 -0.3576 -0.9770
   8723SM  C13F11703   4.056   2.373  14.115  0.5164  0.0724 -0.5943
   8723SM  H13F11704   4.093   2.269  14.128  0.1250  0.0825  0.7287
   8723SM  H13G11705   4.000   2.384  14.020  0.9887  2.3508 -0.6481
   8723SM  C14F11706   3.968   2.399  14.239  0.2869 -0.2588  0.2906
   8723SM  H14F11707   3.862   2.390  14.209  0.6043  1.7012 -1.7273
   8723SM  H14G11708   3.974   2.507  14.266  1.7578 -0.7407  2.1024
   8723SM  C15F11709   4.013   2.331  14.377  0.7422 -0.0668  0.5534
   8723SM  H15F11710   4.124   2.339  14.387  0.5102  0.1703  4.0105
   8723SM  H15G11711   3.985   2.223  14.371  0.3734  0.0191  0.7074
   8723SM  C16F11712   3.949   2.385  14.495 -0.0492  0.0863 -0.3991
   8723SM  H16F11713   3.840   2.386  14.475 -0.1665 -2.1164 -0.1020
   8723SM  H16G11714   3.986   2.488  14.515 -0.0813  0.3308 -1.5595
   8723SM  C17F11715   3.991   2.303  14.622 -0.5175  0.3569 -0.1909
   8723SM  H17F11716   4.102   2.303  14.633 -0.5262  0.7662 -0.0843
   8723SM  H17G11717   3.974   2.194  14.610  0.7591 -0.4221  3.7284
   8723SM  C18F11718   3.924   2.352  14.751  0.4808  0.1687  0.5950
   8723SM  H18F11719   3.927   2.461  14.768 -1.6642  0.2036  1.0811
   8723SM  H18G11720   3.989   2.307  14.830 -0.0198 -0.7834  0.4893
   8723SM  C19F11721   3.784   2.284  14.773 -0.4367 -0.1300  0.8568
   8723SM  H19F11722   3.792   2.176  14.750  0.3068 -0.1807  1.3153
   8723SM  H19G11723   3.716   2.341  14.706 -0.5868 -0.0920  1.0373
   8723SM  C20F11724   3.765   2.305  14.922 -0.3568 -0.2617 -0.7282
   8723SM  H20F11725   3.793   2.411  14.941  2.8464 -0.8062 -1.8366
   8723SM  H20G11726   3.850   2.258  14.976 -0.7335 -0.6176 -0.4317
   8723SM  C21F11727   3.625   2.286  14.971 -0.3909 -0.9763 -0.1222
   8723SM  H21F11728   3.591   2.182  14.993 -0.7815 -1.0027 -0.8223
   8723SM  H21G11729   3.562   2.324  14.887  2.4087  1.5345 -1.2655
   8723SM  C22F11730   3.605   2.371  15.102  0.4725 -0.4960 -0.1093
   8723SM  H22F11731   3.606   2.479  15.078  0.9923 -0.5044 -0.1415
   8723SM  H22G11732   3.687   2.360  15.177 -0.0742 -0.3962  0.5191
   8723SM  C23F11733   3.475   2.328  15.173 -0.1046 -0.7202  0.3238
   8723SM  H23F11734   3.469   2.380  15.271 -0.8068 -1.8011  0.8714
   8723SM  H23G11735   3.464   2.219  15.189 -2.5126 -0.9184 -1.9709
   8723SM  H23H11736   3.395   2.369  15.108  2.1766  1.8946 -1.0506
   8823SM     N11737   1.970   1.389  12.202 -0.3420  0.1541 -0.1337
   8823SM   C1511738   2.084   1.394  12.100 -0.1598 -0.1726 -0.2035
   8823SM  H15A11739   2.133   1.298  12.085  1.1480  0.5310 -0.6258
   8823SM  H15B11740   2.165   1.457  12.133  0.0495  0.0014 -1.0193
   8823SM  H15C11741   2.048   1.438  12.008 -0.1017  0.0718 -0.1091
   8823SM   C1411742   1.869   1.286  12.155  0.2133  0.2636  0.1255
   8823SM  H14A11743   1.780   1.273  12.214 -1.3844  2.7163 -1.5630
   8823SM  H14B11744   1.918   1.191  12.140  0.0471  0.0030  1.1615
   8823SM  H14C11745   1.827   1.315  12.060 -0.0923 -0.3374  0.0696
   8823SM   C1311746   2.021   1.347  12.335 -0.0661 -0.1971 -0.2280
   8823SM  H13A11747   1.939   1.322  12.400  2.1605  0.7712  3.2508
   8823SM  H13B11748   2.078   1.424  12.384 -1.2603 -0.0588  1.0027
   8823SM  H13C11749   2.088   1.262  12.333  1.1856  0.7496 -0.0998
   8823SM   C1211750   1.902   1.520  12.222 -0.2430 -0.1334  0.4646
   8823SM  H12A11751   1.846   1.546  12.133 -0.1259 -1.7313 -0.0970
   8823SM  H12B11752   1.970   1.603  12.236 -3.2804  2.4343  1.2269
   8823SM   C1111753   1.809   1.533  12.350 -0.3467  0.4074 -0.4656
   8823SM  H11A11754   1.758   1.436  12.369  3.1735 -1.4344  0.4364
   8823SM  H11B11755   1.725   1.602  12.323 -1.3850 -0.6075  0.0688
   8823SM     P11756   1.911   1.723  12.497  0.2100  0.6524 -0.2199
   8823SM   O1311757   2.038   1.764  12.425 -0.4732  0.0255 -0.2493
   8823SM   O1411758   1.793   1.806  12.472  0.1819 -0.6100  0.2762
   8823SM   O1111759   1.960   1.713  12.654 -0.2328 -0.1712 -0.5304
   8823SM   O1211760   1.880   1.568  12.467  0.8969 -0.3125 -0.6938
   8823SM   C1S11761   1.860   1.678  12.757 -0.5892 -1.0830  0.4291
   8823SM   H1S11762   1.837   1.570  12.772  1.1415 -1.6639 -0.7696
   8823SM   H1T11763   1.766   1.723  12.719 -0.5823 -1.9645 -0.7228
   8823SM    NF11764   1.814   1.659  12.995 -0.1418  0.6899  0.1456
   8823SM   HNF11765   1.723   1.691  13.018 -0.0332 -0.0926  1.7740
   8823SM   C2S11766   1.897   1.730  12.897 -0.1878 -0.4662  0.3402
   8823SM   H2S11767   2.002   1.696  12.904 -0.6310 -1.6122  1.9211
   8823SM   C3S11768   1.889   1.885  12.903 -0.8502  0.4123  0.5021
   8823SM   H3S11769   1.781   1.902  12.888 -1.6062 -2.8797  1.4394
   8823SM    O311770   1.965   1.949  12.799 -0.0871  0.7871  0.2837
   8823SM   HO311771   2.010   1.882  12.747  0.9393  0.5415  1.4322
   8823SM   C4S11772   1.932   1.931  13.040 -0.4402  0.1923 -0.6385
   8823SM   H4S11773   1.989   1.861  13.102  0.2758  0.9747 -0.3936
   8823SM   C5S11774   1.893   2.049  13.098  0.5646  0.3139 -0.1013
   8823SM   H5S11775   1.823   2.113  13.043 -1.1265 -1.5401 -0.2487
   8823SM   C6S11776   1.924   2.103  13.237 -0.1600  0.6728  0.0884
   8823SM   H6S11777   1.830   2.117  13.294 -1.4435 -2.1014 -1.1614
   8823SM   H6T11778   1.961   2.208  13.230 -0.1212  0.9563  3.1540
   8823SM   C7S11779   2.031   2.022  13.319 -0.0649  0.0262  0.4782
   8823SM   H7S11780   2.123   2.016  13.259 -1.2859 -0.3874 -1.4292
   8823SM   H7T11781   1.989   1.921  13.338 -0.5737  0.4570  1.7982
   8823SM   C8S11782   2.070   2.089  13.450 -0.1433  0.0193  0.1010
   8823SM   H8S11783   2.067   2.199  13.434  0.5212  0.0376  0.0755
   8823SM   H8T11784   2.173   2.073  13.488  0.3341  0.7430 -0.8570
   8823SM   C9S11785   1.969   2.057  13.560 -0.7996 -0.3672 -0.6966
   8823SM   H9S11786   1.956   1.947  13.553 -0.7478 -0.3642 -0.8641
   8823SM   H9T11787   1.872   2.108  13.540 -0.4776  0.5888  0.1263
   8823SM  C10S11788   2.016   2.095  13.704 -0.0845  0.9856 -0.1566
   8823SM  H10S11789   2.044   2.203  13.706  2.1647  0.4474  1.1762
   8823SM  H10T11790   2.111   2.040  13.718 -2.6025 -3.6582  0.5121
   8823SM  C11S11791   1.923   2.059  13.820  0.0798  0.1518 -0.4386
   8823SM  H11S11792   1.912   1.949  13.824  3.6737 -0.3234  0.7164
   8823SM  H11T11793   1.824   2.101  13.794  0.2448  1.0825  0.3632
   8823SM  C12S11794   1.965   2.115  13.953  0.1554  0.2882  0.0346
   8823SM  H12S11795   1.962   2.226  13.956 -0.6859  0.5129 -3.9400
   8823SM  H12T11796   2.069   2.079  13.973  0.1673  0.3108  0.0143
   8823SM  C13S11797   1.879   2.066  14.070  0.2673 -0.2675 -0.1849
   8823SM  H13S11798   1.876   1.955  14.069  0.7716 -0.2990  0.4602
   8823SM  H13T11799   1.770   2.075  14.052  0.2787 -1.8195 -1.2470
   8823SM  C14S11800   1.920   2.128  14.201 -0.1414  0.1083 -0.1741
   8823SM  H14S11801   1.906   2.238  14.195 -3.6073 -0.2537 -1.4031
   8823SM  H14T11802   2.028   2.108  14.219  0.1119  1.9191  0.5845
   8823SM  C15S11803   1.852   2.074  14.329  0.4203  0.3690  0.0564
   8823SM  H15S11804   1.876   1.966  14.335  0.4321  0.2488 -1.6347
   8823SM  H15T11805   1.742   2.085  14.318  0.5879  1.6388 -0.5094
   8823SM  C16S11806   1.898   2.131  14.464 -0.4570 -0.3852  0.0321
   8823SM  H16S11807   1.916   2.239  14.452 -1.0213 -0.0813  1.6984
   8823SM  H16T11808   1.991   2.081  14.499 -0.6966 -3.4017 -3.0414
   8823SM  C17S11809   1.791   2.114  14.577  0.0069 -0.7635  0.4224
   8823SM  H17S11810   1.749   2.012  14.563  0.6837 -0.8644 -0.9849
   8823SM  H17T11811   1.713   2.191  14.557  0.5689  0.1248  1.5179
   8823SM  C18S11812   1.825   2.133  14.719  0.2681  1.3379  0.3780
   8823SM  H18S11813   1.898   2.053  14.744  0.7590  0.9449 -2.0600
   8823SM  H18T11814   1.738   2.142  14.787 -0.5196  2.0980 -0.7052
   8823SM  H18U11815   1.872   2.234  14.724 -0.4486  1.6372  1.2788
   8823SM   C1F11816   1.841   1.526  13.019  0.1609 -0.5703  0.0366
   8823SM    OF11817   1.948   1.476  12.982  0.1588 -0.7646  0.2700
   8823SM   C2F11818   1.732   1.455  13.099  0.3218  0.7384 -0.4000
   8823SM   H2F11819   1.637   1.501  13.066  0.3637 -0.8271 -2.9513
   8823SM   H2G11820   1.748   1.463  13.209  1.5604 -1.9908 -0.2907
   8823SM   C3F11821   1.733   1.306  13.063 -0.6171  0.1034 -0.4569
   8823SM   H3F11822   1.757   1.286  12.956  0.4626  0.1670 -0.2326
   8823SM   H3G11823   1.633   1.267  13.092 -0.8713  1.0148 -0.0979
   8823SM   C4F11824   1.838   1.220  13.139  0.1914 -0.0567  0.0733
   8823SM   H4F11825   1.938   1.265  13.123 -0.2487  0.9304 -0.0034
   8823SM   H4G11826   1.850   1.120  13.092  0.2138 -0.7514  1.5276
   8823SM   C5F11827   1.814   1.203  13.291  0.0833  0.0116  0.2988
   8823SM   H5F11828   1.724   1.140  13.305 -0.0288 -0.4317 -2.0742
   8823SM   H5G11829   1.785   1.304  13.328 -2.1357  0.0857 -1.4571
   8823SM   C6F11830   1.938   1.153  13.369 -0.4496 -0.5217  0.1343
   8823SM   H6F11831   2.025   1.218  13.344 -2.6674  2.0922 -1.4449
   8823SM   H6G11832   1.959   1.052  13.329 -0.8317 -0.3585 -0.5069
   8823SM   C7F11833   1.909   1.158  13.520 -0.3051 -0.3017 -0.1514
   8823SM   H7F11834   1.823   1.088  13.529  1.2647 -2.1881  0.9465
   8823SM   H7G11835   1.898   1.263  13.553  1.3604 -0.0284 -0.3817
   8823SM   C8F11836   2.028   1.113  13.605  0.4069  0.3802 -0.0470
   8823SM   H8F11837   2.107   1.191  13.595  1.0216 -0.1535  0.5881
   8823SM   H8G11838   2.075   1.015  13.582  0.3702 -0.3470  2.7179
   8823SM   C9F11839   1.998   1.109  13.760  0.2078  0.6964 -0.1450
   8823SM   H9F11840   2.028   1.010  13.803  0.0028  1.2341  1.2825
   8823SM   H9G11841   1.891   1.122  13.784 -0.2791 -3.0023  0.2677
   8823SM  C10F11842   2.086   1.200  13.843 -0.0743  0.0816  0.1095
   8823SM  H10F11843   2.087   1.308  13.817  0.2640  0.4172  1.4366
   8823SM  H10G11844   2.188   1.157  13.839 -0.3069 -0.7211  1.8718
   8823SM  C11F11845   2.052   1.202  13.997 -0.7397 -0.1099  0.0558
   8823SM  H11F11846   1.955   1.251  14.021 -1.5221 -1.8629  0.6710
   8823SM  H11G11847   2.133   1.266  14.039 -0.7583  0.8665 -1.3355
   8823SM  C12F11848   2.050   1.058  14.062  0.3515  0.2258  0.0361
   8823SM  H12F11849   2.140   0.994  14.049 -0.0982 -0.1738 -1.2643
   8823SM  H12G11850   1.959   1.011  14.018  0.4034 -1.2654  1.4216
   8823SM  C13F11851   2.035   1.057  14.214  0.6959 -0.6448 -0.0093
   8823SM  H13F11852   2.013   0.954  14.250  0.0477 -0.5324 -0.0673
   8823SM  H13G11853   1.953   1.127  14.240  0.4979 -0.6455 -0.6014
   8823SM  C14F11854   2.163   1.101  14.290  0.2375  0.8673  0.2715
   8823SM  H14F11855   2.188   1.205  14.262  1.2984  0.3459 -0.7971
   8823SM  H14G11856   2.244   1.032  14.258 -1.8799 -1.3122 -0.6988
   8823SM  C15F11857   2.154   1.097  14.441 -0.3455 -0.0398  0.4997
   8823SM  H15F11858   2.254   1.112  14.488 -0.0573  0.2474 -0.2056
   8823SM  H15G11859   2.120   1.001  14.486  0.7906 -0.1322  1.2113
   8823SM  C16F11860   2.063   1.213  14.494 -0.8164 -0.7684 -0.9037
   8823SM  H16F11861   1.961   1.206  14.450 -1.2792  0.2144 -0.0510
   8823SM  H16G11862   2.092   1.315  14.460  0.5184  0.2805  2.8461
   8823SM  C17F11863   2.033   1.203  14.640  0.6201  0.3529 -0.9564
   8823SM  H17F11864   1.987   1.109  14.676 -0.8710  1.5993  0.5526
   8823SM  H17G11865   1.963   1.286  14.663 -0.3786 -0.3658 -1.3411
   8823SM  C18F11866   2.154   1.237  14.727 -0.5609  0.0704 -0.0034
   8823SM  H18F11867   2.206   1.323  14.679 -1.6656 -0.2206 -1.8203
   8823SM  H18G11868   2.220   1.148  14.735  1.3368  1.4243 -0.0089
   8823SM  C19F11869   2.113   1.279  14.870  0.0852  0.0607 -0.0484
   8823SM  H19F11870   2.101   1.184  14.928  1.1655  0.5825  1.0933
   8823SM  H19G11871   2.016   1.332  14.867 -0.6155 -1.0842  1.0191
   8823SM  C20F11872   2.219   1.358  14.944 -0.6142 -0.2729  0.1136
   8823SM  H20F11873   2.241   1.459  14.904 -1.0277  1.2146  3.2609
   8823SM  H20G11874   2.316   1.305  14.947 -0.1449  0.5613  0.0578
   8823SM  C21F11875   2.178   1.376  15.098 -0.7454  0.0715  0.2657
   8823SM  H21F11876   2.273   1.416  15.139 -1.0315  0.0653  0.9462
   8823SM  H21G11877   2.171   1.274  15.141  0.7588  0.0930  0.6042
   8823SM  C22F11878   2.063   1.475  15.130 -0.3363 -0.1581 -0.1207
   8823SM  H22F11879   2.061   1.556  15.054 -0.3087  1.0944  1.1891
   8823SM  H22G11880   2.096   1.510  15.230  1.7165 -2.3243  0.0696
   8823SM  C23F11881   1.929   1.407  15.141  0.6553  0.4177 -0.1285
   8823SM  H23F11882   1.851   1.480  15.172  1.0646  0.3100  1.2380
   8823SM  H23G11883   1.930   1.321  15.211  2.4109  0.3461 -0.1931
   8823SM  H23H11884   1.907   1.371  15.038 -0.3816  0.7901 -0.0464
   8923SM     N11885   7.413   2.271  12.349  0.8294  0.0681 -0.4954
   8923SM   C1511886   7.285   2.257  12.275  0.5126  0.4843  0.2955
   8923SM  H15A11887   7.294   2.205  12.181  0.4604 -0.4200  0.7785
   8923SM  H15B11888   7.239   2.354  12.258 -0.0865  0.4924  1.8117
   8923SM  H15C11889   7.213   2.214  12.343  2.7445 -1.8914  1.3417
   8923SM   C1411890   7.485   2.136  12.358 -0.5262 -0.3962 -0.4868
   8923SM  H14A11891   7.413   2.064  12.394 -0.5513  0.6542  1.7011
   8923SM  H14B11892   7.570   2.144  12.424 -0.4778 -1.0521 -0.4641
   8923SM  H14C11893   7.518   2.098  12.262  0.1836 -1.7253  0.2672
   8923SM   C1311894   7.504   2.365  12.289  0.6921 -0.0359  0.2978
   8923SM  H13A11895   7.597   2.362  12.343  0.9646 -1.5846 -0.1977
   8923SM  H13B11896   7.456   2.461  12.281 -1.0577 -0.9137 -0.1985
   8923SM  H13C11897   7.523   2.343  12.185  1.6957 -0.7221  0.6152
   8923SM   C1211898   7.385   2.327  12.483 -0.7133  0.1159  0.4981
   8923SM  H12A11899   7.330   2.420  12.473 -1.3082 -0.2304  0.5131
   8923SM  H12B11900   7.475   2.356  12.536  0.1265 -1.8528  0.2248
   8923SM   C1111901   7.297   2.232  12.570 -0.4699 -0.6693 -0.1479
   8923SM  H11A11902   7.304   2.268  12.675 -1.2619  1.3263 -0.7348
   8923SM  H11B11903   7.340   2.130  12.576  0.0404 -0.3721  2.3559
   8923SM     P11904   7.071   2.356  12.574 -0.3108 -0.3903  0.2469
   8923SM   O1311905   7.146   2.484  12.580  0.1169 -0.1957 -0.2123
   8923SM   O1411906   6.948   2.356  12.494  0.4823 -0.1084 -0.0068
   8923SM   O1111907   7.043   2.329  12.730  0.4530 -0.1812 -0.4196
   8923SM   O1211908   7.158   2.228  12.529  0.2846 -0.0612 -0.2602
   8923SM   C1S11909   7.011   2.203  12.786  0.3862 -0.0682  0.1613
   8923SM   H1S11910   7.104   2.143  12.798  0.7346  0.7698  1.8710
   8923SM   H1T11911   6.935   2.152  12.722  0.6632  0.9580 -1.0256
   8923SM    NF11912   6.956   2.089  12.992 -0.5389 -0.0930 -0.6982
   8923SM   HNF11913   6.871   2.037  12.982 -0.9446  0.4959 -0.4093
   8923SM   C2S11914   6.954   2.214  12.928 -0.1722 -0.3390 -0.4562
   8923SM   H2S11915   7.018   2.279  12.992  0.6451  0.1000 -1.6749
   8923SM   C3S11916   6.816   2.281  12.923 -0.3321  0.0276  0.4245
   8923SM   H3S11917   6.755   2.209  12.865  0.4184  0.2869 -0.7241
   8923SM    O311918   6.807   2.403  12.850 -0.0801  0.0283 -0.0283
   8923SM   HO311919   6.894   2.423  12.814  0.1195  3.2668  1.8887
   8923SM   C4S11920   6.755   2.288  13.065 -0.2054  1.2771 -0.7009
   8923SM   H4S11921   6.690   2.203  13.093  1.0302 -0.3500 -2.4626
   8923SM   C5S11922   6.773   2.395  13.144  0.3852  0.1267  0.0715
   8923SM   H5S11923   6.824   2.486  13.108  1.4536 -0.0208  1.1356
   8923SM   C6S11924   6.713   2.407  13.282 -0.1060 -0.6060  0.6838
   8923SM   H6S11925   6.645   2.320  13.297 -3.4262  1.4747 -0.9277
   8923SM   H6T11926   6.641   2.492  13.279 -0.0759 -0.5977  0.1993
   8923SM   C7S11927   6.803   2.405  13.399 -0.5487  0.5725  0.1379
   8923SM   H7S11928   6.850   2.503  13.424 -0.1850 -0.1792  2.7785
   8923SM   H7T11929   6.885   2.330  13.390 -0.5319  0.6809 -0.6426
   8923SM   C8S11930   6.732   2.361  13.522  0.4360  0.2406 -0.5103
   8923SM   H8S11931   6.693   2.259  13.504 -0.6749  0.9735 -2.4795
   8923SM   H8T11932   6.648   2.432  13.538  1.8157  1.4835  1.9392
   8923SM   C9S11933   6.826   2.373  13.644 -0.1878  0.4588  0.4688
   8923SM   H9S11934   6.860   2.479  13.635 -1.0141  0.7889  1.0893
   8923SM   H9T11935   6.906   2.298  13.627 -3.0872 -2.6830 -0.5189
   8923SM  C10S11936   6.752   2.361  13.773 -0.0257  0.6685  0.3564
   8923SM  H10S11937   6.683   2.274  13.767 -1.5042  1.8183  0.1448
   8923SM  H10T11938   6.681   2.446  13.780 -1.1135 -0.1303 -0.6958
   8923SM  C11S11939   6.843   2.353  13.901 -0.2541  0.0448  0.1302
   8923SM  H11S11940   6.916   2.437  13.898 -0.0013 -0.1897 -0.3044
   8923SM  H11T11941   6.895   2.255  13.899  0.6292  0.5112 -0.3627
   8923SM  C12S11942   6.759   2.347  14.023 -0.0515 -0.3308 -0.4496
   8923SM  H12S11943   6.684   2.266  14.013  0.9943 -1.3976  0.1308
   8923SM  H12T11944   6.719   2.450  14.040 -3.1619 -1.1992 -1.8748
   8923SM  C13S11945   6.842   2.321  14.144  0.4230  0.5240  0.6393
   8923SM  H13S11946   6.933   2.385  14.149  0.2793  0.8623 -0.6041
   8923SM  H13T11947   6.881   2.218  14.141 -0.0808  0.3575 -1.1520
   8923SM  C14S11948   6.758   2.337  14.266 -0.1916  0.4909 -0.3890
   8923SM  H14S11949   6.660   2.284  14.261 -0.6555  1.2890  0.1153
   8923SM  H14T11950   6.728   2.442  14.286  3.7812  1.3669  2.2218
   8923SM  C15S11951   6.834   2.295  14.398 -0.2888  0.1433  0.0696
   8923SM  H15S11952   6.931   2.349  14.406  0.4843 -1.4372  4.3610
   8923SM  H15T11953   6.866   2.188  14.400  1.4111  0.6352  0.5347
   8923SM  C16S11954   6.751   2.340  14.517  0.5736 -0.2819 -0.7034
   8923SM  H16S11955   6.650   2.294  14.514  0.5220 -0.5057  1.9947
   8923SM  H16T11956   6.736   2.449  14.510  2.4122  0.1635  1.3779
   8923SM  C17S11957   6.820   2.297  14.651  0.0076 -0.5862  0.2311
   8923SM  H17S11958   6.917   2.351  14.651  0.5290 -1.4274 -1.6539
   8923SM  H17T11959   6.840   2.188  14.652 -0.1166 -0.6182 -0.3827
   8923SM  C18S11960   6.734   2.330  14.774 -0.1368 -0.1043 -0.0501
   8923SM  H18S11961   6.768   2.273  14.864 -1.7264 -0.3971  0.4100
   8923SM  H18T11962   6.625   2.307  14.774 -0.2338  0.2059  1.8111
   8923SM  H18U11963   6.749   2.439  14.785  3.3061  0.0369 -3.8103
   8923SM   C1F11964   7.062   2.039  13.057 -1.0903 -0.0412  0.3695
   8923SM    OF11965   7.162   2.110  13.079 -0.5035  0.4543 -0.0453
   8923SM   C2F11966   7.055   1.894  13.107 -0.1281  0.5487 -0.0741
   8923SM   H2F11967   7.101   1.826  13.032 -1.8342 -0.3641 -0.3500
   8923SM   H2G11968   6.947   1.865  13.107 -0.1674  0.5322 -2.1333
   8923SM   C3F11969   7.117   1.869  13.246  0.5404 -0.5682 -0.1364
   8923SM   H3F11970   7.222   1.902  13.230  0.3285  2.2681  3.2395
   8923SM   H3G11971   7.116   1.760  13.264  1.6298 -1.0659 -2.6315
   8923SM   C4F11972   7.062   1.948  13.366  0.2282  1.0747 -0.3346
   8923SM   H4F11973   6.966   1.899  13.392  1.7001 -1.9585 -0.2237
   8923SM   H4G11974   7.043   2.056  13.347 -0.9405  0.6699 -1.5963
   8923SM   C5F11975   7.142   1.925  13.499 -0.5668 -0.1180  0.3532
   8923SM   H5F11976   7.240   1.978  13.491 -0.2432 -0.7804 -0.1375
   8923SM   H5G11977   7.155   1.818  13.524 -2.2371 -0.8826 -1.7319
   8923SM   C6F11978   7.073   1.991  13.614  0.5836 -1.2923  0.8616
   8923SM   H6F11979   6.974   1.942  13.626 -0.5736  0.7503  0.1241
   8923SM   H6G11980   7.050   2.100  13.611 -1.3145 -1.6706  0.0815
   8923SM   C7F11981   7.154   1.980  13.745 -0.3905  0.1757  0.2586
   8923SM   H7F11982   7.258   2.012  13.725  0.1245 -0.8644  1.1261
   8923SM   H7G11983   7.169   1.872  13.769 -1.1159  0.1090  0.4338
   8923SM   C8F11984   7.104   2.056  13.861 -0.2245  0.5552 -0.7789
   8923SM   H8F11985   7.003   2.021  13.892 -0.2126  2.0384  1.1624
   8923SM   H8G11986   7.101   2.163  13.831  1.3898 -0.0140 -3.1978
   8923SM   C9F11987   7.197   2.047  13.984  0.1338 -0.1782 -0.5746
   8923SM   H9F11988   7.302   2.071  13.958 -0.3904  1.9018 -0.9974
   8923SM   H9G11989   7.198   1.944  14.025  0.7354 -1.0300 -2.6279
   8923SM  C10F11990   7.147   2.141  14.101 -0.1401 -0.3590  0.6159
   8923SM  H10F11991   7.051   2.100  14.140 -0.2398  0.2612  1.0368
   8923SM  H10G11992   7.131   2.241  14.056 -0.6916 -0.2414  1.0629
   8923SM  C11F11993   7.242   2.166  14.206 -0.2731  0.1097  0.0686
   8923SM  H11F11994   7.343   2.188  14.165 -0.3088  1.6641  0.7643
   8923SM  H11G11995   7.249   2.068  14.259 -0.6778  0.0164 -0.0483
   8923SM  C12F11996   7.199   2.279  14.308 -0.5116 -0.7773  0.3751
   8923SM  H12F11997   7.113   2.252  14.373  0.9930 -0.8214  2.4495
   8923SM  H12G11998   7.168   2.367  14.248 -1.6554  0.2914  2.4292
   8923SM  C13F11999   7.314   2.311  14.413  0.3198  0.2777  0.5881
   8923SM  H13F12000   7.388   2.376  14.363  0.1837  0.4405  0.5961
   8923SM  H13G12001   7.354   2.209  14.428 -0.8549 -0.2242  0.4192
   8923SM  C14F12002   7.267   2.343  14.555 -0.1301 -0.6761  0.2526
   8923SM  H14F12003   7.185   2.271  14.578 -0.1263 -1.2462 -1.4019
   8923SM  H14G12004   7.222   2.445  14.546 -1.2447 -1.1425  0.3594
   8923SM  C15F12005   7.378   2.335  14.651 -1.1253 -0.0641 -0.4109
   8923SM  H15F12006   7.444   2.425  14.648 -3.3828  1.7504  1.2361
   8923SM  H15G12007   7.445   2.248  14.636  0.0548  0.2181  2.4557
   8923SM  C16F12008   7.326   2.328  14.792 -0.2503 -0.6497 -0.0847
   8923SM  H16F12009   7.264   2.237  14.805  0.4111 -0.9193  1.3681
   8923SM  H16G12010   7.268   2.419  14.816 -2.8013 -2.0298 -0.6008
   8923SM  C17F12011   7.447   2.323  14.886  0.1933  0.4342  0.1581
   8923SM  H17F12012   7.504   2.237  14.846 -0.0845  0.4866 -0.3542
   8923SM  H17G12013   7.406   2.293  14.985 -0.4892  1.6563  0.2714
   8923SM  C18F12014   7.529   2.445  14.888  0.3220 -0.8758 -0.5464
   8923SM  H18F12015   7.471   2.517  14.949 -1.5339 -1.6785 -1.2923
   8923SM  H18G12016   7.564   2.494  14.794  1.1125 -1.9832 -0.8466
   8923SM  C19F12017   7.662   2.434  14.974 -0.4404 -0.2086 -0.0495
   8923SM  H19F12018   7.635   2.411  15.079 -0.6634 -1.1037 -0.2934
   8923SM  H19G12019   7.708   2.534  14.964  1.6889 -1.1903 -0.7158
   8923SM  C20F12020   7.766   2.331  14.931  0.1339  0.1987  0.5374
   8923SM  H20F12021   7.797   2.357  14.827 -1.6223  1.8320  0.3731
   8923SM  H20G12022   7.710   2.235  14.930 -0.9928  0.8420  0.5535
   8923SM  C21F12023   7.879   2.309  15.033 -0.7480 -0.7560  0.0641
   8923SM  H21F12024   7.832   2.285  15.131  0.0268 -0.0785  0.6075
   8923SM  H21G12025   7.919   2.412  15.044  1.1368 -1.4591  0.1377
   8923SM  C22F12026   7.980   2.203  14.991  0.5262 -0.3036 -0.5484
   8923SM  H22F12027   8.009   2.232  14.888  2.1930  2.4824  0.5878
   8923SM  H22G12028   7.936   2.101  14.986  0.3699 -0.4594  2.2105
   8923SM  C23F12029   8.101   2.195  15.076 -0.6673 -0.0039 -0.1919
   8923SM  H23F12030   8.085   2.149  15.176  1.1009  0.5397  0.3682
   8923SM  H23G12031   8.142   2.297  15.090  0.4192 -0.4063 -0.3137
   8923SM  H23H12032   8.181   2.142  15.021 -0.1992  0.1129  0.3644
   9023SM     N12033   5.873   1.924  12.849 -0.3303 -1.3384  0.8177
   9023SM   C1512034   5.898   2.036  12.949  0.2846  0.4703  0.1305
   9023SM  H15A12035   5.810   2.096  12.970 -0.0618 -0.2197  0.6798
   9023SM  H15B12036   5.975   2.102  12.912 -0.2239  1.5600  0.9469
   9023SM  H15C12037   5.933   1.987  13.038 -2.0119 -1.0506  0.2887
   9023SM   C1412038   5.810   1.813  12.913  0.0332  0.2337 -0.0564
   9023SM  H14A12039   5.859   1.789  13.007 -2.4506 -1.6424  0.8668
   9023SM  H14B12040   5.825   1.720  12.859  1.1264  0.4756 -0.1870
   9023SM  H14C12041   5.707   1.839  12.932  0.7441  1.4412  2.7000
   9023SM   C1312042   5.779   1.977  12.744  0.2474  0.0621 -0.0094
   9023SM  H13A12043   5.677   1.988  12.779  0.0223  0.5625 -0.7931
   9023SM  H13B12044   5.776   1.900  12.669  1.2970 -0.6398  0.6381
   9023SM  H13C12045   5.803   2.072  12.699 -0.4795  0.2163 -0.0738
   9023SM   C1212046   6.012   1.886  12.797  0.5353 -0.2044  0.5353
   9023SM  H12A12047   5.996   1.799  12.735 -0.3953  1.2697 -1.3806
   9023SM  H12B12048   6.075   1.866  12.883  0.7505 -0.3987  0.3336
   9023SM   C1112049   6.078   1.987  12.708  0.1495  0.1667  0.1673
   9023SM  H11A12050   6.096   2.081  12.765  0.3954  1.0545 -1.3224
   9023SM  H11B12051   6.013   2.008  12.620  0.5480  0.5428 -0.0421
   9023SM     P12052   6.333   2.015  12.632  0.5850  0.1583 -0.1459
   9023SM   O1312053   6.435   1.909  12.617 -0.2189 -0.1183  0.3455
   9023SM   O1412054   6.322   2.106  12.521 -0.3124  0.0272 -0.2683
   9023SM   O1112055   6.367   2.086  12.764  0.4360  0.1462  0.0131
   9023SM   O1212056   6.197   1.931  12.649 -0.1079 -0.0051 -0.5969
   9023SM   C1S12057   6.395   2.005  12.879  0.6926  0.2388 -0.1903
   9023SM   H1S12058   6.491   1.951  12.865 -0.1003 -1.5365  0.8455
   9023SM   H1T12059   6.315   1.931  12.903  0.7465  0.1681 -0.2286
   9023SM    NF12060   6.451   2.006  13.112  0.3427  0.2422  0.2340
   9023SM   HNF12061   6.381   2.004  13.183  0.6521 -1.1711  0.5224
   9023SM   C2S12062   6.406   2.089  13.005  0.0569  0.4936 -0.0974
   9023SM   H2S12063   6.480   2.170  12.991  2.1452 -0.8826  2.2886
   9023SM   C3S12064   6.273   2.154  13.042 -0.6476 -0.2397 -0.3985
   9023SM   H3S12065   6.199   2.073  13.060  0.3605 -1.2404 -0.6195
   9023SM    O312066   6.217   2.220  12.935 -0.4360  0.6837  0.5219
   9023SM   HO312067   6.260   2.188  12.855 -0.3564 -1.7379  1.4645
   9023SM   C4S12068   6.294   2.241  13.165 -0.1193 -0.0874  0.6135
   9023SM   H4S12069   6.337   2.340  13.143  0.1654  0.4562  3.2441
   9023SM   C5S12070   6.242   2.217  13.283  0.1922 -0.1580  0.4261
   9023SM   H5S12071   6.170   2.135  13.293  0.6305 -0.4181  1.5900
   9023SM   C6S12072   6.254   2.306  13.400  0.3564  0.2040  0.8603
   9023SM   H6S12073   6.151   2.339  13.423  0.4430  0.6207  0.6739
   9023SM   H6T12074   6.304   2.402  13.373  2.8941 -1.7597 -2.1824
   9023SM   C7S12075   6.326   2.238  13.514 -0.1003 -0.6676 -0.2502
   9023SM   H7S12076   6.430   2.213  13.484 -0.1456 -1.2527  0.0453
   9023SM   H7T12077   6.286   2.144  13.559  0.5237  0.4528  2.9313
   9023SM   C8S12078   6.337   2.331  13.647  0.6558 -0.2417 -0.0585
   9023SM   H8S12079   6.237   2.378  13.651  1.4365  1.5614 -0.5400
   9023SM   H8T12080   6.417   2.407  13.635  0.3729  0.1237  0.3578
   9023SM   C9S12081   6.356   2.254  13.780 -0.1269 -0.0597  0.3213
   9023SM   H9S12082   6.460   2.215  13.783  0.1589  0.6052 -0.5407
   9023SM   H9T12083   6.288   2.166  13.784  0.2138 -0.3662 -0.3661
   9023SM  C10S12084   6.325   2.341  13.906 -0.4431 -0.0540 -0.8659
   9023SM  H10S12085   6.224   2.383  13.886 -0.7058  0.9001  2.0040
   9023SM  H10T12086   6.383   2.436  13.915  0.1545 -0.6100  5.3220
   9023SM  C11S12087   6.322   2.259  14.031 -0.0204  0.0864 -0.8210
   9023SM  H11S12088   6.426   2.235  14.059  0.2357  1.0800 -0.8694
   9023SM  H11T12089   6.261   2.167  14.018  1.2899 -1.1115  1.1000
   9023SM  C12S12090   6.264   2.328  14.154  0.4060  0.3503 -0.6391
   9023SM  H12S12091   6.266   2.263  14.244  1.1510  2.8559  1.2797
   9023SM  H12T12092   6.156   2.326  14.128  0.3147 -2.0938 -0.3499
   9023SM  C13S12093   6.328   2.465  14.183  0.5001 -0.3108 -0.3744
   9023SM  H13S12094   6.302   2.533  14.099  2.4351 -1.5194 -2.0529
   9023SM  H13T12095   6.438   2.451  14.173  0.2558 -1.1115 -2.4399
   9023SM  C14S12096   6.296   2.527  14.321  0.3480 -0.1322 -0.2605
   9023SM  H14S12097   6.186   2.521  14.333  0.5512 -0.9817  1.5034
   9023SM  H14T12098   6.319   2.635  14.332 -1.0647  0.3266 -1.4396
   9023SM  C15S12099   6.354   2.457  14.441 -0.5424  0.0587 -0.2952
   9023SM  H15S12100   6.464   2.468  14.438 -0.7109  2.0150 -1.2000
   9023SM  H15T12101   6.330   2.349  14.437 -0.1766  0.0018 -2.0904
   9023SM  C16S12102   6.300   2.507  14.576  0.0811 -0.3623  0.3854
   9023SM  H16S12103   6.204   2.454  14.594 -0.4032 -0.9575 -3.2262
   9023SM  H16T12104   6.283   2.617  14.575  0.2784 -0.3319  0.0926
   9023SM  C17S12105   6.398   2.484  14.696  0.4087  0.4895  0.8065
   9023SM  H17S12106   6.489   2.448  14.644 -0.6108 -1.6239  0.3632
   9023SM  H17T12107   6.366   2.399  14.759 -0.1458  0.5761  0.6476
   9023SM  C18S12108   6.426   2.614  14.773 -0.7736 -0.6292 -0.6292
   9023SM  H18S12109   6.512   2.597  14.842 -1.3264 -0.6178  0.0800
   9023SM  H18T12110   6.335   2.636  14.833 -0.0044 -2.0099  1.1562
   9023SM  H18U12111   6.445   2.702  14.708 -0.6413  0.7810  1.2017
   9023SM   C1F12112   6.571   1.952  13.125 -0.2015  0.6187  0.1861
   9023SM    OF12113   6.673   1.971  13.059 -0.0954  0.0846 -0.3057
   9023SM   C2F12114   6.582   1.878  13.250 -0.4463 -0.2512 -0.0468
   9023SM   H2F12115   6.652   1.794  13.232 -0.8337 -0.1215 -2.6776
   9023SM   H2G12116   6.485   1.833  13.279  1.3609 -3.2082  1.8575
   9023SM   C3F12117   6.634   1.957  13.371 -0.3381  0.1269  0.3821
   9023SM   H3F12118   6.580   2.054  13.371 -0.6805 -0.0641  0.1139
   9023SM   H3G12119   6.744   1.961  13.356 -0.4312 -0.5177 -0.5208
   9023SM   C4F12120   6.588   1.891  13.500  0.0959 -0.2938  0.1561
   9023SM   H4F12121   6.630   1.788  13.503  1.1331  0.0235 -2.0900
   9023SM   H4G12122   6.477   1.891  13.500  0.0139 -0.6261  2.9447
   9023SM   C5F12123   6.637   1.967  13.619  0.8082  0.2974 -0.2520
   9023SM   H5F12124   6.592   2.067  13.631  0.4129  0.1847 -0.8020
   9023SM   H5G12125   6.747   1.982  13.608  0.5143  1.9095 -1.2262
   9023SM   C6F12126   6.615   1.900  13.754  0.0902  0.2141 -0.4440
   9023SM   H6F12127   6.656   1.798  13.735  0.0636  0.3889 -1.4936
   9023SM   H6G12128   6.506   1.900  13.773  0.1178  1.2527 -0.2531
   9023SM   C7F12129   6.686   1.965  13.881 -0.1971 -0.0250  0.8451
   9023SM   H7F12130   6.647   2.068  13.894 -2.4884 -0.6067 -0.7815
   9023SM   H7G12131   6.787   1.994  13.846 -0.2017 -1.4457 -0.4125
   9023SM   C8F12132   6.663   1.891  14.011 -0.4772  0.0271 -0.1554
   9023SM   H8F12133   6.728   1.801  14.009 -1.2956 -0.5581 -1.0232
   9023SM   H8G12134   6.559   1.852  14.016 -1.0475  1.1268 -2.3800
   9023SM   C9F12135   6.693   1.980  14.124  0.2018  0.4876  0.0160
   9023SM   H9F12136   6.639   2.074  14.103 -2.6058 -1.2072 -0.9306
   9023SM   H9G12137   6.800   2.008  14.136  0.3754  0.2797 -0.9779
   9023SM  C10F12138   6.630   1.927  14.261 -0.2613  0.0701  0.2773
   9023SM  H10F12139   6.690   1.956  14.350 -0.2851  0.6792  0.0973
   9023SM  H10G12140   6.642   1.817  14.252  1.0761  0.3269 -1.7804
   9023SM  C11F12141   6.483   1.974  14.290  0.6582  0.0210  0.5057
   9023SM  H11F12142   6.424   1.934  14.205  2.3521  2.2413 -1.8524
   9023SM  H11G12143   6.473   2.084  14.277 -1.8358 -0.0896  1.0141
   9023SM  C12F12144   6.425   1.932  14.418  0.4187  0.2017 -0.1627
   9023SM  H12F12145   6.514   1.911  14.480  2.0223  0.2811 -2.3307
   9023SM  H12G12146   6.363   1.840  14.410 -1.0724  1.0336  1.0930
   9023SM  C13F12147   6.332   2.038  14.485  0.3707 -0.3783  0.0631
   9023SM  H13F12148   6.386   2.135  14.485 -1.6146  0.8162  1.1527
   9023SM  H13G12149   6.325   2.016  14.594  0.6583 -2.9962 -0.3750
   9023SM  C14F12150   6.197   2.041  14.420  0.8266 -0.1630  0.7658
   9023SM  H14F12151   6.144   1.943  14.422 -0.2128  0.1982 -2.5912
   9023SM  H14G12152   6.214   2.065  14.313  1.4961  1.3686  1.1905
   9023SM  C15F12153   6.099   2.145  14.485 -0.5514  0.0094  0.0082
   9023SM  H15F12154   6.004   2.141  14.426 -0.2297 -1.0633 -0.4693
   9023SM  H15G12155   6.152   2.242  14.481  0.8963 -0.7250  0.8272
   9023SM  C16F12156   6.056   2.121  14.631 -0.3489  0.7168  0.3781
   9023SM  H16F12157   6.146   2.131  14.695 -0.0121  0.8493 -0.1127
   9023SM  H16G12158   6.032   2.013  14.643  1.4580 -0.4468 -4.3602
   9023SM  C17F12159   5.943   2.212  14.674 -0.0722  0.5068 -0.1918
   9023SM  H17F12160   5.844   2.202  14.625 -0.2519  1.4922 -0.0521
   9023SM  H17G12161   5.982   2.316  14.664  0.0599  0.6094  1.1140
   9023SM  C18F12162   5.907   2.176  14.819 -0.3898  0.0584 -0.3272
   9023SM  H18F12163   5.894   2.067  14.836 -1.6232  0.4162  1.2285
   9023SM  H18G12164   5.809   2.222  14.842 -0.7885 -0.6935 -0.5105
   9023SM  C19F12165   6.012   2.215  14.918 -0.2030  0.6194 -1.0568
   9023SM  H19F12166   6.050   2.319  14.909  2.8608 -0.4112 -1.2539
   9023SM  H19G12167   6.104   2.154  14.905  0.8764  1.4827  1.7126
   9023SM  C20F12168   5.973   2.201  15.072  0.4927 -0.0933  0.0464
   9023SM  H20F12169   5.892   2.275  15.090  0.6359 -0.2970  1.6960
   9023SM  H20G12170   6.064   2.239  15.123  0.8516  0.9316 -1.2766
   9023SM  C21F12171   5.932   2.067  15.130  1.0045  0.4423 -0.2997
   9023SM  H21F12172   5.837   2.030  15.086  1.0562 -0.8795  0.6398
   9023SM  H21G12173   5.906   2.086  15.237  4.4377  0.3189  0.6965
   9023SM  C22F12174   6.045   1.967  15.124 -0.3396 -0.1764  0.3085
   9023SM  H22F12175   6.054   1.901  15.213  0.6912  0.4559  0.6904
   9023SM  H22G12176   6.140   2.023  15.118  0.9259 -2.3749 -1.7395
   9023SM  C23F12177   6.032   1.870  15.004 -0.0497 -0.5376  0.2815
   9023SM  H23F12178   6.042   1.942  14.920 -2.0674  2.4443  2.3448
   9023SM  H23G12179   5.928   1.832  14.992  0.0790 -0.4512 -1.3369
   9023SM  H23H12180   6.104   1.786  15.014 -2.2247 -2.4332  0.8384
   9123SM     N12181   7.447   4.112  12.206  0.4903 -0.1345 -0.5141
   9123SM   C1512182   7.478   4.258  12.219 -0.3309  0.9158 -0.2959
   9123SM  H15A12183   7.434   4.297  12.309 -0.1432 -2.4087  1.3840
   9123SM  H15B12184   7.440   4.308  12.131 -2.4996 -0.1518 -0.0246
   9123SM  H15C12185   7.584   4.273  12.230 -0.5650  2.5448  0.0841
   9123SM   C1412186   7.315   4.106  12.147 -0.5836  0.3813 -0.1498
   9123SM  H14A12187   7.280   4.005  12.134  0.1158  0.1962 -0.6224
   9123SM  H14B12188   7.315   4.156  12.051 -1.7929  1.2330  0.2616
   9123SM  H14C12189   7.243   4.163  12.204  0.6619  0.7364  1.1028
   9123SM   C1312190   7.551   4.052  12.124 -0.2320 -0.0530 -0.2474
   9123SM  H13A12191   7.528   3.948  12.105  0.6315  0.0607 -2.1808
   9123SM  H13B12192   7.643   4.050  12.179 -1.1861  1.2806  1.4956
   9123SM  H13C12193   7.552   4.113  12.034 -2.5889 -0.4255 -0.5864
   9123SM   C1212194   7.447   4.046  12.343  0.5263 -0.0467 -0.5604
   9123SM  H12A12195   7.547   4.069  12.376  1.2450 -0.9026 -2.0751
   9123SM  H12B12196   7.441   3.940  12.323  1.1036  0.0196 -1.1099
   9123SM   C1112197   7.335   4.096  12.443 -0.1497  0.1041  0.4665
   9123SM  H11A12198   7.320   4.032  12.533  1.8269  1.3881  1.7736
   9123SM  H11B12199   7.243   4.098  12.380 -0.1206 -1.7056  0.2917
   9123SM     P12200   7.263   4.324  12.527  0.4575  0.3366 -0.1041
   9123SM   O1312201   7.321   4.459  12.531 -0.2193  0.3739 -0.3516
   9123SM   O1412202   7.146   4.307  12.440 -0.3738 -0.3097  0.7785
   9123SM   O1112203   7.233   4.281  12.680 -0.1885  0.2711 -0.3775
   9123SM   O1212204   7.373   4.223  12.485 -0.2213  0.2518  1.0818
   9123SM   C1S12205   7.331   4.303  12.780  0.1238 -0.2463  0.0676
   9123SM   H1S12206   7.365   4.409  12.771 -0.0666 -0.1389  0.5251
   9123SM   H1T12207   7.427   4.254  12.753 -0.8084 -0.3590 -3.4474
   9123SM    NF12208   7.376   4.313  13.017 -0.0919  0.3361 -0.4803
   9123SM   HNF12209   7.435   4.262  13.080  0.2828  1.2787 -0.0404
   9123SM   C2S12210   7.285   4.256  12.922  0.0925  0.7728  0.1597
   9123SM   H2S12211   7.185   4.296  12.948  0.6366  0.0804  3.8540
   9123SM   C3S12212   7.291   4.102  12.935  0.1257 -0.3773 -0.6401
   9123SM   H3S12213   7.400   4.078  12.934  0.0847 -0.6800  0.3967
   9123SM    O312214   7.233   4.040  12.821 -0.4327  0.1707  0.6982
   9123SM   HO312215   7.221   4.111  12.757  1.2778  1.3619  1.6144
   9123SM   C4S12216   7.230   4.064  13.061 -0.1216  0.2199 -0.1202
   9123SM   H4S12217   7.304   4.021  13.130 -0.3827  0.5654  0.3748
   9123SM   C5S12218   7.100   4.066  13.092 -0.5888  0.1370 -0.9249
   9123SM   H5S12219   7.029   4.098  13.014 -0.4383  0.5540 -0.8977
   9123SM   C6S12220   7.035   4.025  13.226 -0.3598 -0.3030  0.7360
   9123SM   H6S12221   6.995   3.922  13.222  1.4826 -1.2111  3.0156
   9123SM   H6T12222   6.951   4.095  13.245  0.2381  1.0418 -1.2385
   9123SM   C7S12223   7.125   4.065  13.346  0.6103  0.8934 -0.1306
   9123SM   H7S12224   7.166   4.162  13.312 -1.1124  1.5072 -0.5301
   9123SM   H7T12225   7.215   4.000  13.359  0.3712  0.8175  1.2309
   9123SM   C8S12226   7.045   4.082  13.482 -0.4502  0.4308  0.1936
   9123SM   H8S12227   6.968   4.157  13.455  1.1697  1.3929 -2.0756
   9123SM   H8T12228   7.118   4.133  13.549 -0.2710  1.7097 -0.9184
   9123SM   C9S12229   7.006   3.951  13.555 -0.7327 -0.6414 -0.1418
   9123SM   H9S12230   7.087   3.876  13.565 -0.4667 -0.3379 -0.0004
   9123SM   H9T12231   6.932   3.906  13.486  0.1863 -1.9714 -0.3027
   9123SM  C10S12232   6.946   3.984  13.694 -0.0206  0.0268  0.7873
   9123SM  H10S12233   6.871   3.913  13.735  0.2059 -0.4344  0.4138
   9123SM  H10T12234   6.885   4.076  13.682  1.4080  1.0217  0.8874
   9123SM  C11S12235   7.047   4.006  13.805 -0.9872 -0.0714  1.0834
   9123SM  H11S12236   7.104   4.099  13.787 -0.6773  0.3785  3.8801
   9123SM  H11T12237   7.117   3.920  13.806 -0.6508  0.1856  2.5276
   9123SM  C12S12238   6.971   4.022  13.933 -0.9616  0.7218 -0.3134
   9123SM  H12S12239   6.899   3.938  13.948  0.5489 -0.8899 -1.5570
   9123SM  H12T12240   6.923   4.121  13.929 -0.1763  1.0833 -1.3468
   9123SM  C13S12241   7.068   4.027  14.058  0.3388 -0.1848 -0.8718
   9123SM  H13S12242   7.033   4.114  14.118  0.2744 -0.5854 -0.3209
   9123SM  H13T12243   7.173   4.044  14.028  1.2977 -1.0238  1.7411
   9123SM  C14S12244   7.057   3.902  14.147  0.1131 -0.0811 -0.5510
   9123SM  H14S12245   7.080   3.813  14.084 -0.6339  0.0729 -1.0543
   9123SM  H14T12246   6.955   3.879  14.183  0.3532  0.5441  0.5592
   9123SM  C15S12247   7.138   3.915  14.279  0.0890 -0.6256  1.7655
   9123SM  H15S12248   7.121   4.013  14.329  3.0315  1.2586 -0.6057
   9123SM  H15T12249   7.245   3.911  14.247 -0.3943  0.7894 -0.1742
   9123SM  C16S12250   7.112   3.803  14.376 -0.5885  0.1507  0.5753
   9123SM  H16S12251   7.127   3.700  14.335 -1.5825  0.9583 -2.0298
   9123SM  H16T12252   7.003   3.803  14.397 -0.4339 -0.5375  1.4474
   9123SM  C17S12253   7.203   3.811  14.500 -0.2847 -0.0069 -0.5363
   9123SM  H17S12254   7.192   3.910  14.549 -4.3266 -0.6522  0.2018
   9123SM  H17T12255   7.307   3.809  14.461 -0.1036  0.7395 -0.1074
   9123SM  C18S12256   7.176   3.698  14.598  0.6832  0.0181  0.1312
   9123SM  H18S12257   7.178   3.605  14.537 -1.0819  0.3665 -0.5256
   9123SM  H18T12258   7.077   3.711  14.647  0.9252  1.1084  0.3713
   9123SM  H18U12259   7.256   3.689  14.674  1.3483  0.9984 -0.4324
   9123SM   C1F12260   7.388   4.440  13.042  0.1964  0.0820  0.0273
   9123SM    OF12261   7.345   4.534  12.974  0.0730 -0.2366  0.6168
   9123SM   C2F12262   7.473   4.463  13.157  0.5038 -0.0055 -0.1388
   9123SM   H2F12263   7.580   4.464  13.125 -0.2409  0.1906 -2.8945
   9123SM   H2G12264   7.462   4.374  13.222  1.2643 -0.0597 -0.0737
   9123SM   C3F12265   7.423   4.587  13.242 -0.4170 -0.3445 -0.7425
   9123SM   H3F12266   7.452   4.675  13.180  1.6164  0.6445  1.4397
   9123SM   H3G12267   7.493   4.598  13.328  2.4543 -0.4335 -2.8992
   9123SM   C4F12268   7.280   4.583  13.289  0.9937 -0.5591  0.2074
   9123SM   H4F12269   7.244   4.488  13.333  0.1494  0.8611  2.7997
   9123SM   H4G12270   7.222   4.607  13.197  1.7846  2.5426  0.3997
   9123SM   C5F12271   7.249   4.689  13.396  0.0169 -0.0245 -0.7057
   9123SM   H5F12272   7.330   4.688  13.472 -1.1328 -0.2036  0.5590
   9123SM   H5G12273   7.155   4.672  13.452  0.7023  0.1059  0.5082
   9123SM   C6F12274   7.240   4.818  13.328  0.4372 -0.4746 -0.5271
   9123SM   H6F12275   7.167   4.811  13.244  1.7367  1.6317 -1.9343
   9123SM   H6G12276   7.331   4.846  13.270  1.5272 -1.2338  0.7633
   9123SM   C7F12277   7.205   4.928  13.420 -0.2816 -0.3585  0.5195
   9123SM   H7F12278   7.096   4.939  13.437 -0.2284  2.5115 -0.5857
   9123SM   H7G12279   7.246   5.026  13.390 -0.8416  0.1295  1.3184
   9123SM   C8F12280   7.270   4.910  13.553  0.6263 -0.6439 -0.0660
   9123SM   H8F12281   7.373   4.881  13.523  1.1099  0.5862  0.3099
   9123SM   H8G12282   7.208   4.836  13.608  0.1105 -0.1248  0.0546
   9123SM   C9F12283   7.257   5.040  13.637  0.3079  0.3096 -0.2677
   9123SM   H9F12284   7.175   5.108  13.606  0.6583 -0.2098 -2.4812
   9123SM   H9G12285   7.343   5.100  13.599 -0.2562 -0.4029 -2.8845
   9123SM  C10F12286   7.264   5.020  13.787 -0.6154  0.1252 -0.7543
   9123SM  H10F12287   7.358   4.974  13.826 -2.3731 -1.4534  1.9796
   9123SM  H10G12288   7.187   4.945  13.811 -1.5648  0.8078 -1.5937
   9123SM  C11F12289   7.247   5.154  13.856  0.2203 -0.2166 -0.3978
   9123SM  H11F12290   7.147   5.189  13.820  0.2226 -0.9445 -1.1329
   9123SM  H11G12291   7.317   5.232  13.819 -0.1143  0.6608  0.7645
   9123SM  C12F12292   7.255   5.160  14.006  0.3925 -0.0671  0.8847
   9123SM  H12F12293   7.256   5.269  14.028  1.8579 -0.1192  1.1407
   9123SM  H12G12294   7.349   5.112  14.041  0.1917 -0.4157  0.9518
   9123SM  C13F12295   7.129   5.117  14.083 -0.2112 -0.1226 -0.2322
   9123SM  H13F12296   7.104   5.009  14.075 -0.9220 -0.1208  1.5849
   9123SM  H13G12297   7.051   5.179  14.035  1.3285  1.7910 -0.4252
   9123SM  C14F12298   7.127   5.149  14.232 -0.4150  0.3100  0.5110
   9123SM  H14F12299   7.152   5.256  14.247 -3.0117  0.7984  1.9580
   9123SM  H14G12300   7.214   5.091  14.270 -0.2600  0.2426  0.0547
   9123SM  C15F12301   7.006   5.107  14.304  0.5203  0.2745  0.1942
   9123SM  H15F12302   7.001   4.999  14.326  0.2190  0.2161 -0.1612
   9123SM  H15G12303   6.911   5.135  14.255  0.6627 -1.0650 -0.8876
   9123SM  C16F12304   7.007   5.174  14.443  0.2968  0.3780 -0.0985
   9123SM  H16F12305   7.006   5.284  14.429  0.8014  0.0895 -2.8906
   9123SM  H16G12306   7.106   5.156  14.490 -0.0118 -3.3574 -0.5639
   9123SM  C17F12307   6.895   5.141  14.542 -0.5039 -0.2967 -0.5703
   9123SM  H17F12308   6.894   5.030  14.546  0.5409 -0.3407 -1.0500
   9123SM  H17G12309   6.802   5.172  14.492 -0.4001  0.0629 -0.5439
   9123SM  C18F12310   6.896   5.208  14.668 -0.0229 -0.2354 -0.5413
   9123SM  H18F12311   6.877   5.315  14.644  0.1662 -0.1717 -0.4149
   9123SM  H18G12312   6.996   5.208  14.717  0.1240 -0.1967 -0.8394
   9123SM  C19F12313   6.791   5.159  14.771  0.0580  0.3358 -1.3247
   9123SM  H19F12314   6.691   5.147  14.725  0.0132 -1.9194 -0.7536
   9123SM  H19G12315   6.773   5.243  14.841  1.1330 -0.3150 -0.2279
   9123SM  C20F12316   6.825   5.023  14.831  0.3174 -0.1535 -0.1324
   9123SM  H20F12317   6.929   5.023  14.872  0.3292  1.8593 -0.0611
   9123SM  H20G12318   6.824   4.934  14.765  0.1649  0.5721 -1.1248
   9123SM  C21F12319   6.742   5.002  14.962  0.4389 -0.1206 -0.4999
   9123SM  H21F12320   6.750   5.088  15.033 -1.3965 -0.5739  0.3079
   9123SM  H21G12321   6.775   4.910  15.015  0.2346 -0.3538 -0.7817
   9123SM  C22F12322   6.595   4.977  14.927  0.2039 -0.0110 -1.0439
   9123SM  H22F12323   6.597   4.888  14.860  1.6651 -0.1153 -0.8863
   9123SM  H22G12324   6.554   5.060  14.866  0.4516  0.0943 -1.0643
   9123SM  C23F12325   6.513   4.960  15.053  0.1315  0.8267 -0.1626
   9123SM  H23F12326   6.432   4.885  15.041  0.1708  0.9545 -1.3374
   9123SM  H23G12327   6.475   5.055  15.097 -0.1883  1.2140 -1.2351
   9123SM  H23H12328   6.576   4.909  15.129 -1.2253 -0.2925  0.2472
   9223SM     N12329   5.270   3.087  12.569 -0.1378 -0.1492  0.8229
   9223SM   C1512330   5.315   3.020  12.694  0.8290 -0.0620  0.3971
   9223SM  H15A12331   5.420   3.040  12.711  1.1659 -0.8272 -0.7249
   9223SM  H15B12332   5.293   2.917  12.671  1.2319  0.6098 -3.6508
   9223SM  H15C12333   5.256   3.050  12.779  1.0220  1.1696  0.1241
   9223SM   C1412334   5.331   3.224  12.548 -0.6574  0.1016 -0.2000
   9223SM  H14A12335   5.429   3.212  12.504  0.1347  3.2095  0.4461
   9223SM  H14B12336   5.339   3.279  12.641 -2.2414 -1.3320  0.8330
   9223SM  H14C12337   5.253   3.271  12.490  0.0604  1.3346 -0.2307
   9223SM   C1312338   5.317   2.996  12.466 -0.0635  0.1781 -0.1862
   9223SM  H13A12339   5.273   2.897  12.474  1.1389 -0.4427 -1.0006
   9223SM  H13B12340   5.420   2.985  12.494 -0.6054 -2.7765  1.0968
   9223SM  H13C12341   5.299   3.040  12.369  2.0942  0.8024 -0.3445
   9223SM   C1212342   5.120   3.107  12.569 -0.2175  0.0535 -0.2009
   9223SM  H12A12343   5.098   3.144  12.470  2.9780 -0.9935 -1.4312
   9223SM  H12B12344   5.091   3.188  12.635 -0.9992 -0.0661 -0.3880
   9223SM   C1112345   5.044   2.972  12.591  0.7886  0.1159 -0.5463
   9223SM  H11A12346   5.066   2.933  12.693 -1.9535 -0.9434 -0.2983
   9223SM  H11B12347   5.082   2.899  12.517  0.5718 -0.6533  0.0859
   9223SM     P12348   4.830   3.070  12.699 -0.2726 -0.2089  0.0219
   9223SM   O1312349   4.919   3.178  12.756 -0.1889  0.6005  0.0989
   9223SM   O1412350   4.694   3.102  12.654  0.6562  0.3372  0.0817
   9223SM   O1112351   4.820   2.953  12.803 -0.3833 -0.3885 -0.3498
   9223SM   O1212352   4.903   2.996  12.580 -0.2462 -0.1985  0.3595
   9223SM   C1S12353   4.914   2.928  12.909  0.2692  0.4368  0.3757
   9223SM   H1S12354   4.988   3.010  12.920  0.9107  0.3761 -2.6230
   9223SM   H1T12355   4.970   2.837  12.879 -1.9029 -1.3463  1.3681
   9223SM    NF12356   4.944   2.860  13.139  0.2756 -0.1631 -0.2678
   9223SM   HNF12357   4.956   2.761  13.144 -0.6663 -0.2592  0.4932
   9223SM   C2S12358   4.841   2.897  13.036 -0.2304 -0.5605 -0.9017
   9223SM   H2S12359   4.783   2.986  13.068 -3.2101 -2.9467  0.9109
   9223SM   C3S12360   4.731   2.785  13.025 -0.0876 -0.2987  0.4175
   9223SM   H3S12361   4.778   2.692  12.984  2.2759 -0.0774  2.4040
   9223SM    O312362   4.618   2.814  12.939  0.5463  0.2707  0.4799
   9223SM   HO312363   4.666   2.873  12.880  0.9331 -1.1456 -0.6637
   9223SM   C4S12364   4.674   2.761  13.164 -0.0185 -0.0069  0.0192
   9223SM   H4S12365   4.593   2.828  13.196 -0.2961  0.4798 -1.6057
   9223SM   C5S12366   4.701   2.650  13.233 -0.2018 -0.2992  0.3592
   9223SM   H5S12367   4.760   2.572  13.183 -0.3652  0.6408 -1.3439
   9223SM   C6S12368   4.650   2.617  13.370  0.6382  0.5316 -0.0799
   9223SM   H6S12369   4.739   2.571  13.418  0.4472 -0.5692 -0.7298
   9223SM   H6T12370   4.559   2.554  13.358  0.3744  1.0764 -1.0253
   9223SM   C7S12371   4.619   2.747  13.453  0.1302  0.3860  0.3681
   9223SM   H7S12372   4.530   2.807  13.423 -0.2623 -0.3650  0.0050
   9223SM   H7T12373   4.710   2.811  13.451 -0.2977  0.9882 -0.7935
   9223SM   C8S12374   4.596   2.700  13.598  0.3564 -0.7493  0.0873
   9223SM   H8S12375   4.686   2.639  13.623  1.2897  0.0946 -1.0786
   9223SM   H8T12376   4.507   2.634  13.600  1.3388 -2.1001  1.2503
   9223SM   C9S12377   4.581   2.819  13.694 -0.1611  0.0687 -0.2907
   9223SM   H9S12378   4.497   2.879  13.651  0.3256  0.7170 -0.3592
   9223SM   H9T12379   4.667   2.889  13.686 -0.7694  1.1302  1.7385
   9223SM  C10S12380   4.546   2.776  13.840  0.5172  0.8261 -0.2266
   9223SM  H10S12381   4.576   2.673  13.870 -0.7696  0.1612 -1.1398
   9223SM  H10T12382   4.436   2.788  13.849  0.3230 -0.2392 -0.9989
   9223SM  C11S12383   4.624   2.872  13.936 -0.0858 -0.1498  0.5061
   9223SM  H11S12384   4.585   2.975  13.926 -0.6307 -0.1821  2.0039
   9223SM  H11T12385   4.730   2.871  13.906  0.2364 -3.7824  1.2452
   9223SM  C12S12386   4.630   2.825  14.084  0.8424 -0.2087 -1.0624
   9223SM  H12S12387   4.683   2.912  14.130  0.7655  0.3656 -2.0317
   9223SM  H12T12388   4.679   2.725  14.089  1.5815  0.0927 -1.9655
   9223SM  C13S12389   4.485   2.814  14.142  0.1588 -0.4135  0.0490
   9223SM  H13S12390   4.418   2.743  14.088 -1.8198 -0.7984  2.8093
   9223SM  H13T12391   4.447   2.917  14.129 -0.6277 -0.6093  0.6999
   9223SM  C14S12392   4.467   2.790  14.292  0.9970 -0.2231  0.1046
   9223SM  H14S12393   4.539   2.847  14.354  0.2597  0.2780  0.5153
   9223SM  H14T12394   4.471   2.681  14.314 -0.9594 -0.7799 -1.9792
   9223SM  C15S12395   4.321   2.836  14.334 -0.3112  0.2586 -0.2495
   9223SM  H15S12396   4.243   2.788  14.271 -0.5216  0.6742 -0.3105
   9223SM  H15T12397   4.324   2.945  14.315 -1.0845  0.6276  1.5533
   9223SM  C16S12398   4.283   2.808  14.476 -0.3223 -0.6575  0.0299
   9223SM  H16S12399   4.363   2.847  14.543  1.0426 -0.5319 -1.6149
   9223SM  H16T12400   4.266   2.699  14.490 -2.9251 -0.3619 -0.2322
   9223SM  C17S12401   4.142   2.856  14.521 -0.3043  0.7468 -0.4325
   9223SM  H17S12402   4.145   2.967  14.519  1.3359  0.7320 -0.2535
   9223SM  H17T12403   4.122   2.820  14.624  2.3918  1.1918  0.3165
   9223SM  C18S12404   4.020   2.810  14.438  0.3860  0.3160 -0.2329
   9223SM  H18S12405   3.997   2.701  14.445 -1.1657  0.5882 -0.8119
   9223SM  H18T12406   4.040   2.845  14.335 -2.0668  0.7330 -0.6393
   9223SM  H18U12407   3.937   2.865  14.488 -0.9672 -0.4547 -1.5383
   9223SM   C1F12408   5.011   2.951  13.213 -0.7631 -0.1399 -0.5686
   9223SM    OF12409   5.011   3.069  13.181 -0.0996 -0.4158  0.2174
   9223SM   C2F12410   5.088   2.906  13.334  0.2715 -0.2209  0.0423
   9223SM   H2F12411   5.194   2.883  13.312 -0.3623 -1.9258 -1.5020
   9223SM   H2G12412   5.043   2.813  13.374  2.5151 -1.4401 -0.0990
   9223SM   C3F12413   5.066   3.015  13.436 -0.5560 -0.6553 -1.0666
   9223SM   H3F12414   5.121   3.106  13.405  1.2317 -0.9603  0.9613
   9223SM   H3G12415   5.126   2.977  13.521 -0.8631 -3.5496 -2.0450
   9223SM   C4F12416   4.923   3.040  13.490 -0.0290  0.0295 -0.1160
   9223SM   H4F12417   4.883   2.949  13.538 -0.4102  0.2372 -0.0365
   9223SM   H4G12418   4.848   3.067  13.412  2.0748 -1.3214 -2.7897
   9223SM   C5F12419   4.916   3.143  13.603 -0.3339 -0.1478 -0.0250
   9223SM   H5F12420   4.823   3.202  13.591 -0.2423  0.3965  1.7489
   9223SM   H5G12421   4.989   3.225  13.586 -0.7174  0.2465  0.2040
   9223SM   C6F12422   4.934   3.093  13.746 -0.3318  0.5919 -0.1165
   9223SM   H6F12423   5.034   3.054  13.775 -1.0359 -0.0918  1.5452
   9223SM   H6G12424   4.875   3.000  13.762  0.8595 -0.0027  1.0397
   9223SM   C7F12425   4.885   3.187  13.859 -0.1207 -0.7798  0.4646
   9223SM   H7F12426   4.776   3.201  13.841 -0.1453  2.8168  2.5244
   9223SM   H7G12427   4.936   3.285  13.855 -0.9726 -0.2233  2.4082
   9223SM   C8F12428   4.893   3.135  14.007 -0.3194 -0.3398  0.3244
   9223SM   H8F12429   5.000   3.125  14.036 -0.0618 -0.1374 -0.5369
   9223SM   H8G12430   4.847   3.035  14.024  1.8158 -1.1814  1.5455
   9223SM   C9F12431   4.816   3.239  14.092 -0.6699  0.3470  0.3906
   9223SM   H9F12432   4.708   3.247  14.071 -0.8825  1.3643  1.7253
   9223SM   H9G12433   4.862   3.334  14.056 -0.5648 -0.1732 -0.8892
   9223SM  C10F12434   4.825   3.215  14.244 -0.1126 -0.1771  0.1608
   9223SM  H10F12435   4.934   3.207  14.261  0.5158 -1.5041 -3.5914
   9223SM  H10G12436   4.789   3.115  14.279  0.1590 -0.3408 -0.0235
   9223SM  C11F12437   4.757   3.328  14.328  0.2559 -0.7787 -0.0335
   9223SM  H11F12438   4.652   3.312  14.294 -1.4926  2.1313  3.3301
   9223SM  H11G12439   4.795   3.422  14.282  0.8734 -1.0176 -0.0178
   9223SM  C12F12440   4.775   3.318  14.477  0.8169 -0.1908  0.1726
   9223SM  H12F12441   4.858   3.384  14.511  1.2012 -0.7875  0.4116
   9223SM  H12G12442   4.776   3.209  14.500  1.2898 -0.2420 -0.0741
   9223SM  C13F12443   4.661   3.377  14.555  0.1868 -0.1506 -0.1258
   9223SM  H13F12444   4.563   3.362  14.504  2.6304 -0.5317 -5.3726
   9223SM  H13G12445   4.663   3.486  14.536  0.7410 -0.2850 -0.8886
   9223SM  C14F12446   4.644   3.348  14.701 -0.3406  0.3742 -0.0929
   9223SM  H14F12447   4.615   3.241  14.697  2.8377 -0.5614 -1.1136
   9223SM  H14G12448   4.560   3.404  14.746 -0.9018  0.1521 -0.8462
   9223SM  C15F12449   4.778   3.346  14.775 -0.2202 -0.8347  0.3882
   9223SM  H15F12450   4.815   3.451  14.779 -2.2313 -0.0509 -0.5742
   9223SM  H15G12451   4.843   3.282  14.711 -0.3320 -0.7669  0.2050
   9223SM  C16F12452   4.778   3.294  14.920 -0.2598  0.8223  0.5764
   9223SM  H16F12453   4.883   3.306  14.954 -0.9011 -0.5180  3.2684
   9223SM  H16G12454   4.755   3.186  14.908 -1.6012  0.9912  1.4074
   9223SM  C17F12455   4.675   3.355  15.021 -0.2834  0.4829 -0.1784
   9223SM  H17F12456   4.653   3.286  15.106 -0.6428  0.3703 -0.3587
   9223SM  H17G12457   4.577   3.369  14.970 -0.8628 -1.7401  0.1880
   9223SM  C18F12458   4.711   3.495  15.072 -0.8853 -0.3743  0.1077
   9223SM  H18F12459   4.747   3.554  14.985  1.8568  0.4085  1.6640
   9223SM  H18G12460   4.792   3.479  15.146 -0.1916 -0.4237 -0.6553
   9223SM  C19F12461   4.592   3.566  15.133  0.4829  0.0969 -0.0622
   9223SM  H19F12462   4.641   3.659  15.169  2.5760 -0.2122 -1.9550
   9223SM  H19G12463   4.556   3.518  15.227 -0.5576 -0.1301 -0.5598
   9223SM  C20F12464   4.469   3.587  15.045 -0.2472 -0.0571  0.3146
   9223SM  H20F12465   4.415   3.496  15.014 -1.5566  1.5328 -2.4767
   9223SM  H20G12466   4.504   3.638  14.952 -0.4248 -1.4732 -0.5510
   9223SM  C21F12467   4.374   3.691  15.114 -0.3872 -0.4641  0.4904
   9223SM  H21F12468   4.429   3.788  15.110 -0.7357 -0.0853  3.0930
   9223SM  H21G12469   4.357   3.664  15.220  1.7036  0.6078  1.1570
   9223SM  C22F12470   4.247   3.698  15.034 -0.1655 -0.0118 -0.2865
   9223SM  H22F12471   4.173   3.620  15.063  0.8618 -1.3284 -1.1208
   9223SM  H22G12472   4.276   3.695  14.927 -0.6618  2.9597 -0.5845
   9223SM  C23F12473   4.198   3.849  15.037 -0.2514 -0.7146 -0.3902
   9223SM  H23F12474   4.092   3.852  15.002 -0.9035 -2.2181  1.2736
   9223SM  H23G12475   4.265   3.911  14.974 -0.9617 -1.0622 -1.5187
   9223SM  H23H12476   4.192   3.884  15.142  0.1317 -0.9006 -0.3053
   9323SM     N12477   7.111   4.639  12.286  0.3770 -0.3061 -0.3688
   9323SM   C1512478   7.221   4.562  12.233  0.1323  0.2592 -0.2090
   9323SM  H15A12479   7.292   4.555  12.314  1.5583  0.6364 -1.3802
   9323SM  H15B12480   7.260   4.600  12.140 -0.4281  0.8463 -0.2098
   9323SM  H15C12481   7.201   4.456  12.222 -1.0232  0.3855  0.4640
   9323SM   C1412482   7.171   4.780  12.298  0.1304  0.4842 -0.2934
   9323SM  H14A12483   7.258   4.776  12.361 -0.6569  0.0602  0.7967
   9323SM  H14B12484   7.099   4.847  12.343 -0.7109 -1.7594  1.9242
   9323SM  H14C12485   7.206   4.814  12.202  3.7553 -1.9870 -0.0352
   9323SM   C1312486   6.994   4.637  12.191  0.0717 -1.0244 -0.3084
   9323SM  H13A12487   6.956   4.537  12.179  1.5498 -1.7149  0.5732
   9323SM  H13B12488   7.026   4.682  12.098  0.0645  0.3951  0.3531
   9323SM  H13C12489   6.910   4.695  12.226  0.3803 -2.0760  2.4003
   9323SM   C1212490   7.067   4.595  12.424 -0.3195  0.5875  0.0636
   9323SM  H12A12491   7.150   4.593  12.493 -0.0732  0.7206 -0.2279
   9323SM  H12B12492   7.020   4.497  12.422 -1.7398  1.2199  0.6721
   9323SM   C1112493   6.953   4.683  12.495  0.0668  0.1974  0.2020
   9323SM  H11A12494   6.981   4.790  12.479 -0.5448  0.0603 -2.3554
   9323SM  H11B12495   6.957   4.659  12.603 -0.3346  0.3630  0.2560
   9323SM     P12496   6.749   4.524  12.474  0.1679 -0.0805  0.0820
   9323SM   O1312497   6.605   4.540  12.447 -0.0840  0.3765 -0.1566
   9323SM   O1412498   6.820   4.424  12.392 -0.0148 -0.2278  0.1204
   9323SM   O1112499   6.767   4.493  12.626 -0.9462 -0.2042  0.5975
   9323SM   O1212500   6.823   4.662  12.438  0.4147  0.1303 -0.0418
   9323SM   C1S12501   6.693   4.580  12.728 -0.1620  0.2024 -0.0140
   9323SM   H1S12502   6.584   4.578  12.706 -0.2360  1.0629  0.2603
   9323SM   H1T12503   6.734   4.683  12.727 -1.2474  0.6765  1.6978
   9323SM    NF12504   6.641   4.623  12.970  0.1462  0.0521 -0.2637
   9323SM   HNF12505   6.691   4.679  13.036 -1.0820  0.3518  0.4312
   9323SM   C2S12506   6.707   4.529  12.874 -0.3529  0.5850 -0.6472
   9323SM   H2S12507   6.668   4.425  12.871  0.6043  0.1749  0.4430
   9323SM   C3S12508   6.860   4.504  12.916  0.0343  0.0264  0.2401
   9323SM   H3S12509   6.908   4.604  12.915 -0.6579  0.3773  0.8667
   9323SM    O312510   6.936   4.422  12.819 -0.2182 -0.1237 -0.2154
   9323SM   HO312511   6.891   4.427  12.734 -1.0333 -2.2935  0.0437
   9323SM   C4S12512   6.865   4.435  13.047 -0.2409  0.8544  0.2039
   9323SM   H4S12513   6.800   4.347  13.049  0.1460  0.5639  0.2671
   9323SM   C5S12514   6.924   4.468  13.162  0.3489  0.7014 -0.9820
   9323SM   H5S12515   6.970   4.568  13.164 -2.0481  1.8636  0.6274
   9323SM   C6S12516   6.933   4.391  13.290 -0.5380  0.1119  0.1128
   9323SM   H6S12517   7.034   4.354  13.315 -1.3189 -1.0037  1.7393
   9323SM   H6T12518   6.864   4.304  13.292  1.7935 -1.8250  1.4749
   9323SM   C7S12519   6.882   4.485  13.401 -0.5894  0.2585  0.2946
   9323SM   H7S12520   6.779   4.521  13.380 -0.2418  0.9747 -0.2099
   9323SM   H7T12521   6.951   4.570  13.417  1.3468 -1.4046  1.2023
   9323SM   C8S12522   6.883   4.422  13.547  0.3761 -0.3001 -0.6539
   9323SM   H8S12523   6.976   4.362  13.549 -0.7206 -2.0850  1.0881
   9323SM   H8T12524   6.800   4.347  13.546 -1.3452  1.5216 -0.9240
   9323SM   C9S12525   6.886   4.520  13.670 -0.5866  0.7002 -0.4292
   9323SM   H9S12526   6.797   4.587  13.669  0.1052  1.6433 -1.9545
   9323SM   H9T12527   6.979   4.580  13.661 -1.3444  1.7375 -1.5826
   9323SM  C10S12528   6.873   4.445  13.801  0.6006  0.1489 -0.3638
   9323SM  H10S12529   6.959   4.374  13.808  0.5330 -0.1179 -1.8826
   9323SM  H10T12530   6.791   4.371  13.795  0.8976 -0.1043 -1.6084
   9323SM  C11S12531   6.854   4.537  13.928 -0.7355 -0.4596 -0.0366
   9323SM  H11S12532   6.756   4.590  13.924  0.4281  2.0115  1.3189
   9323SM  H11T12533   6.931   4.617  13.926 -0.3667 -0.8271 -0.7623
   9323SM  C12S12534   6.870   4.457  14.054 -0.0322 -0.1905 -0.6904
   9323SM  H12S12535   6.974   4.423  14.068 -0.4907 -0.4644  3.2581
   9323SM  H12T12536   6.804   4.368  14.053  1.4252 -1.2924 -0.2439
   9323SM  C13S12537   6.839   4.544  14.182  0.0991  0.1260  0.6095
   9323SM  H13S12538   6.729   4.560  14.179 -0.2291 -1.5248  2.0233
   9323SM  H13T12539   6.889   4.643  14.182 -2.6553  1.6220  0.5813
   9323SM  C14S12540   6.881   4.484  14.318  0.2270  0.2482 -0.1354
   9323SM  H14S12541   6.864   4.558  14.399  1.3418  1.8913 -1.3332
   9323SM  H14T12542   6.991   4.465  14.321  0.7562  2.8034 -0.7146
   9323SM  C15S12543   6.824   4.345  14.353  0.2787  0.2279  0.0715
   9323SM  H15S12544   6.716   4.359  14.374  0.0698 -0.9454 -0.1517
   9323SM  H15T12545   6.824   4.272  14.269  3.1661  1.6276 -1.3391
   9323SM  C16S12546   6.904   4.277  14.469 -0.0516  0.1413  0.3043
   9323SM  H16S12547   6.884   4.345  14.554  0.3795  0.1345  0.4128
   9323SM  H16T12548   7.009   4.288  14.435 -0.6462  1.1693 -1.3578
   9323SM  C17S12549   6.857   4.131  14.490 -0.0590  0.0809 -0.0357
   9323SM  H17S12550   6.920   4.080  14.567  0.1998  0.3324 -0.0824
   9323SM  H17T12551   6.879   4.068  14.402 -0.9913 -1.9402  1.0956
   9323SM  C18S12552   6.704   4.117  14.518 -0.1651 -0.7221  0.8824
   9323SM  H18S12553   6.678   4.155  14.619  1.4595 -0.9116  1.4056
   9323SM  H18T12554   6.673   4.010  14.514  1.0610 -1.0719 -2.3914
   9323SM  H18U12555   6.645   4.171  14.441  1.0811 -1.1464 -0.4129
   9323SM   C1F12556   6.514   4.624  12.980  0.3333 -0.4481 -0.6011
   9323SM    OF12557   6.442   4.556  12.905  0.5974 -0.0491 -0.0246
   9323SM   C2F12558   6.464   4.705  13.098  0.5604 -0.3551  0.2143
   9323SM   H2F12559   6.359   4.730  13.074  0.6583  1.3357  1.3550
   9323SM   H2G12560   6.528   4.795  13.112 -0.1274 -0.1376  2.2411
   9323SM   C3F12561   6.475   4.639  13.234  0.1054 -0.3183  0.1455
   9323SM   H3F12562   6.579   4.600  13.234  0.5666  0.8592 -0.4958
   9323SM   H3G12563   6.404   4.554  13.250  0.7030 -0.9063 -0.2843
   9323SM   C4F12564   6.449   4.744  13.336 -0.2510  0.6539 -0.3513
   9323SM   H4F12565   6.358   4.802  13.308 -1.3648 -0.1301  1.4850
   9323SM   H4G12566   6.533   4.816  13.349 -0.4703  0.7540  0.5834
   9323SM   C5F12567   6.416   4.684  13.469 -0.2518 -0.6084  0.1220
   9323SM   H5F12568   6.317   4.635  13.454 -0.1955 -1.2135  1.5813
   9323SM   H5G12569   6.398   4.771  13.535 -0.2392 -0.0309 -0.6224
   9323SM   C6F12570   6.526   4.592  13.522 -0.5846  0.3591 -0.4782
   9323SM   H6F12571   6.609   4.657  13.556 -0.1147 -1.4488  2.0809
   9323SM   H6G12572   6.554   4.516  13.446 -3.7717 -1.1992 -0.2643
   9323SM   C7F12573   6.495   4.518  13.651  0.5166  0.5632 -0.5305
   9323SM   H7F12574   6.575   4.443  13.669 -1.5675 -1.4489  1.0153
   9323SM   H7G12575   6.412   4.445  13.639 -0.3704  1.4629 -0.0490
   9323SM   C8F12576   6.478   4.603  13.775  0.5084  0.0706  0.0495
   9323SM   H8F12577   6.395   4.675  13.757 -0.3895 -1.2640 -1.3931
   9323SM   H8G12578   6.577   4.651  13.791  0.5933  0.2591 -0.9854
   9323SM   C9F12579   6.443   4.517  13.904 -0.5146 -0.7807  0.7504
   9323SM   H9F12580   6.493   4.418  13.906  1.6443  0.2512  0.3684
   9323SM   H9G12581   6.333   4.503  13.901 -0.6690  0.4741 -1.3363
   9323SM  C10F12582   6.466   4.592  14.036 -0.0474 -0.8479 -0.5103
   9323SM  H10F12583   6.402   4.680  14.053  1.1810 -0.1069  0.4454
   9323SM  H10G12584   6.569   4.635  14.033  0.4907 -1.9253  1.3056
   9323SM  C11F12585   6.459   4.500  14.154 -0.4080  0.0250  0.0561
   9323SM  H11F12586   6.522   4.536  14.238  0.5201 -0.8790 -0.2370
   9323SM  H11G12587   6.502   4.403  14.120  0.0827 -0.0464  0.8410
   9323SM  C12F12588   6.311   4.482  14.207 -0.7667 -0.2516  0.2986
   9323SM  H12F12589   6.242   4.444  14.129 -1.5092 -1.6670  1.5817
   9323SM  H12G12590   6.284   4.583  14.242 -2.6375 -1.3287  2.1581
   9323SM  C13F12591   6.316   4.385  14.328 -0.5315 -0.3871 -0.1046
   9323SM  H13F12592   6.400   4.419  14.392 -0.0531 -1.1923 -0.2971
   9323SM  H13G12593   6.332   4.280  14.295 -0.3429 -0.5279  0.4169
   9323SM  C14F12594   6.195   4.390  14.417  0.1193  0.6930  0.0187
   9323SM  H14F12595   6.115   4.348  14.353 -0.2639  0.0184  0.9184
   9323SM  H14G12596   6.158   4.491  14.448  0.2955 -0.2387  3.8065
   9323SM  C15F12597   6.222   4.315  14.544  0.3288 -0.8718 -0.1659
   9323SM  H15F12598   6.118   4.291  14.574 -0.5388  0.0093 -2.2171
   9323SM  H15G12599   6.274   4.390  14.607 -0.2223  0.1659 -0.9113
   9323SM  C16F12600   6.300   4.188  14.532 -0.0208  0.9997  0.0100
   9323SM  H16F12601   6.397   4.190  14.479 -1.8945  0.8777 -3.7408
   9323SM  H16G12602   6.233   4.118  14.478  0.2150 -0.2041  1.2276
   9323SM  C17F12603   6.316   4.120  14.673  0.0547  0.7890  0.1892
   9323SM  H17F12604   6.217   4.121  14.725 -1.1555 -2.5391 -1.7069
   9323SM  H17G12605   6.387   4.176  14.737 -0.8739  0.4583  1.5642
   9323SM  C18F12606   6.347   3.972  14.659 -0.2772  0.3816 -0.1131
   9323SM  H18F12607   6.452   3.967  14.622  0.4583  3.3904  1.2469
   9323SM  H18G12608   6.282   3.923  14.584  0.1352  0.7620 -0.7266
   9323SM  C19F12609   6.334   3.897  14.792 -0.1707  0.0204  0.3374
   9323SM  H19F12610   6.243   3.920  14.851  0.1236 -2.1891  1.7407
   9323SM  H19G12611   6.417   3.936  14.854 -0.0585  1.1931 -0.5170
   9323SM  C20F12612   6.339   3.744  14.792  0.0990  0.7867 -0.6919
   9323SM  H20F12613   6.423   3.700  14.736 -1.0830 -1.9017 -0.5068
   9323SM  H20G12614   6.255   3.702  14.733 -0.4032 -0.0399  0.5555
   9323SM  C21F12615   6.322   3.687  14.933  0.1200  1.3999 -0.2211
   9323SM  H21F12616   6.231   3.743  14.962 -2.6043 -1.8766 -1.8047
   9323SM  H21G12617   6.403   3.700  15.009  0.8514 -3.3483  0.1559
   9323SM  C22F12618   6.300   3.535  14.932  0.3618  0.1191  0.0198
   9323SM  H22F12619   6.270   3.513  14.828  0.5632 -0.2033  0.0297
   9323SM  H22G12620   6.217   3.508  15.001  0.9936 -2.6835 -0.1955
   9323SM  C23F12621   6.433   3.449  14.952 -0.4078  0.1997 -0.2872
   9323SM  H23F12622   6.409   3.341  14.947  1.7685 -0.2899 -1.5311
   9323SM  H23G12623   6.489   3.471  15.045 -2.3583  0.2099  0.9335
   9323SM  H23H12624   6.505   3.462  14.867  0.4116 -0.5637  0.2743
   9423SM     N12625   5.083   6.958  12.354  0.0107  0.1107  0.1072
   9423SM   C1512626   4.948   7.004  12.320  0.1865  0.3846 -0.4681
   9423SM  H15A12627   4.897   7.019  12.414  0.1016 -2.1739 -0.0503
   9423SM  H15B12628   4.894   6.933  12.259  3.0905 -2.2256 -0.2552
   9423SM  H15C12629   4.952   7.100  12.270  3.4177  1.0176  0.7752
   9423SM   C1412630   5.084   6.822  12.397 -0.1963  0.4162  0.1978
   9423SM  H14A12631   5.043   6.758  12.321 -0.0825 -0.6522  1.0219
   9423SM  H14B12632   5.024   6.804  12.485 -0.6613 -1.0552 -0.3915
   9423SM  H14C12633   5.180   6.775  12.410  0.1857  0.6570 -1.5286
   9423SM   C1312634   5.175   6.980  12.237  0.4191  0.6231  0.8255
   9423SM  H13A12635   5.277   6.999  12.267  0.0798  1.3836  1.5468
   9423SM  H13B12636   5.135   7.062  12.180 -0.4532 -0.7368 -0.5809
   9423SM  H13C12637   5.174   6.899  12.167 -0.7989  2.7317 -1.7824
   9423SM   C1212638   5.141   7.037  12.473 -0.3310 -0.0810  0.3117
   9423SM  H12A12639   5.197   7.121  12.437  0.2386 -0.2410  0.8102
   9423SM  H12B12640   5.223   6.979  12.512 -0.5840 -1.1999 -0.7380
   9423SM   C1112641   5.056   7.081  12.596 -0.0828  0.7947 -0.1726
   9423SM  H11A12642   5.133   7.102  12.674 -1.5863 -1.8972  2.2123
   9423SM  H11B12643   4.995   6.992  12.618  1.5929 -0.4684 -0.4240
   9423SM     P12644   4.826   7.208  12.631 -0.5080  0.0185 -0.2437
   9423SM   O1312645   4.800   7.352  12.655  0.0788 -0.0109 -0.0159
   9423SM   O1412646   4.729   7.133  12.551 -0.5669  0.0742 -0.2164
   9423SM   O1112647   4.845   7.125  12.768 -0.3912 -0.0615  0.2555
   9423SM   O1212648   4.975   7.195  12.567  0.8023  0.2412 -0.1840
   9423SM   C1S12649   4.949   7.155  12.856  0.3342  0.2345 -0.6469
   9423SM   H1S12650   5.005   7.250  12.837 -0.3465  1.4149  2.6212
   9423SM   H1T12651   5.025   7.074  12.855  2.3743  2.0193  0.6000
   9423SM    NF12652   5.016   7.214  13.092 -0.2889  0.5372 -0.0723
   9423SM   HNF12653   5.052   7.141  13.150 -1.9791 -0.2125  0.0675
   9423SM   C2S12654   4.904   7.170  13.009  0.2176 -0.3164  0.2013
   9423SM   H2S12655   4.819   7.241  13.021  0.9191  0.5493  0.0840
   9423SM   C3S12656   4.842   7.037  13.052  0.4194  0.0332 -0.0009
   9423SM   H3S12657   4.920   6.958  13.058 -2.2109 -2.6328  2.6263
   9423SM    O312658   4.730   6.993  12.969 -0.6283  0.2797 -0.3149
   9423SM   HO312659   4.731   7.050  12.891  0.6892 -0.9617 -1.2705
   9423SM   C4S12660   4.793   7.048  13.194 -0.6449 -0.2117 -0.5896
   9423SM   H4S12661   4.875   7.057  13.267 -2.0394 -0.6291  1.0851
   9423SM   C5S12662   4.677   7.053  13.256  0.3272  0.0674 -0.0918
   9423SM   H5S12663   4.585   7.035  13.200  0.4079 -2.5274  0.4682
   9423SM   C6S12664   4.667   7.073  13.407 -0.8133  0.1134 -0.7507
   9423SM   H6S12665   4.607   7.159  13.444  2.1292  1.1108  2.2564
   9423SM   H6T12666   4.768   7.090  13.451 -1.5841 -1.6945  1.9959
   9423SM   C7S12667   4.613   6.949  13.476 -0.6131 -0.7672 -0.5342
   9423SM   H7S12668   4.670   6.858  13.447 -1.1607 -1.6337  0.9721
   9423SM   H7T12669   4.505   6.936  13.456 -0.0437 -3.7318 -2.2928
   9423SM   C8S12670   4.617   6.960  13.628 -0.2915 -1.0998  0.1529
   9423SM   H8S12671   4.555   7.043  13.666  0.0980 -0.8737  0.3053
   9423SM   H8T12672   4.721   6.978  13.663  0.1333 -2.7863 -0.1120
   9423SM   C9S12673   4.580   6.827  13.699  0.7955  0.9431  0.2020
   9423SM   H9S12674   4.612   6.738  13.640 -0.8020  0.7400 -0.3885
   9423SM   H9T12675   4.471   6.811  13.689  0.9394 -0.0560  0.1238
   9423SM  C10S12676   4.629   6.829  13.846 -0.5796  0.3431  0.5219
   9423SM  H10S12677   4.738   6.846  13.847 -0.4197 -0.5801  0.0781
   9423SM  H10T12678   4.614   6.722  13.871  1.9464 -0.7300 -1.9977
   9423SM  C11S12679   4.574   6.933  13.934 -0.5359  0.1721  0.1048
   9423SM  H11S12680   4.464   6.921  13.924 -0.6693 -0.4006  1.8830
   9423SM  H11T12681   4.606   7.033  13.895 -1.1157  0.1870 -0.3534
   9423SM  C12S12682   4.623   6.929  14.078 -0.0200 -0.1380 -0.2050
   9423SM  H12S12683   4.637   7.026  14.130  2.2240 -1.1979  1.2922
   9423SM  H12T12684   4.728   6.894  14.083  1.0557  2.9635  1.5731
   9423SM  C13S12685   4.535   6.854  14.174 -0.0520  0.5363 -0.3233
   9423SM  H13S12686   4.497   6.761  14.127  1.4601 -0.8735  1.1286
   9423SM  H13T12687   4.451   6.916  14.211  1.4667  3.5563 -1.5417
   9423SM  C14S12688   4.615   6.798  14.302  0.2176 -0.0905  0.4771
   9423SM  H14S12689   4.655   6.878  14.368  0.6882 -0.0106  0.1013
   9423SM  H14T12690   4.704   6.748  14.259  0.1456 -1.2190  1.5984
   9423SM  C15S12691   4.540   6.686  14.369 -0.1339  0.1388 -0.2941
   9423SM  H15S12692   4.541   6.601  14.297 -0.4042  0.2176 -0.3930
   9423SM  H15T12693   4.433   6.715  14.376 -0.0438  1.2582 -2.6538
   9423SM  C16S12694   4.589   6.641  14.503  1.0428 -0.2203 -0.2624
   9423SM  H16S12695   4.530   6.554  14.540  1.1453 -0.5349 -0.8245
   9423SM  H16T12696   4.567   6.721  14.576  1.9953  0.6583 -0.9045
   9423SM  C17S12697   4.739   6.615  14.508 -0.1793  0.2438 -0.7575
   9423SM  H17S12698   4.793   6.700  14.461 -0.8494  1.1097  0.0004
   9423SM  H17T12699   4.764   6.530  14.441  2.1640  0.2218  0.0532
   9423SM  C18S12700   4.797   6.591  14.643 -0.2313  0.1549 -0.4521
   9423SM  H18S12701   4.907   6.602  14.645  0.0810 -2.4888  0.0739
   9423SM  H18T12702   4.783   6.485  14.675 -1.0842  0.9943  2.2302
   9423SM  H18U12703   4.748   6.657  14.717 -1.8260 -0.2951 -1.0631
   9423SM   C1F12704   5.053   7.340  13.097 -0.3750  0.3344  0.2579
   9423SM    OF12705   5.011   7.426  13.020  0.0716 -0.3654 -0.2902
   9423SM   C2F12706   5.145   7.368  13.207 -0.1422 -0.2196  0.0326
   9423SM   H2F12707   5.216   7.449  13.178 -0.4116 -0.3549 -1.0401
   9423SM   H2G12708   5.202   7.276  13.231  4.2111  1.7324 -1.8148
   9423SM   C3F12709   5.083   7.426  13.335 -0.4307 -0.5598  0.0122
   9423SM   H3F12710   5.031   7.520  13.307 -0.4739 -0.7477 -0.5333
   9423SM   H3G12711   5.168   7.460  13.399  1.1204 -0.1064 -2.1993
   9423SM   C4F12712   4.979   7.337  13.408 -0.3933  0.1805 -0.1081
   9423SM   H4F12713   5.014   7.235  13.435 -2.0639  0.6737  5.2495
   9423SM   H4G12714   4.886   7.324  13.348 -0.5233 -3.1233  0.5875
   9423SM   C5F12715   4.940   7.397  13.543 -0.5996 -0.7922 -0.5643
   9423SM   H5F12716   4.912   7.504  13.533 -0.6082 -0.7943 -0.5587
   9423SM   H5G12717   5.038   7.383  13.593  0.4220  0.0682 -2.2199
   9423SM   C6F12718   4.824   7.318  13.607  0.5794 -0.4313 -0.1712
   9423SM   H6F12719   4.856   7.216  13.637  1.2910  0.4834  2.4682
   9423SM   H6G12720   4.738   7.316  13.537  0.8569  2.0580 -0.6609
   9423SM   C7F12721   4.782   7.406  13.731  0.1959  0.6122  0.6258
   9423SM   H7F12722   4.747   7.506  13.698 -0.1343  0.2620 -0.1170
   9423SM   H7G12723   4.876   7.415  13.790  0.1147 -1.2403  1.0785
   9423SM   C8F12724   4.670   7.343  13.822 -0.3324  0.3080  0.1460
   9423SM   H8F12725   4.709   7.240  13.840 -0.6756  0.3492  1.2075
   9423SM   H8G12726   4.567   7.331  13.781 -0.7049 -1.0344  1.4071
   9423SM   C9F12727   4.649   7.409  13.961  0.0329 -0.0638 -0.0638
   9423SM   H9F12728   4.569   7.486  13.957 -0.7615 -0.9201 -3.8653
   9423SM   H9G12729   4.738   7.471  13.987  1.0206 -1.5020  0.0948
   9423SM  C10F12730   4.626   7.305  14.076 -0.0318 -0.5123  0.3214
   9423SM  H10F12731   4.730   7.273  14.096  0.8444  1.0162 -1.5667
   9423SM  H10G12732   4.559   7.226  14.035  0.1131  1.0153 -3.1178
   9423SM  C11F12733   4.572   7.374  14.200  0.0522 -0.6791 -0.4657
   9423SM  H11F12734   4.478   7.427  14.171  0.9577  2.1692  1.3955
   9423SM  H11G12735   4.628   7.464  14.233  1.3636 -1.3000 -0.9439
   9423SM  C12F12736   4.560   7.283  14.321  0.1652  0.2028  0.4159
   9423SM  H12F12737   4.656   7.238  14.351 -0.8469 -0.3425  3.0782
   9423SM  H12G12738   4.486   7.203  14.299 -1.2728  1.4735  0.4437
   9423SM  C13F12739   4.501   7.367  14.442 -0.0855  0.7166  0.5042
   9423SM  H13F12740   4.407   7.417  14.411  0.2041  0.3217 -1.1014
   9423SM  H13G12741   4.575   7.448  14.460 -0.5347  1.2051  0.1897
   9423SM  C14F12742   4.484   7.265  14.552  0.0173  0.9051 -0.5660
   9423SM  H14F12743   4.573   7.199  14.556  0.6427  1.8078  1.0236
   9423SM  H14G12744   4.402   7.195  14.525 -0.0385 -0.2484  2.2115
   9423SM  C15F12745   4.454   7.333  14.686 -0.0537 -0.3256  0.5049
   9423SM  H15F12746   4.370   7.402  14.666 -0.6287 -1.2417 -0.3255
   9423SM  H15G12747   4.542   7.395  14.714 -0.0142  0.3470 -1.0041
   9423SM  C16F12748   4.412   7.229  14.786  0.0271  0.4659  0.2583
   9423SM  H16F12749   4.504   7.167  14.785 -0.9140 -0.9439 -0.8562
   9423SM  H16G12750   4.327   7.166  14.754  0.8006 -0.0573 -0.8332
   9423SM  C17F12751   4.373   7.293  14.921 -0.6187  0.1328  0.5943
   9423SM  H17F12752   4.465   7.348  14.951 -0.2478 -0.4975  0.6189
   9423SM  H17G12753   4.348   7.210  14.990  0.8222 -3.7416 -3.1712
   9423SM  C18F12754   4.259   7.394  14.913  0.0095  0.6467 -0.6494
   9423SM  H18F12755   4.221   7.395  14.808 -1.8240  2.7151 -0.0391
   9423SM  H18G12756   4.293   7.497  14.938  1.8519 -0.0344 -0.2694
   9423SM  C19F12757   4.135   7.369  15.001  0.2627  0.1424  0.3666
   9423SM  H19F12758   4.082   7.461  15.036  0.6878  0.5017  0.0801
   9423SM  H19G12759   4.159   7.308  15.091  0.5105 -0.2948  0.0068
   9423SM  C20F12760   4.021   7.300  14.919 -0.4451 -0.3931  0.6756
   9423SM  H20F12761   4.062   7.200  14.891  0.1876 -0.0865  0.5012
   9423SM  H20G12762   4.009   7.365  14.830  0.9892 -1.2915 -0.2091
   9423SM  C21F12763   3.883   7.290  14.984 -0.4990 -0.1205 -0.0203
   9423SM  H21F12764   3.867   7.387  15.035 -1.3910 -0.6889  0.8378
   9423SM  H21G12765   3.891   7.211  15.063  2.0583 -1.6153 -1.6331
   9423SM  C22F12766   3.765   7.264  14.886  0.2341  1.0694  1.0806
   9423SM  H22F12767   3.749   7.346  14.813  0.7970  0.8377  0.6827
   9423SM  H22G12768   3.686   7.240  14.959  0.7942 -1.1391  1.0287
   9423SM  C23F12769   3.792   7.131  14.815 -0.9668  0.4428  0.1258
   9423SM  H23F12770   3.719   7.104  14.736  1.5199 -2.3844 -1.4429
   9423SM  H23G12771   3.783   7.042  14.882 -0.0717  0.1755 -0.0881
   9423SM  H23H12772   3.895   7.120  14.775 -0.6276  1.1180  0.7875
   9523SM     N12773   2.420   0.873  12.554  0.4163 -0.2344 -0.6926
   9523SM   C1512774   2.337   0.757  12.507  0.0336 -0.1085 -0.1414
   9523SM  H15A12775   2.281   0.714  12.589 -0.8020  0.6898 -0.2805
   9523SM  H15B12776   2.400   0.680  12.466  0.1307 -1.2942  2.0342
   9523SM  H15C12777   2.262   0.789  12.436 -0.0223  0.6859  0.2550
   9523SM   C1412778   2.524   0.827  12.653 -0.3564 -0.8783  0.4043
   9523SM  H14A12779   2.479   0.777  12.738  1.4197 -3.6740 -0.1531
   9523SM  H14B12780   2.598   0.902  12.677 -2.4350  2.3951 -2.4579
   9523SM  H14C12781   2.585   0.748  12.610 -0.2788  0.5711 -2.3551
   9523SM   C1312782   2.491   0.940  12.437 -0.8284 -0.0361 -0.2444
   9523SM  H13A12783   2.536   1.035  12.462 -0.3084  0.3804 -2.5995
   9523SM  H13B12784   2.431   0.955  12.349  0.8598 -0.7238 -1.5537
   9523SM  H13C12785   2.570   0.869  12.417  0.1691  0.9069  0.2319
   9523SM   C1212786   2.332   0.971  12.623 -0.4278  0.0963 -0.1663
   9523SM  H12A12787   2.282   1.022  12.541 -0.2745  1.2867  0.4563
   9523SM  H12B12788   2.398   1.046  12.663  3.0394 -3.6202  1.7205
   9523SM   C1112789   2.232   0.933  12.732  0.3912  0.1670 -0.1032
   9523SM  H11A12790   2.181   1.026  12.765 -1.2289 -0.6456 -0.2065
   9523SM  H11B12791   2.291   0.897  12.818 -0.5072 -0.0110  0.4487
   9523SM     P12792   1.993   0.847  12.659  0.0453 -0.4345 -0.0369
   9523SM   O1312793   1.973   0.984  12.599 -0.5743 -0.4960  0.2703
   9523SM   O1412794   1.945   0.732  12.582 -0.2681  0.5034  0.0232
   9523SM   O1112795   1.926   0.841  12.802 -0.5586 -0.1081 -0.4871
   9523SM   O1212796   2.143   0.831  12.695 -0.2783 -0.8703  0.0298
   9523SM   C1S12797   1.974   0.747  12.900 -0.1409  0.5469  0.3014
   9523SM   H1S12798   2.085   0.746  12.905 -0.0804  0.1697 -0.9036
   9523SM   H1T12799   1.935   0.645  12.884 -1.6085  1.0494  0.5226
   9523SM    NF12800   1.996   0.711  13.140 -0.0709  0.3848 -0.0347
   9523SM   HNF12801   1.946   0.625  13.153  2.7709 -1.9799 -2.9132
   9523SM   C2S12802   1.930   0.791  13.040  0.5365 -0.0659  0.3737
   9523SM   H2S12803   1.955   0.896  13.066 -0.7499 -0.0597  1.7875
   9523SM   C3S12804   1.774   0.775  13.042 -0.5284  0.1160  0.1386
   9523SM   H3S12805   1.740   0.680  12.997 -0.8817  0.0957  0.4428
   9523SM    O312806   1.700   0.863  12.968 -0.3480  0.4853  0.1158
   9523SM   HO312807   1.759   0.927  12.928  1.3463 -0.9656  0.1853
   9523SM   C4S12808   1.730   0.773  13.188  0.4493 -0.0067 -0.4887
   9523SM   H4S12809   1.743   0.677  13.240  0.1922 -0.6443 -1.5649
   9523SM   C5S12810   1.681   0.882  13.255 -0.1454 -0.2057  1.2843
   9523SM   H5S12811   1.682   0.973  13.193  2.9244 -1.0358 -0.0933
   9523SM   C6S12812   1.630   0.887  13.396 -0.2848  0.1914  1.0744
   9523SM   H6S12813   1.522   0.863  13.392  0.2920 -2.5446 -0.1277
   9523SM   H6T12814   1.632   0.990  13.437  1.4920  0.4107  0.5021
   9523SM   C7S12815   1.709   0.796  13.492 -0.1087 -0.4953 -0.5090
   9523SM   H7S12816   1.815   0.829  13.488 -0.5847  1.1026 -0.4949
   9523SM   H7T12817   1.702   0.693  13.451 -2.3989 -0.8740  0.7069
   9523SM   C8S12818   1.669   0.799  13.644 -0.0033  0.4172  0.4007
   9523SM   H8S12819   1.690   0.897  13.691  1.8369  1.3250 -2.0865
   9523SM   H8T12820   1.746   0.730  13.684  0.6178  0.7563 -0.1871
   9523SM   C9S12821   1.524   0.751  13.676 -0.0919 -0.1225 -0.0744
   9523SM   H9S12822   1.516   0.659  13.615  2.1220 -0.9571  0.7810
   9523SM   H9T12823   1.454   0.828  13.637  1.0706  1.1181  0.2000
   9523SM  C10S12824   1.504   0.713  13.824 -0.3582 -0.3625  0.6998
   9523SM  H10S12825   1.515   0.809  13.879  0.3515 -0.5145  0.8361
   9523SM  H10T12826   1.574   0.634  13.857  1.4594  0.4548 -0.9719
   9523SM  C11S12827   1.360   0.669  13.863 -0.1628 -0.2886 -0.2020
   9523SM  H11S12828   1.342   0.567  13.823 -0.7355  0.7611 -2.8491
   9523SM  H11T12829   1.283   0.732  13.815 -0.4023  1.8377  2.7415
   9523SM  C12S12830   1.352   0.673  14.018  0.0316 -0.0081 -0.0359
   9523SM  H12S12831   1.243   0.681  14.036 -0.1425 -1.2643 -0.4483
   9523SM  H12T12832   1.397   0.769  14.053 -0.3329  1.2331 -2.7666
   9523SM  C13S12833   1.418   0.552  14.095 -0.6548  0.1412 -0.5597
   9523SM  H13S12834   1.478   0.592  14.180 -2.0979  0.6734  0.2459
   9523SM  H13T12835   1.496   0.505  14.032  0.9515 -2.5446  3.0490
   9523SM  C14S12836   1.327   0.448  14.152 -0.2506 -0.4527  0.4638
   9523SM  H14S12837   1.264   0.402  14.072 -0.5831  0.2066  0.3420
   9523SM  H14T12838   1.267   0.502  14.229 -1.9169  1.0848 -1.7868
   9523SM  C15S12839   1.394   0.327  14.216  0.1954  0.4389  0.2204
   9523SM  H15S12840   1.468   0.363  14.291  0.1828 -0.4140  0.6515
   9523SM  H15T12841   1.451   0.289  14.129  0.9892  0.4602  0.7120
   9523SM  C16S12842   1.304   0.219  14.267 -0.0488 -0.0343 -0.5372
   9523SM  H16S12843   1.229   0.190  14.191  1.1573  1.9048 -2.6285
   9523SM  H16T12844   1.257   0.266  14.356 -1.1775 -0.1173 -1.0709
   9523SM  C17S12845   1.379   0.098  14.318  0.4012  0.0539 -0.6204
   9523SM  H17S12846   1.445   0.126  14.403 -1.3755  0.0337  0.8264
   9523SM  H17T12847   1.433   0.059  14.230  0.1823  2.3191 -1.8466
   9523SM  C18S12848   1.287  -0.017  14.374  0.1986  0.5419  0.5090
   9523SM  H18S12849   1.209   0.009  14.448  0.8103  0.5887  1.1479
   9523SM  H18T12850   1.343  -0.104  14.412  1.3199  0.9817 -0.0687
   9523SM  H18U12851   1.221  -0.052  14.292  0.1652  0.1899  0.6883
   9523SM   C1F12852   2.124   0.723  13.171 -0.8905  0.2906  0.6644
   9523SM    OF12853   2.186   0.824  13.131 -0.5633 -0.4649 -0.8050
   9523SM   C2F12854   2.199   0.621  13.249 -0.5792  0.5704  0.2758
   9523SM   H2F12855   2.275   0.575  13.183 -1.5109 -2.2100  1.0168
   9523SM   H2G12856   2.130   0.545  13.292  1.0052 -0.3584  1.2327
   9523SM   C3F12857   2.280   0.680  13.368  0.3344 -0.2565  0.1831
   9523SM   H3F12858   2.356   0.749  13.324 -2.0315  0.7718 -2.6473
   9523SM   H3G12859   2.322   0.590  13.416  0.8886 -0.6631 -1.0056
   9523SM   C4F12860   2.200   0.767  13.462  0.4467  0.3104  0.6594
   9523SM   H4F12861   2.179   0.860  13.406 -0.7092 -0.8067 -0.8323
   9523SM   H4G12862   2.253   0.795  13.556  0.3390 -0.9101  1.1111
   9523SM   C5F12863   2.075   0.704  13.509  0.4021 -0.5086 -0.3359
   9523SM   H5F12864   2.020   0.650  13.429 -1.2611 -0.4725  0.7221
   9523SM   H5G12865   2.008   0.778  13.558  0.4981  0.3202 -1.4145
   9523SM   C6F12866   2.083   0.604  13.626  0.5634  0.1043  0.6514
   9523SM   H6F12867   2.154   0.528  13.588  0.4028  1.0190 -1.6766
   9523SM   H6G12868   1.989   0.549  13.644  1.0485 -1.3653 -1.0139
   9523SM   C7F12869   2.117   0.674  13.758  0.2297 -0.3439  0.1292
   9523SM   H7F12870   2.037   0.748  13.780  2.0354  1.7382 -0.0019
   9523SM   H7G12871   2.210   0.728  13.734 -0.2937  0.2688 -0.5654
   9523SM   C8F12872   2.140   0.575  13.869 -0.3595 -0.2034 -0.7918
   9523SM   H8F12873   2.218   0.499  13.845 -0.3419 -1.0780  1.6777
   9523SM   H8G12874   2.048   0.515  13.889  0.9122 -1.6781  0.9766
   9523SM   C9F12875   2.187   0.641  13.999  0.4065  0.1150  0.1132
   9523SM   H9F12876   2.120   0.727  14.021  0.3172  0.7048 -2.2268
   9523SM   H9G12877   2.289   0.686  13.987  0.2002  0.2453 -1.2879
   9523SM  C10F12878   2.182   0.554  14.124  0.2252 -0.3553 -0.9201
   9523SM  H10F12879   2.266   0.482  14.136  0.4733  0.0896  0.1515
   9523SM  H10G12880   2.087   0.497  14.128  0.0469 -0.0593 -0.9166
   9523SM  C11F12881   2.175   0.639  14.252  0.5713 -0.5005  0.2500
   9523SM  H11F12882   2.080   0.692  14.231  0.6442 -0.0215  1.0888
   9523SM  H11G12883   2.261   0.709  14.257  0.3936 -0.0673 -1.8820
   9523SM  C12F12884   2.162   0.563  14.389 -0.1250  0.0006 -0.4257
   9523SM  H12F12885   2.257   0.510  14.412 -2.0186 -3.3490  0.2993
   9523SM  H12G12886   2.075   0.494  14.385 -0.3181  0.2601 -0.7498
   9523SM  C13F12887   2.153   0.674  14.498 -0.2267  0.4354 -0.5407
   9523SM  H13F12888   2.212   0.764  14.470 -1.1795  0.8123 -1.3860
   9523SM  H13G12889   2.201   0.632  14.589  0.1985 -0.8242 -1.3192
   9523SM  C14F12890   2.019   0.716  14.545 -0.2132  0.3134  0.3877
   9523SM  H14F12891   1.949   0.632  14.566 -1.3583  1.3506  0.8508
   9523SM  H14G12892   1.967   0.782  14.472 -0.5063 -0.1811  0.1383
   9523SM  C15F12893   2.016   0.794  14.680 -0.5137  0.6473  0.2940
   9523SM  H15F12894   2.091   0.876  14.674  0.5214 -0.2732  0.4601
   9523SM  H15G12895   2.047   0.715  14.751 -2.8867  1.1582  2.0100
   9523SM  C16F12896   1.884   0.858  14.717 -0.4718  0.1955  1.3569
   9523SM  H16F12897   1.818   0.769  14.706  0.0043  0.1488 -4.3277
   9523SM  H16G12898   1.861   0.931  14.637 -0.3698 -0.9046  0.2837
   9523SM  C17F12899   1.876   0.904  14.865  0.2572  0.0584  0.3566
   9523SM  H17F12900   1.947   0.989  14.875 -1.4383  1.6109 -0.1999
   9523SM  H17G12901   1.910   0.818  14.926  0.7371  0.4289  0.6268
   9523SM  C18F12902   1.734   0.945  14.900 -0.1747 -0.2060  0.7860
   9523SM  H18F12903   1.655   0.884  14.851  0.0781  0.5610 -0.6370
   9523SM  H18G12904   1.722   1.045  14.853  1.4544 -0.7873 -0.9939
   9523SM  C19F12905   1.708   0.919  15.047 -0.3029  0.1982 -0.0831
   9523SM  H19F12906   1.739   0.813  15.059  0.2964  0.3731 -0.0551
   9523SM  H19G12907   1.600   0.915  15.073 -0.0700 -1.3461  0.7717
   9523SM  C20F12908   1.769   1.024  15.141  0.9784  0.1256 -0.0570
   9523SM  H20F12909   1.703   1.113  15.141 -0.7573 -1.0783  0.9440
   9523SM  H20G12910   1.864   1.057  15.095  0.5387 -0.3911 -1.3929
   9523SM  C21F12911   1.797   0.972  15.284 -0.0550 -0.3356  0.2791
   9523SM  H21F12912   1.866   0.887  15.268  1.4106 -0.0904  4.1165
   9523SM  H21G12913   1.707   0.922  15.325 -0.1205 -0.5755 -0.1596
   9523SM  C22F12914   1.846   1.091  15.371 -0.0497 -0.0217  0.1657
   9523SM  H22F12915   1.786   1.178  15.337 -0.2772 -0.3371 -0.2539
   9523SM  H22G12916   1.951   1.118  15.346  0.4788 -1.3673  0.8221
   9523SM  C23F12917   1.819   1.063  15.516  0.0082 -0.5342 -0.2189
   9523SM  H23F12918   1.709   1.055  15.525 -0.0191 -4.5213 -1.9548
   9523SM  H23G12919   1.860   1.144  15.580  2.2232 -0.1489 -2.0047
   9523SM  H23H12920   1.866   0.973  15.562 -2.6481 -0.9844  1.8661
   9623SM     N12921   1.126   6.972  12.316  0.0404  0.1980  0.1850
   9623SM   C1512922   1.123   6.917  12.179 -0.5811  0.2014  0.6432
   9623SM  H15A12923   1.158   6.983  12.102 -1.3548  1.8651  1.6510
   9623SM  H15B12924   1.027   6.877  12.147 -0.7234  1.1742 -0.1945
   9623SM  H15C12925   1.189   6.832  12.183 -0.1824  0.4835  0.1414
   9623SM   C1412926   1.028   7.088  12.323  0.4870 -0.2915 -0.1133
   9623SM  H14A12927   1.053   7.158  12.244  1.7784 -1.1408 -0.4934
   9623SM  H14B12928   1.030   7.130  12.423  0.0747 -1.2333  0.2947
   9623SM  H14C12929   0.926   7.059  12.303  0.8237 -1.3537 -0.3495
   9623SM   C1312930   1.094   6.863  12.407 -0.2746 -0.0545  0.2529
   9623SM  H13A12931   1.077   6.900  12.507 -0.9274  0.6916 -0.1230
   9623SM  H13B12932   1.174   6.794  12.427  0.8177  1.6049  1.9068
   9623SM  H13C12933   1.017   6.798  12.369  0.3648 -1.1267  0.7295
   9623SM   C1212934   1.256   7.036  12.348 -0.1541 -0.7287 -0.2571
   9623SM  H12A12935   1.278   7.130  12.299 -0.4359 -0.5609 -0.0602
   9623SM  H12B12936   1.336   6.971  12.314  0.5657 -0.2674  0.5130
   9623SM   C1112937   1.284   7.066  12.500  0.0760  0.6633 -0.5488
   9623SM  H11A12938   1.188   7.111  12.531  0.1798  0.3724  0.2246
   9623SM  H11B12939   1.366   7.136  12.527 -0.5377  1.4388 -0.6710
   9623SM     P12940   1.444   6.871  12.562  0.1278  0.0039  0.6470
   9623SM   O1312941   1.433   6.729  12.600  0.2465  0.2639  0.2139
   9623SM   O1412942   1.504   6.906  12.428 -0.2650 -0.2966  0.3770
   9623SM   O1112943   1.537   6.938  12.663  0.1377 -0.7109 -0.3652
   9623SM   O1212944   1.300   6.947  12.575 -0.1529  0.8238 -0.5299
   9623SM   C1S12945   1.479   6.995  12.781  0.1731 -0.4616  0.4938
   9623SM   H1S12946   1.418   6.921  12.838 -2.3552  2.2490  1.6195
   9623SM   H1T12947   1.409   7.077  12.754 -1.2160 -1.7302  0.1239
   9623SM    NF12948   1.519   7.096  13.004 -0.1054  0.2892 -0.3578
   9623SM   HNF12949   1.488   7.187  13.028 -0.0237 -0.4774  3.1583
   9623SM   C2S12950   1.584   7.059  12.876 -0.5337 -0.2143  0.1333
   9623SM   H2S12951   1.656   6.980  12.906  0.5164  0.3474 -0.8422
   9623SM   C3S12952   1.645   7.186  12.810  0.4357 -0.4974 -0.5723
   9623SM   H3S12953   1.574   7.270  12.796  2.3090  1.6327  1.8209
   9623SM    O312954   1.690   7.166  12.677  0.0867  0.2578  0.4631
   9623SM   HO312955   1.626   7.099  12.655  1.3393 -0.4917 -1.1993
   9623SM   C4S12956   1.754   7.244  12.905 -0.1501  0.3893 -0.4060
   9623SM   H4S12957   1.840   7.180  12.929  0.5875  1.4046 -0.2679
   9623SM   C5S12958   1.752   7.371  12.946  0.0549 -0.4165 -0.2828
   9623SM   H5S12959   1.681   7.443  12.904  0.5017  0.1287 -0.1107
   9623SM   C6S12960   1.850   7.436  13.042 -0.3640  0.2153  0.6064
   9623SM   H6S12961   1.785   7.471  13.125 -3.3770  2.1353 -2.3133
   9623SM   H6T12962   1.890   7.535  13.012 -2.1391  0.3917 -1.4574
   9623SM   C7S12963   1.950   7.346  13.103  0.6999  0.1257  0.2989
   9623SM   H7S12964   2.016   7.297  13.027 -1.9050 -1.6478 -0.9454
   9623SM   H7T12965   1.893   7.262  13.146 -1.3265  1.2509 -0.0840
   9623SM   C8S12966   2.033   7.417  13.212  0.5194 -0.5494  0.3078
   9623SM   H8S12967   2.088   7.506  13.176  0.9818 -0.7043  0.6318
   9623SM   H8T12968   2.112   7.351  13.252  0.1159 -1.5263 -0.4671
   9623SM   C9S12969   1.951   7.477  13.330  0.0512 -0.1857  0.3594
   9623SM   H9S12970   1.891   7.392  13.367  0.3708 -1.6787 -2.3406
   9623SM   H9T12971   1.883   7.560  13.302  0.1468  0.0305  0.7494
   9623SM  C10S12972   2.054   7.517  13.442 -0.7949 -0.0901 -0.3941
   9623SM  H10S12973   2.086   7.620  13.418 -1.6806  0.0870 -0.8496
   9623SM  H10T12974   2.143   7.450  13.438 -1.9736 -1.7158 -0.5844
   9623SM  C11S12975   2.004   7.524  13.584  0.4609  0.1082  0.6965
   9623SM  H11S12976   1.942   7.434  13.601  1.1794 -0.8191 -1.2988
   9623SM  H11T12977   1.935   7.611  13.589 -0.1146 -0.1842 -1.4329
   9623SM  C12S12978   2.119   7.534  13.679  0.6480 -0.0696  0.6999
   9623SM  H12S12979   2.187   7.620  13.660  1.7514 -0.8590  0.9851
   9623SM  H12T12980   2.179   7.441  13.678  1.6279  0.5581 -0.0233
   9623SM  C13S12981   2.062   7.553  13.817 -0.7531 -0.2998  0.3951
   9623SM  H13S12982   2.017   7.458  13.851  0.6770 -1.9557 -2.0558
   9623SM  H13T12983   1.988   7.637  13.820  1.2817  1.5768  0.6988
   9623SM  C14S12984   2.168   7.593  13.930 -0.2493 -0.0489 -0.1030
   9623SM  H14S12985   2.213   7.694  13.913 -0.5154  0.6720  2.9060
   9623SM  H14T12986   2.236   7.512  13.896  0.3078  0.2375  0.3144
   9623SM  C15S12987   2.114   7.578  14.070  0.2772  1.7889 -0.0136
   9623SM  H15S12988   2.039   7.496  14.065  0.0879  2.0333 -1.8779
   9623SM  H15T12989   2.071   7.672  14.113 -2.2630 -0.4907  2.9002
   9623SM  C16S12990   2.224   7.547  14.176 -0.4072 -0.7762  0.1504
   9623SM  H16S12991   2.299   7.627  14.161 -0.4173 -0.9608 -0.9325
   9623SM  H16T12992   2.266   7.450  14.141 -1.0958 -1.6109  1.4992
   9623SM  C17S12993   2.172   7.526  14.313 -0.0454 -0.0848 -0.6373
   9623SM  H17S12994   2.260   7.504  14.378 -0.3946  0.8287  0.1773
   9623SM  H17T12995   2.104   7.437  14.310  1.1692 -1.0151 -1.5069
   9623SM  C18S12996   2.108   7.646  14.378 -0.6708  0.2020 -0.6529
   9623SM  H18S12997   2.165   7.737  14.350  1.6637 -1.2369 -0.8039
   9623SM  H18T12998   2.095   7.630  14.488 -1.1451  0.9347 -0.5897
   9623SM  H18U12999   2.006   7.659  14.334 -0.7223  1.7137 -0.1579
   9623SM   C1F13000   1.500   7.014  13.109 -0.7199 -0.0732 -0.0826
   9623SM    OF13001   1.533   6.895  13.107  0.0505  0.0886  0.4057
   9623SM   C2F13002   1.440   7.075  13.231  1.0422  0.1508 -0.1880
   9623SM   H2F13003   1.395   6.990  13.287  1.2288  0.7510  0.9207
   9623SM   H2G13004   1.355   7.142  13.210 -0.1962 -1.0112  0.8832
   9623SM   C3F13005   1.545   7.137  13.320  0.4361  0.4383 -0.1182
   9623SM   H3F13006   1.505   7.209  13.395 -0.2191  0.4201 -0.4427
   9623SM   H3G13007   1.617   7.192  13.256  0.1424  1.0245  0.0407
   9623SM   C4F13008   1.614   7.031  13.403 -0.1976  0.4625  0.3408
   9623SM   H4F13009   1.681   6.970  13.338 -0.0512 -1.7086  2.4110
   9623SM   H4G13010   1.542   6.982  13.472  1.6824  0.8327  2.6763
   9623SM   C5F13011   1.708   7.100  13.507  0.3133  0.2757  0.3757
   9623SM   H5F13012   1.656   7.177  13.568 -2.2347 -0.5101 -0.6642
   9623SM   H5G13013   1.793   7.147  13.453  0.3618  0.9253  0.9937
   9623SM   C6F13014   1.761   7.001  13.610 -0.2878 -0.3633 -0.6867
   9623SM   H6F13015   1.827   6.924  13.564 -1.0059 -0.9538 -0.7348
   9623SM   H6G13016   1.676   6.945  13.655  1.0727 -1.8541  0.1497
   9623SM   C7F13017   1.839   7.071  13.725  0.5655  0.3201  0.0852
   9623SM   H7F13018   1.767   7.131  13.784 -3.3266 -3.1132 -0.7308
   9623SM   H7G13019   1.921   7.135  13.684 -0.3069  1.8900  0.6805
   9623SM   C8F13020   1.901   6.961  13.809 -0.0109 -0.4433  0.1753
   9623SM   H8F13021   1.980   6.913  13.748 -1.4272 -0.3425 -1.8234
   9623SM   H8G13022   1.831   6.882  13.842  0.3978 -0.6140  0.6443
   9623SM   C9F13023   1.972   7.023  13.934 -0.1591  0.2595  0.6816
   9623SM   H9F13024   1.896   7.057  14.007 -2.0265 -3.5334  0.7261
   9623SM   H9G13025   2.039   7.108  13.907 -2.9578  1.6603 -2.6314
   9623SM  C10F13026   2.052   6.904  14.004  0.3999  0.0500  0.5151
   9623SM  H10F13027   2.135   6.863  13.943 -0.5915  0.8611 -1.4552
   9623SM  H10G13028   1.980   6.822  14.027 -0.4668  0.5483 -0.3835
   9623SM  C11F13029   2.118   6.948  14.135 -0.7222 -0.2026  0.1804
   9623SM  H11F13030   2.129   6.864  14.207  1.3302 -0.5073 -0.4296
   9623SM  H11G13031   2.044   7.010  14.189 -0.7056  0.3856 -0.4533
   9623SM  C12F13032   2.249   7.026  14.120  0.1119 -0.7722 -0.2079
   9623SM  H12F13033   2.249   7.091  14.029 -1.3565 -0.7398 -0.2135
   9623SM  H12G13034   2.339   6.962  14.105  0.3856 -0.0866 -1.7641
   9623SM  C13F13035   2.278   7.119  14.238  0.7547  0.4065  0.0182
   9623SM  H13F13036   2.193   7.188  14.258  1.5555  1.6481 -0.7145
   9623SM  H13G13037   2.369   7.177  14.213  2.3228 -1.4770  1.0380
   9623SM  C14F13038   2.300   7.053  14.371 -0.0849 -0.0168 -0.1413
   9623SM  H14F13039   2.389   6.987  14.378  0.7205  0.7759 -2.2207
   9623SM  H14G13040   2.210   7.000  14.408 -1.8829 -0.3859 -4.4747
   9623SM  C15F13041   2.332   7.160  14.477 -0.3183  0.4319  0.3819
   9623SM  H15F13042   2.381   7.244  14.423 -0.3766 -0.1363 -0.5836
   9623SM  H15G13043   2.400   7.124  14.557 -2.1121  0.6287  2.0558
   9623SM  C16F13044   2.206   7.212  14.554 -0.8456  0.0324  0.0701
   9623SM  H16F13045   2.185   7.129  14.625 -2.1946  0.3006  0.0096
   9623SM  H16G13046   2.129   7.233  14.477 -1.4851 -0.5872  0.5223
   9623SM  C17F13047   2.227   7.345  14.625 -0.4972  0.0675 -0.3460
   9623SM  H17F13048   2.289   7.421  14.573 -0.6717  0.1940 -0.3698
   9623SM  H17G13049   2.286   7.312  14.713  0.9147  0.8537 -0.9631
   9623SM  C18F13050   2.102   7.401  14.691 -0.1899 -0.4526  0.3558
   9623SM  H18F13051   2.024   7.323  14.684  1.4108 -2.3219  2.1398
   9623SM  H18G13052   2.066   7.486  14.629  2.0080  0.6130  0.4546
   9623SM  C19F13053   2.117   7.453  14.833 -0.4551  0.4066  0.3846
   9623SM  H19F13054   2.148   7.374  14.905  1.1488  0.0541 -0.6486
   9623SM  H19G13055   2.019   7.494  14.867 -1.2921 -0.0391 -1.3476
   9623SM  C20F13056   2.221   7.570  14.834 -0.1721 -0.3005 -0.6644
   9623SM  H20F13057   2.229   7.628  14.739  2.7170 -0.2784 -0.4815
   9623SM  H20G13058   2.324   7.531  14.843 -0.2984 -0.4637  0.1973
   9623SM  C21F13059   2.196   7.667  14.949 -0.9209  0.3149  0.3340
   9623SM  H21F13060   2.226   7.619  15.045  2.5544  0.4056 -0.5898
   9623SM  H21G13061   2.087   7.689  14.956 -1.2923 -1.1467 -0.3043
   9623SM  C22F13062   2.277   7.799  14.926  0.7314  0.8401 -0.0410
   9623SM  H22F13063   2.226   7.855  14.845 -0.1552  1.7965  1.1281
   9623SM  H22G13064   2.379   7.773  14.891 -0.1159 -0.5786 -1.6133
   9623SM  C23F13065   2.281   7.886  15.055 -0.1469 -0.1902  0.6799
   9623SM  H23F13066   2.341   7.836  15.134  3.4368 -0.3908 -1.9388
   9623SM  H23G13067   2.175   7.907  15.083  0.3879  0.1759  2.5731
   9623SM  H23H13068   2.326   7.986  15.039  1.5648 -0.9792  0.3653
   9723SM     N13069   2.903   0.484  12.649 -0.5680  0.0648 -0.0520
   9723SM   C1513070   2.805   0.585  12.685  0.5829 -0.5751  0.3137
   9723SM  H15A13071   2.766   0.567  12.784  2.6150 -2.0398  0.9107
   9723SM  H15B13072   2.728   0.586  12.610  1.0197 -4.8543 -0.4414
   9723SM  H15C13073   2.848   0.684  12.699  1.4695 -0.7651 -0.9021
   9723SM   C1413074   3.000   0.446  12.765  0.2904 -0.7385  0.4828
   9723SM  H14A13075   2.944   0.462  12.856  0.9732 -1.1189  0.9821
   9723SM  H14B13076   3.077   0.522  12.765 -0.8022  0.4231 -1.1860
   9723SM  H14C13077   3.038   0.345  12.755 -2.2823 -1.4966 -3.8377
   9723SM   C1313078   2.822   0.363  12.627 -0.0390  0.3474  0.6744
   9723SM  H13A13079   2.877   0.280  12.585 -0.2917 -0.4667  1.8934
   9723SM  H13B13080   2.740   0.386  12.561 -0.8471 -4.4940 -0.4551
   9723SM  H13C13081   2.771   0.335  12.718 -2.1326  1.7131 -0.0103
   9723SM   C1213082   2.975   0.517  12.521 -0.4465  0.4441  0.8858
   9723SM  H12A13083   2.902   0.524  12.441 -0.9790 -0.9704  1.2212
   9723SM  H12B13084   3.034   0.431  12.494 -0.8872  0.7223 -1.1037
   9723SM   C1113085   3.066   0.646  12.516  0.4212  0.4152 -0.2740
   9723SM  H11A13086   2.998   0.732  12.534 -0.1793 -0.1913  0.4575
   9723SM  H11B13087   3.103   0.664  12.413  1.6401 -0.4352  0.0011
   9723SM     P13088   3.307   0.599  12.595  0.1799  0.5234 -0.1348
   9723SM   O1313089   3.313   0.471  12.523  0.2664 -0.3481 -0.0996
   9723SM   O1413090   3.367   0.707  12.519  0.0185  0.7266  0.1856
   9723SM   O1113091   3.377   0.587  12.741  0.2100  0.2940 -0.4964
   9723SM   O1213092   3.159   0.645  12.624 -0.0320 -0.3271  0.2458
   9723SM   C1S13093   3.355   0.687  12.841  0.3820 -0.8703 -0.6400
   9723SM   H1S13094   3.253   0.678  12.884  0.9925  0.8047  1.3010
   9723SM   H1T13095   3.380   0.789  12.806 -0.8511 -0.3830 -0.1495
   9723SM    NF13096   3.393   0.723  13.093  0.0580 -0.0148 -0.6820
   9723SM   HNF13097   3.409   0.820  13.104  3.1471 -0.3926 -1.1254
   9723SM   C2S13098   3.443   0.663  12.965  0.5872  0.4333 -0.2284
   9723SM   H2S13099   3.449   0.555  12.992 -0.1023  0.5069  0.2678
   9723SM   C3S13100   3.588   0.706  12.929  0.2594  0.0903 -0.3361
   9723SM   H3S13101   3.593   0.817  12.925 -0.2046  0.0885 -1.0031
   9723SM    O313102   3.651   0.648  12.815  0.1508  0.0216 -0.4965
   9723SM   HO313103   3.571   0.614  12.775  0.6893  0.2282 -1.8286
   9723SM   C4S13104   3.678   0.680  13.046 -0.2772 -0.9202 -0.0368
   9723SM   H4S13105   3.692   0.774  13.101  1.1870 -0.0859 -1.7199
   9723SM   C5S13106   3.751   0.574  13.079 -0.1056 -0.5703  0.2250
   9723SM   H5S13107   3.752   0.480  13.022 -1.5384  1.1924 -2.9498
   9723SM   C6S13108   3.836   0.569  13.205 -0.4601 -0.8727  0.0565
   9723SM   H6S13109   3.944   0.580  13.181 -0.5940  1.2100  0.2768
   9723SM   H6T13110   3.820   0.472  13.258 -1.1912 -0.5879  0.3716
   9723SM   C7S13111   3.817   0.685  13.306  0.7273 -0.1996 -0.2005
   9723SM   H7S13112   3.817   0.776  13.242  0.7074 -0.5839 -0.7595
   9723SM   H7T13113   3.901   0.684  13.378 -0.2488  1.0656  1.0184
   9723SM   C8S13114   3.679   0.691  13.376 -0.0674  0.0493 -0.7063
   9723SM   H8S13115   3.687   0.622  13.463  0.4667 -0.3660 -1.0793
   9723SM   H8T13116   3.597   0.658  13.309 -0.1239  3.0593 -2.2770
   9723SM   C9S13117   3.632   0.834  13.433 -0.2724  0.2029  0.0611
   9723SM   H9S13118   3.528   0.828  13.469 -0.4557 -0.3069 -0.5309
   9723SM   H9T13119   3.626   0.902  13.345 -0.5796 -0.3809 -0.3770
   9723SM  C10S13120   3.716   0.861  13.561 -0.4635 -0.3056 -0.6109
   9723SM  H10S13121   3.808   0.915  13.532 -0.9108  0.9197  0.1623
   9723SM  H10T13122   3.738   0.769  13.618 -0.1309  1.0866  1.6252
   9723SM  C11S13123   3.655   0.953  13.667  0.5470 -0.7900 -0.4822
   9723SM  H11S13124   3.608   1.043  13.621  0.5639 -0.2132  0.6030
   9723SM  H11T13125   3.739   1.003  13.720 -1.1172  2.7178 -0.9109
   9723SM  C12S13126   3.566   0.877  13.760  0.2313 -0.0246  0.2084
   9723SM  H12S13127   3.634   0.800  13.802  2.6068  1.9687  0.2402
   9723SM  H12T13128   3.485   0.835  13.696  0.2213  1.6643 -0.9551
   9723SM  C13S13129   3.495   0.957  13.871  0.0037 -0.4469  0.1315
   9723SM  H13S13130   3.432   0.881  13.923  0.0538 -1.2271 -0.8972
   9723SM  H13T13131   3.424   1.026  13.820  0.3957  0.4663  0.7862
   9723SM  C14S13132   3.588   1.036  13.968  0.6413  0.0736 -0.1341
   9723SM  H14S13133   3.632   1.120  13.911 -3.6484  0.9975 -2.5122
   9723SM  H14T13134   3.668   0.967  14.001  0.9575 -0.7985 -2.5594
   9723SM  C15S13135   3.512   1.090  14.094  0.2940 -0.0324  0.4770
   9723SM  H15S13136   3.590   1.128  14.164  1.0768  1.6943 -1.2297
   9723SM  H15T13137   3.448   1.018  14.149 -0.8218 -1.6287 -2.6872
   9723SM  C16S13138   3.422   1.209  14.048  0.0255  0.1324  0.2326
   9723SM  H16S13139   3.384   1.191  13.945 -0.6439  0.0782  0.4801
   9723SM  H16T13140   3.479   1.304  14.046 -0.6011  0.5993  2.2099
   9723SM  C17S13141   3.302   1.243  14.144 -0.2176 -0.0827 -0.0494
   9723SM  H17S13142   3.221   1.166  14.145  0.7367 -1.2960 -3.1147
   9723SM  H17T13143   3.260   1.334  14.096 -1.5938 -0.8746 -0.4138
   9723SM  C18S13144   3.346   1.273  14.286 -0.1988 -0.2616 -0.3198
   9723SM  H18S13145   3.255   1.297  14.345  0.4346  1.5210 -0.0132
   9723SM  H18T13146   3.409   1.364  14.291  0.5508 -0.7834 -0.1018
   9723SM  H18U13147   3.398   1.187  14.334  0.4132  1.1290  1.6164
   9723SM   C1F13148   3.285   0.671  13.152  0.4508  0.0548  0.0361
   9723SM    OF13149   3.235   0.573  13.097 -0.2708 -0.1604  0.4471
   9723SM   C2F13150   3.233   0.745  13.273 -0.3103  0.6727  0.2326
   9723SM   H2F13151   3.203   0.850  13.250 -1.1465  0.2454 -0.6971
   9723SM   H2G13152   3.317   0.762  13.344  1.1010 -0.9671 -0.9397
   9723SM   C3F13153   3.110   0.674  13.337  0.3057  0.3893 -0.3385
   9723SM   H3F13154   3.144   0.579  13.383 -2.7810 -2.7292 -3.8251
   9723SM   H3G13155   3.038   0.636  13.262  0.1594  0.9928 -0.5142
   9723SM   C4F13156   3.039   0.759  13.445 -0.2042  0.1374  0.1480
   9723SM   H4F13157   2.949   0.705  13.481 -0.1654 -0.8608 -1.1299
   9723SM   H4G13158   3.009   0.847  13.384  3.1126  1.2163 -0.1362
   9723SM   C5F13159   3.127   0.787  13.567 -0.3113  0.6560  0.1939
   9723SM   H5F13160   3.209   0.856  13.542  0.2749  0.2066  0.8447
   9723SM   H5G13161   3.173   0.691  13.601 -0.5984  0.2925 -0.4289
   9723SM   C6F13162   3.055   0.846  13.687 -0.0047 -0.0674 -0.6260
   9723SM   H6F13163   2.975   0.780  13.727 -1.2435  0.9291 -1.3979
   9723SM   H6G13164   2.998   0.933  13.648 -0.5062  0.2843  0.8269
   9723SM   C7F13165   3.132   0.874  13.823  0.0724 -0.2709 -0.8060
   9723SM   H7F13166   3.214   0.948  13.810 -0.0897 -0.4114 -3.1855
   9723SM   H7G13167   3.162   0.775  13.862 -2.9310 -0.7343  0.5206
   9723SM   C8F13168   3.034   0.945  13.918 -0.1752 -0.3246 -0.2668
   9723SM   H8F13169   2.930   0.928  13.884 -0.0288 -0.0794 -0.8605
   9723SM   H8G13170   3.033   1.056  13.909 -1.4933 -0.4244 -1.6639
   9723SM   C9F13171   3.046   0.905  14.065  0.1066 -0.0569 -0.0848
   9723SM   H9F13172   3.150   0.934  14.093  0.0914  0.2648 -0.3548
   9723SM   H9G13173   3.030   0.795  14.068  2.2178 -0.3923  2.5542
   9723SM  C10F13174   2.944   0.988  14.161 -0.4622 -0.1184  0.0674
   9723SM  H10F13175   2.839   0.974  14.126 -0.1391 -0.0910 -0.9668
   9723SM  H10G13176   2.960   1.096  14.142 -0.2008 -0.2424 -0.4313
   9723SM  C11F13177   2.951   0.951  14.308  0.0892  0.2585  0.3456
   9723SM  H11F13178   2.916   0.847  14.326  1.0437  0.3628  3.1904
   9723SM  H11G13179   2.893   1.021  14.371  2.0552  1.3165  1.0601
   9723SM  C12F13180   3.091   0.947  14.371  0.1047 -0.2693 -0.0025
   9723SM  H12F13181   3.119   1.050  14.402  2.6933 -0.2109 -2.1683
   9723SM  H12G13182   3.169   0.918  14.297 -0.1166  0.5852 -0.5757
   9723SM  C13F13183   3.104   0.848  14.489 -0.7791  0.2597 -0.1243
   9723SM  H13F13184   3.086   0.746  14.450  1.4664  0.7323 -2.6715
   9723SM  H13G13185   3.027   0.878  14.563 -1.1962 -1.4663  0.1911
   9723SM  C14F13186   3.247   0.839  14.551 -0.1122  0.0813  0.2485
   9723SM  H14F13187   3.298   0.938  14.545 -1.2745  0.6861 -0.0704
   9723SM  H14G13188   3.306   0.763  14.496  1.1597  0.5799  0.8821
   9723SM  C15F13189   3.238   0.781  14.691 -0.2661 -0.0846  0.4647
   9723SM  H15F13190   3.222   0.671  14.684  0.4173 -0.0957 -1.4145
   9723SM  H15G13191   3.158   0.837  14.743  1.0795  2.5229 -0.0842
   9723SM  C16F13192   3.367   0.818  14.761 -0.0424  0.0309 -0.8294
   9723SM  H16F13193   3.449   0.835  14.688 -0.9264  0.0301 -1.8608
   9723SM  H16G13194   3.391   0.739  14.835  0.0300  1.9912  1.3635
   9723SM  C17F13195   3.359   0.938  14.858  0.3298  0.2004 -1.0213
   9723SM  H17F13196   3.282   0.929  14.937  3.9242  1.2239  2.9564
   9723SM  H17G13197   3.344   1.031  14.799 -0.2102 -0.1121 -1.3899
   9723SM  C18F13198   3.489   0.959  14.922 -0.0582 -0.3258 -0.7005
   9723SM  H18F13199   3.571   0.958  14.848  0.0087  1.3636 -0.6859
   9723SM  H18G13200   3.503   0.875  14.994 -1.0620 -1.1707 -1.4574
   9723SM  C19F13201   3.493   1.098  15.006  0.3454 -0.3488  0.8349
   9723SM  H19F13202   3.404   1.105  15.072  0.0268  0.3612  0.3435
   9723SM  H19G13203   3.469   1.169  14.924 -0.7399 -1.9074 -0.2676
   9723SM  C20F13204   3.622   1.121  15.085  0.5376 -0.0084  0.0091
   9723SM  H20F13205   3.709   1.128  15.016  1.9648  1.5153  1.8598
   9723SM  H20G13206   3.634   1.034  15.153 -1.7991 -1.3292 -1.1554
   9723SM  C21F13207   3.614   1.252  15.171 -0.4810 -0.2116 -0.2680
   9723SM  H21F13208   3.565   1.335  15.116  1.2846  0.7023 -0.5194
   9723SM  H21G13209   3.716   1.276  15.208 -0.3135 -1.2269 -0.0243
   9723SM  C22F13210   3.527   1.236  15.299 -0.1557  0.5775 -0.0469
   9723SM  H22F13211   3.564   1.152  15.361  2.9583  1.4373 -0.5381
   9723SM  H22G13212   3.424   1.211  15.265  0.4983 -0.9496 -1.0616
   9723SM  C23F13213   3.533   1.363  15.384  1.0683 -0.1589 -0.0596
   9723SM  H23F13214   3.636   1.403  15.395  1.4124 -0.7774 -0.8724
   9723SM  H23G13215   3.484   1.357  15.483  0.9004  2.2664  0.0671
   9723SM  H23H13216   3.478   1.439  15.324  0.5247 -0.7677 -0.3503
   9823SM     N13217   0.033   0.757  12.077  0.4769  0.2686  0.3180
   9823SM   C1513218   0.177   0.744  12.047  0.2619 -0.0162  0.1373
   9823SM  H15A13219   0.218   0.843  12.030  0.2682 -0.0651 -0.1309
   9823SM  H15B13220   0.190   0.673  11.967 -2.1221 -0.3662  0.0170
   9823SM  H15C13221   0.233   0.710  12.133  0.3540 -0.5984 -0.1486
   9823SM   C1413222  -0.032   0.826  11.963 -0.4481  0.1507 -0.9877
   9823SM  H14A13223  -0.040   0.766  11.873 -0.5090 -1.3884  0.0222
   9823SM  H14B13224   0.021   0.916  11.937 -0.4953  0.7952  0.9861
   9823SM  H14C13225  -0.129   0.867  11.984 -0.2318  0.1694  0.0043
   9823SM   C1313226  -0.029   0.625  12.085 -0.0744 -0.3215  0.4115
   9823SM  H13A13227  -0.132   0.635  12.117 -0.7831  0.3190 -1.8706
   9823SM  H13B13228   0.021   0.565  12.159  1.4397  0.1607 -0.1840
   9823SM  H13C13229  -0.029   0.577  11.988 -1.5720  2.1198 -0.8847
   9823SM   C1213230   0.008   0.838  12.207  0.0464  0.0923  0.2918
   9823SM  H12A13231  -0.098   0.853  12.222  0.0633 -0.7553  1.4328
   9823SM  H12B13232   0.047   0.939  12.203  0.1708  0.0214 -0.2718
   9823SM   C1113233   0.065   0.768  12.332 -0.2195  0.3817 -0.2161
   9823SM  H11A13234   0.059   0.657  12.322 -0.2120  0.5035 -1.8981
   9823SM  H11B13235   0.016   0.804  12.424 -4.2916 -0.3993 -1.8568
   9823SM     P13236   0.269   0.942  12.372 -0.1941 -0.1545  0.1696
   9823SM   O1313237   0.415   0.925  12.398 -0.3543  0.3682  0.3484
   9823SM   O1413238   0.229   1.047  12.278 -0.1397  0.2608 -0.0031
   9823SM   O1113239   0.201   0.981  12.513  0.3484 -0.5902  0.2105
   9823SM   O1213240   0.198   0.803  12.330  0.6091 -0.2890 -0.2612
   9823SM   C1S13241   0.235   0.924  12.636  0.0745 -0.6611  0.0089
   9823SM   H1S13242   0.333   0.971  12.662  0.3291  1.1899 -3.5852
   9823SM   H1T13243   0.237   0.813  12.634 -1.0800 -0.6832 -1.3787
   9823SM    NF13244   0.191   0.890  12.875 -0.4567  0.5065  0.0374
   9823SM   HNF13245   0.137   0.809  12.895 -0.0824  0.6239  1.6449
   9823SM   C2S13246   0.139   0.959  12.758 -0.4042  1.1393 -0.1323
   9823SM   H2S13247   0.141   1.069  12.771  3.2786  1.8918 -4.4338
   9823SM   C3S13248  -0.003   0.909  12.722 -0.1719 -0.6583  0.2052
   9823SM   H3S13249   0.006   0.807  12.679  1.8363 -0.3386 -0.2465
   9823SM    O313250  -0.056   0.986  12.617 -0.3449  0.2545 -0.7912
   9823SM   HO313251   0.023   0.982  12.563  0.3775 -0.3635  0.2854
   9823SM   C4S13252  -0.089   0.926  12.846 -0.7271  0.1992  1.2177
   9823SM   H4S13253  -0.083   1.028  12.888 -0.8862  0.7238  0.0245
   9823SM   C5S13254  -0.166   0.831  12.904 -0.1035 -0.2346  0.1195
   9823SM   H5S13255  -0.179   0.728  12.869  2.0652  0.0335 -1.6710
   9823SM   C6S13256  -0.257   0.856  13.024 -0.1540  0.3854  0.0259
   9823SM   H6S13257  -0.220   0.799  13.112 -2.9251  1.1778  1.8281
   9823SM   H6T13258  -0.357   0.815  12.995  0.4098  0.6491 -2.4766
   9823SM   C7S13259  -0.283   1.002  13.072  0.2958 -0.2498 -0.6540
   9823SM   H7S13260  -0.320   1.072  12.994 -0.3806  1.1689  0.8944
   9823SM   H7T13261  -0.193   1.029  13.131 -0.9417  0.0747  1.1504
   9823SM   C8S13262  -0.392   1.007  13.183  0.4545 -0.3249 -0.2654
   9823SM   H8S13263  -0.386   0.915  13.245  1.9941  1.0482  1.7881
   9823SM   H8T13264  -0.499   1.003  13.154  0.0818 -1.2103  1.1086
   9823SM   C9S13265  -0.380   1.125  13.278 -0.3043  0.2103 -0.1363
   9823SM   H9S13266  -0.415   1.215  13.223 -2.2376 -1.5792 -2.0547
   9823SM   H9T13267  -0.279   1.148  13.318 -0.3571  0.0583  0.0876
   9823SM  C10S13268  -0.475   1.106  13.399  0.0067  0.5340 -0.5686
   9823SM  H10S13269  -0.576   1.104  13.352  0.2410 -3.4070 -1.2679
   9823SM  H10T13270  -0.469   1.194  13.467 -0.9882  0.1975 -0.0225
   9823SM  C11S13271  -0.468   0.982  13.491 -0.1659 -1.1244  0.3861
   9823SM  H11S13272  -0.365   0.987  13.534 -0.9053  0.2711  2.1211
   9823SM  H11T13273  -0.482   0.890  13.431 -2.9427 -2.5834  3.0342
   9823SM  C12S13274  -0.561   0.972  13.615 -0.8684  0.1295  0.3487
   9823SM  H12S13275  -0.668   0.949  13.593 -1.6539  3.9911 -0.5245
   9823SM  H12T13276  -0.578   1.078  13.641  0.3476  1.0092 -2.1518
   9823SM  C13S13277  -0.506   0.891  13.724  1.0857  0.5809  0.2596
   9823SM  H13S13278  -0.397   0.911  13.728  1.2813 -0.3415 -0.0386
   9823SM  H13T13279  -0.503   0.780  13.715 -2.0655  0.5026 -1.2807
   9823SM  C14S13280  -0.570   0.926  13.856 -0.7877 -0.2324 -0.1980
   9823SM  H14S13281  -0.547   0.842  13.924  0.9266  1.6866  1.7408
   9823SM  H14T13282  -0.679   0.937  13.839 -0.5516  2.6685 -0.2651
   9823SM  C15S13283  -0.520   1.054  13.917 -0.5407  0.1639  0.4408
   9823SM  H15S13284  -0.512   1.143  13.851  0.2098  1.7943  2.5821
   9823SM  H15T13285  -0.414   1.028  13.940 -0.7851 -0.9679  0.3435
   9823SM  C16S13286  -0.581   1.098  14.048  0.3174  0.0722 -0.6918
   9823SM  H16S13287  -0.591   1.010  14.114 -3.6916  2.1669  1.9222
   9823SM  H16T13288  -0.677   1.154  14.042 -0.5042 -1.2162  0.1675
   9823SM  C17S13289  -0.484   1.188  14.130  0.4690 -0.3128  0.1062
   9823SM  H17S13290  -0.465   1.279  14.068  0.5330 -0.1186  0.4095
   9823SM  H17T13291  -0.383   1.141  14.126  1.6241  1.9891 -0.0421
   9823SM  C18S13292  -0.515   1.229  14.276  1.3007 -0.1752  0.0874
   9823SM  H18S13293  -0.613   1.281  14.284  2.1292  1.2819  1.0314
   9823SM  H18T13294  -0.431   1.296  14.305  0.5470  0.0604  1.8369
   9823SM  H18U13295  -0.524   1.142  14.345 -1.7537  0.3396  0.4616
   9823SM   C1F13296   0.283   0.943  12.959 -0.0470 -0.1254 -0.6350
   9823SM    OF13297   0.337   1.049  12.933 -0.1050 -0.1988 -0.3689
   9823SM   C2F13298   0.335   0.865  13.076 -0.4522  0.0261 -0.4260
   9823SM   H2F13299   0.446   0.862  13.067 -0.4878  0.3236 -0.9935
   9823SM   H2G13300   0.297   0.763  13.053 -0.0818 -0.0886 -0.5425
   9823SM   C3F13301   0.276   0.916  13.214  0.2541  0.6666 -0.0925
   9823SM   H3F13302   0.291   1.026  13.207  1.7711  0.6013  1.4741
   9823SM   H3G13303   0.338   0.888  13.302  2.0848  0.3726 -1.4155
   9823SM   C4F13304   0.130   0.867  13.233  0.1332  0.0666 -0.3827
   9823SM   H4F13305   0.144   0.765  13.275 -0.7946  0.3483  0.6578
   9823SM   H4G13306   0.078   0.855  13.136 -1.3014  0.8919  0.2468
   9823SM   C5F13307   0.041   0.958  13.325 -0.5764 -0.0282  0.1580
   9823SM   H5F13308  -0.059   0.912  13.336 -0.6559  0.2420  0.5877
   9823SM   H5G13309   0.024   1.057  13.278  2.2022  0.4579  0.0066
   9823SM   C6F13310   0.105   0.963  13.463  0.6886 -0.9685  0.6692
   9823SM   H6F13311   0.188   1.036  13.473  0.4285 -0.8541  2.3936
   9823SM   H6G13312   0.147   0.863  13.488  1.3640 -0.5737  1.1433
   9823SM   C7F13313   0.017   0.995  13.582  0.5068 -0.9046 -0.5665
   9823SM   H7F13314   0.073   0.993  13.678  0.1752 -2.2685 -0.3736
   9823SM   H7G13315  -0.062   0.916  13.582  1.2138 -1.6228 -0.2555
   9823SM   C8F13316  -0.029   1.144  13.583  0.1518  1.0902 -0.6442
   9823SM   H8F13317  -0.017   1.181  13.480  0.8678 -1.5350 -1.5952
   9823SM   H8G13318   0.040   1.208  13.643 -0.2523  0.5733  0.4075
   9823SM   C9F13319  -0.176   1.154  13.630 -0.0888  0.4139  0.4693
   9823SM   H9F13320  -0.209   1.048  13.632  2.5418 -0.6101 -2.1144
   9823SM   H9G13321  -0.230   1.218  13.558  0.7240  1.7268  0.9885
   9823SM  C10F13322  -0.193   1.195  13.770 -0.3399 -0.5900 -0.0431
   9823SM  H10F13323  -0.134   1.123  13.831  1.0291  0.3964 -0.1398
   9823SM  H10G13324  -0.300   1.173  13.786 -0.7959  1.1435 -0.4976
   9823SM  C11F13325  -0.160   1.337  13.820 -0.1467  0.3411 -0.0491
   9823SM  H11F13326  -0.211   1.402  13.746  0.1297  1.2904  0.5723
   9823SM  H11G13327  -0.051   1.358  13.813  0.2894 -1.0799  1.8311
   9823SM  C12F13328  -0.204   1.365  13.962  1.1322  0.2840  0.5700
   9823SM  H12F13329  -0.170   1.286  14.033  0.7249 -0.9022 -0.5237
   9823SM  H12G13330  -0.314   1.375  13.976  0.3862 -1.4644 -2.9701
   9823SM  C13F13331  -0.135   1.490  14.030  0.0835  0.0753  0.2861
   9823SM  H13F13332  -0.183   1.584  13.993  1.4747  0.4305 -0.6884
   9823SM  H13G13333  -0.028   1.492  13.999 -0.6949  2.5410 -2.8536
   9823SM  C14F13334  -0.156   1.475  14.179 -0.1347 -0.5855 -0.5328
   9823SM  H14F13335  -0.092   1.391  14.215  0.5334  0.9061  2.0287
   9823SM  H14G13336  -0.262   1.449  14.196  0.3016 -1.2670  1.3872
   9823SM  C15F13337  -0.130   1.609  14.245  0.0712  0.7395 -0.6183
   9823SM  H15F13338  -0.220   1.672  14.227 -0.2395  0.5062  0.0931
   9823SM  H15G13339  -0.048   1.663  14.193 -1.4191  2.7384 -0.9839
   9823SM  C16F13340  -0.105   1.604  14.399 -0.2344 -0.0104 -0.0843
   9823SM  H16F13341  -0.076   1.706  14.432  0.4746 -0.3032  0.2197
   9823SM  H16G13342  -0.021   1.531  14.402 -0.5297 -0.4040 -1.1052
   9823SM  C17F13343  -0.233   1.550  14.471  0.1010 -0.2372 -0.1962
   9823SM  H17F13344  -0.264   1.451  14.432  0.6292 -0.4469 -0.0970
   9823SM  H17G13345  -0.309   1.622  14.436 -0.1136 -0.5454 -0.3732
   9823SM  C18F13346  -0.209   1.537  14.623 -0.0770  0.1516 -0.6018
   9823SM  H18F13347  -0.179   1.633  14.671  0.9171 -1.3806  2.1038
   9823SM  H18G13348  -0.119   1.474  14.640  0.2902  0.5997 -0.8434
   9823SM  C19F13349  -0.324   1.464  14.698  0.4301 -0.2044 -0.4625
   9823SM  H19F13350  -0.287   1.419  14.793  0.2521  0.5813 -0.0140
   9823SM  H19G13351  -0.367   1.381  14.637  0.4315 -0.2200 -0.4420
   9823SM  C20F13352  -0.433   1.565  14.739  0.3640  0.5965  0.9304
   9823SM  H20F13353  -0.464   1.605  14.640  2.4768 -0.5965 -0.2867
   9823SM  H20G13354  -0.393   1.652  14.795  2.5852 -1.2744  2.4763
   9823SM  C21F13355  -0.544   1.493  14.821  0.1436 -0.7818 -0.4859
   9823SM  H21F13356  -0.500   1.445  14.911 -0.8529  1.1926  1.1335
   9823SM  H21G13357  -0.585   1.418  14.751  0.9419 -1.1166 -0.6062
   9823SM  C22F13358  -0.640   1.599  14.877 -0.0225  0.0541 -0.2995
   9823SM  H22F13359  -0.680   1.640  14.781 -0.4376 -1.3799 -0.7710
   9823SM  H22G13360  -0.593   1.685  14.928  0.2359 -0.8833  1.1026
   9823SM  C23F13361  -0.760   1.541  14.957 -0.6326 -0.1021 -0.4555
   9823SM  H23F13362  -0.852   1.603  14.951 -1.0213 -0.3209  2.0229
   9823SM  H23G13363  -0.738   1.540  15.066 -0.9888 -1.5896 -0.3780
   9823SM  H23H13364  -0.788   1.438  14.927  0.5942 -0.7089  0.4027
   9923SM     N13365   0.094   7.139  12.332 -0.0688 -0.1099  0.6039
   9923SM   C1513366   0.101   7.025  12.231 -0.1078 -0.7356  0.4799
   9923SM  H15A13367   0.201   7.031  12.190  0.0060 -0.0745  0.8439
   9923SM  H15B13368   0.035   7.045  12.148  1.7450 -1.3874 -1.2459
   9923SM  H15C13369   0.076   6.930  12.276 -0.0957 -1.0516 -0.1622
   9923SM   C1413370   0.149   7.259  12.274 -0.3257 -0.6337  0.8897
   9923SM  H14A13371   0.256   7.244  12.265  0.0718  0.8190  2.5324
   9923SM  H14B13372   0.141   7.340  12.345  1.1170 -1.6052  2.2397
   9923SM  H14C13373   0.120   7.267  12.170  1.2116 -0.7744  0.4249
   9923SM   C1313374  -0.054   7.154  12.357  0.3417  0.1128  0.1864
   9923SM  H13A13375  -0.116   7.157  12.269 -2.8009 -1.0628  2.1820
   9923SM  H13B13376  -0.084   7.231  12.427  0.4277 -0.2375  0.6100
   9923SM  H13C13377  -0.092   7.066  12.407  1.6977 -0.9987 -0.6663
   9923SM   C1213378   0.164   7.090  12.462  0.2780  0.7314  0.4783
   9923SM  H12A13379   0.262   7.052  12.438 -0.1337  0.2662 -0.4936
   9923SM  H12B13380   0.107   7.005  12.495 -0.9738  1.4173  0.1564
   9923SM   C1113381   0.193   7.196  12.573 -0.2990 -0.0955 -0.2071
   9923SM  H11A13382   0.235   7.138  12.658  0.1236 -1.3140 -1.2216
   9923SM  H11B13383   0.099   7.238  12.614  0.4301  0.8337  0.5638
   9923SM     P13384   0.434   7.278  12.510  0.0645 -0.1084 -0.0294
   9923SM   O1313385   0.452   7.206  12.383  0.1535  0.7330 -0.2775
   9923SM   O1413386   0.496   7.410  12.520  0.8078  0.2486 -0.1630
   9923SM   O1113387   0.483   7.184  12.632  1.0533 -0.0569 -0.2298
   9923SM   O1213388   0.280   7.304  12.538  0.0361 -0.3398  0.5803
   9923SM   C1S13389   0.501   7.248  12.758  0.4157 -0.1790  0.5620
   9923SM   H1S13390   0.403   7.282  12.798  0.3147 -0.8266  0.8744
   9923SM   H1T13391   0.567   7.338  12.753 -0.3233  0.3359 -0.6663
   9923SM    NF13392   0.507   7.185  12.998  0.1759 -0.4849 -0.0202
   9923SM   HNF13393   0.584   7.226  13.045  0.1802 -1.9293  1.3304
   9923SM   C2S13394   0.535   7.141  12.861 -0.2367  0.6657 -0.7326
   9923SM   H2S13395   0.472   7.052  12.839  1.1868 -0.5464 -0.0495
   9923SM   C3S13396   0.681   7.098  12.845 -0.1662  0.2085  0.1789
   9923SM   H3S13397   0.747   7.178  12.885 -0.4526  1.0060 -0.9115
   9923SM    O313398   0.733   7.080  12.712 -0.0242  0.1654 -0.5898
   9923SM   HO313399   0.658   7.099  12.654 -2.6773 -1.6670  1.9902
   9923SM   C4S13400   0.692   6.963  12.916  0.7373  0.0497 -0.2984
   9923SM   H4S13401   0.615   6.895  12.878  0.4416  0.8326 -1.1307
   9923SM   C5S13402   0.776   6.933  13.017 -0.6210  0.0621 -0.0724
   9923SM   H5S13403   0.853   7.004  13.050  1.8700 -1.9000 -1.3461
   9923SM   C6S13404   0.794   6.798  13.086 -0.0536  0.5469 -0.2757
   9923SM   H6S13405   0.898   6.760  13.085 -0.2533 -0.0240  0.0310
   9923SM   H6T13406   0.746   6.720  13.024  0.8001  0.0801 -0.3580
   9923SM   C7S13407   0.719   6.788  13.221  0.1617  0.3828 -0.3750
   9923SM   H7S13408   0.775   6.850  13.295 -1.2065 -0.3525  1.3579
   9923SM   H7T13409   0.711   6.684  13.257  0.3622  0.6474  0.4479
   9923SM   C8S13410   0.572   6.841  13.211 -0.4355  1.0238 -0.4946
   9923SM   H8S13411   0.524   6.779  13.132  0.2664 -1.8452  1.1592
   9923SM   H8T13412   0.575   6.947  13.177 -0.2329  1.0857 -0.2830
   9923SM   C9S13413   0.495   6.840  13.341 -0.0334  0.1455  0.1801
   9923SM   H9S13414   0.490   6.737  13.382 -3.8775  0.5297  1.0410
   9923SM   H9T13415   0.388   6.863  13.320 -1.1320 -3.9601  0.2648
   9923SM  C10S13416   0.539   6.930  13.452 -0.6575 -0.0291  0.5032
   9923SM  H10S13417   0.570   7.031  13.419 -0.4741  0.0080  0.7834
   9923SM  H10T13418   0.632   6.881  13.488  0.5275  1.5313 -0.3061
   9923SM  C11S13419   0.440   6.940  13.571  0.6752  0.0905  0.2624
   9923SM  H11S13420   0.424   6.833  13.595 -0.1312  0.0863 -0.2570
   9923SM  H11T13421   0.340   6.980  13.545  0.8972  0.5897  0.1716
   9923SM  C12S13422   0.479   7.026  13.690  0.1727  0.6913  1.1995
   9923SM  H12S13423   0.396   7.018  13.764  1.2779  0.1623  2.4151
   9923SM  H12T13424   0.487   7.128  13.645 -1.5713  0.3445  0.0037
   9923SM  C13S13425   0.610   6.976  13.743  0.1625 -0.0027 -0.3860
   9923SM  H13S13426   0.653   7.072  13.778 -0.7527  0.0338  0.6956
   9923SM  H13T13427   0.688   6.934  13.676  0.1119  1.4173 -1.3658
   9923SM  C14S13428   0.586   6.887  13.870 -0.3194  0.3800  0.4446
   9923SM  H14S13429   0.497   6.925  13.925  0.8135  0.6140  2.1792
   9923SM  H14T13430   0.678   6.899  13.930  1.1642 -1.1868 -1.4167
   9923SM  C15S13431   0.553   6.749  13.840  0.4104  0.2975 -0.3011
   9923SM  H15S13432   0.616   6.713  13.756 -1.6270 -0.2918 -1.6596
   9923SM  H15T13433   0.451   6.757  13.796 -0.1267  0.3287  0.9020
   9923SM  C16S13434   0.561   6.649  13.956 -0.5871  0.1016  0.4810
   9923SM  H16S13435   0.521   6.549  13.928 -0.8349  0.3551 -0.0790
   9923SM  H16T13436   0.497   6.680  14.041 -2.4230 -1.6009 -0.1987
   9923SM  C17S13437   0.701   6.632  14.021  0.8406 -0.3838  0.6643
   9923SM  H17S13438   0.733   6.727  14.068  1.5483 -1.7264  3.0972
   9923SM  H17T13439   0.777   6.607  13.944 -1.0602 -1.7784 -0.8541
   9923SM  C18S13440   0.700   6.506  14.110 -0.9730  0.3940  0.3395
   9923SM  H18S13441   0.649   6.519  14.208  1.5380  0.9575  1.6549
   9923SM  H18T13442   0.804   6.472  14.123 -1.4430 -0.1135  3.3580
   9923SM  H18U13443   0.652   6.416  14.065  0.1106 -0.8324  1.5706
   9923SM   C1F13444   0.386   7.203  13.051  0.5763 -0.4772 -0.4273
   9923SM    OF13445   0.287   7.162  12.993 -0.0411 -0.4400 -0.5024
   9923SM   C2F13446   0.374   7.264  13.191 -0.1509 -0.0611 -0.1448
   9923SM   H2F13447   0.361   7.373  13.177 -0.1949 -0.2716 -1.9933
   9923SM   H2G13448   0.465   7.244  13.252  0.3346 -0.2163 -0.9018
   9923SM   C3F13449   0.256   7.213  13.275  0.4703  1.1476 -0.2683
   9923SM   H3F13450   0.247   7.102  13.272  2.6337  0.7905  2.3814
   9923SM   H3G13451   0.167   7.246  13.217  1.0392  0.5120 -1.5442
   9923SM   C4F13452   0.251   7.262  13.422 -0.5628  0.0614 -0.2108
   9923SM   H4F13453   0.267   7.371  13.425  0.3707 -0.0152 -1.5572
   9923SM   H4G13454   0.335   7.215  13.478  0.0072  0.3409 -0.8285
   9923SM   C5F13455   0.113   7.229  13.488  0.0435  0.2426 -0.1464
   9923SM   H5F13456   0.088   7.121  13.479 -1.3660  0.5231  0.2192
   9923SM   H5G13457   0.032   7.288  13.441 -0.9983 -0.5580  0.5764
   9923SM   C6F13458   0.115   7.272  13.639  0.5152 -0.0840  0.2227
   9923SM   H6F13459   0.158   7.374  13.646  0.2085 -0.0165  1.6472
   9923SM   H6G13460   0.177   7.203  13.700  1.6754  1.6380  1.0609
   9923SM   C7F13461  -0.031   7.266  13.698 -0.2106 -0.2343  0.9592
   9923SM   H7F13462  -0.050   7.167  13.745  0.8937 -1.1831 -0.4966
   9923SM   H7G13463  -0.103   7.283  13.614  1.1647  1.7616  0.1173
   9923SM   C8F13464  -0.053   7.378  13.803  0.2591  0.2284  0.2924
   9923SM   H8F13465  -0.162   7.383  13.823  0.5036 -0.5612  2.0019
   9923SM   H8G13466  -0.021   7.476  13.761  0.9649  0.2348  0.8214
   9923SM   C9F13467   0.022   7.349  13.931 -0.2471  0.0078 -0.7101
   9923SM   H9F13468   0.132   7.346  13.916 -0.4140  1.1134 -2.3689
   9923SM   H9G13469  -0.007   7.252  13.976 -1.3352  0.3039 -0.7637
   9923SM  C10F13470  -0.014   7.454  14.045 -0.1957  0.0808 -0.7502
   9923SM  H10F13471   0.010   7.555  14.003 -2.6251 -0.0289 -2.6220
   9923SM  H10G13472   0.054   7.450  14.133 -0.6302 -0.0480 -0.4180
   9923SM  C11F13473  -0.160   7.441  14.104 -0.1434  0.5120 -0.6049
   9923SM  H11F13474  -0.235   7.479  14.031 -1.3829  1.1172  0.9201
   9923SM  H11G13475  -0.166   7.525  14.177 -0.9284  0.1544 -0.2466
   9923SM  C12F13476  -0.200   7.310  14.170 -0.1636 -0.5800  0.4901
   9923SM  H12F13477  -0.114   7.250  14.209  0.2179 -1.6925 -1.8708
   9923SM  H12G13478  -0.253   7.246  14.096 -0.8783  1.2171 -0.6125
   9923SM  C13F13479  -0.310   7.340  14.278  0.3757  0.2708 -0.5189
   9923SM  H13F13480  -0.384   7.416  14.245 -1.2487 -0.1852  1.8483
   9923SM  H13G13481  -0.253   7.396  14.355  0.2558  1.2897 -1.1544
   9923SM  C14F13482  -0.378   7.224  14.347  0.5200  0.2241  0.4091
   9923SM  H14F13483  -0.439   7.181  14.264  2.2127 -3.3150  0.8217
   9923SM  H14G13484  -0.451   7.252  14.426 -0.5895  1.6391 -1.0110
   9923SM  C15F13485  -0.290   7.106  14.404 -0.0945  0.4176  0.9066
   9923SM  H15F13486  -0.205   7.097  14.333  0.2443  0.9106  1.2448
   9923SM  H15G13487  -0.347   7.010  14.405  0.2187  0.0618 -2.5543
   9923SM  C16F13488  -0.228   7.140  14.540  0.1816  0.0996 -0.9406
   9923SM  H16F13489  -0.303   7.135  14.623  2.9384 -2.0931  1.6589
   9923SM  H16G13490  -0.171   7.234  14.548  3.0304 -1.4412 -1.7021
   9923SM  C17F13491  -0.125   7.037  14.598  0.0794  0.5614 -0.0404
   9923SM  H17F13492  -0.035   7.045  14.533 -1.2828 -1.2993 -2.3157
   9923SM  H17G13493  -0.161   6.934  14.579 -1.3643  0.3658  3.2022
   9923SM  C18F13494  -0.097   7.067  14.746  0.3339 -0.4130  0.2739
   9923SM  H18F13495  -0.050   6.975  14.785  0.7095 -0.0776  0.6183
   9923SM  H18G13496  -0.188   7.072  14.810  0.5584  0.0911  0.5530
   9923SM  C19F13497  -0.006   7.193  14.777 -0.3406  0.4350 -0.0624
   9923SM  H19F13498  -0.075   7.280  14.786 -0.9906 -0.0696 -0.0681
   9923SM  H19G13499   0.056   7.210  14.686  1.2462 -0.9107  0.7142
   9923SM  C20F13500   0.074   7.176  14.903  0.2728 -0.0395 -0.1800
   9923SM  H20F13501   0.158   7.249  14.911  0.8512 -0.5996 -1.0360
   9923SM  H20G13502   0.128   7.080  14.896  0.5169  0.0570  0.3226
   9923SM  C21F13503  -0.011   7.180  15.029 -0.0623 -0.0047 -0.3998
   9923SM  H21F13504  -0.065   7.084  15.048 -2.3448  0.4603 -3.6888
   9923SM  H21G13505  -0.085   7.263  15.025  0.3382  0.3122 -1.6751
   9923SM  C22F13506   0.078   7.216  15.154 -0.5133 -0.3292 -0.3430
   9923SM  H22F13507   0.121   7.318  15.151 -0.7203 -0.1567  1.2965
   9923SM  H22G13508   0.157   7.138  15.155  3.0025  2.9280 -0.1571
   9923SM  C23F13509   0.008   7.200  15.286  0.6977  0.2129  0.1904
   9923SM  H23F13510  -0.033   7.097  15.285  0.1463  0.3539  2.4729
   9923SM  H23G13511  -0.065   7.283  15.290  1.0751  0.7146 -2.1546
   9923SM  H23H13512   0.069   7.205  15.379 -1.3928  2.8103  1.5579
  10023SM     N13513   7.368   0.151  12.511  0.1760 -0.2648 -0.0641
  10023SM   C1513514   7.299   0.282  12.484  0.0242 -0.0171 -0.6313
  10023SM  H15A13515   7.300   0.351  12.566  0.5838  1.5751 -1.9308
  10023SM  H15B13516   7.193   0.264  12.469 -0.0012  1.2360 -2.1952
  10023SM  H15C13517   7.334   0.349  12.407 -2.1920  2.0940  0.0632
  10023SM   C1413518   7.296   0.054  12.425  0.5948 -0.4528 -0.1713
  10023SM  H14A13519   7.280   0.098  12.327 -1.6838  1.4675  0.9613
  10023SM  H14B13520   7.197   0.041  12.467  0.9083 -1.2871  0.3395
  10023SM  H14C13521   7.355  -0.036  12.410  2.1650  0.2720  1.3538
  10023SM   C1313522   7.512   0.147  12.475 -0.3574 -0.5781 -0.1989
  10023SM  H13A13523   7.527   0.134  12.368 -1.3865 -0.6705 -0.3502
  10023SM  H13B13524   7.558   0.060  12.520 -0.3065 -0.0287  0.8327
  10023SM  H13C13525   7.565   0.227  12.522 -0.9830 -1.2076  1.6570
  10023SM   C1213526   7.356   0.111  12.660  0.2990  0.2410  0.0816
  10023SM  H12A13527   7.255   0.074  12.675  0.6093  0.0631  1.9974
  10023SM  H12B13528   7.363   0.192  12.731  1.9409  0.9321 -0.8157
  10023SM   C1113529   7.449   0.006  12.718 -0.4882  0.2111 -0.2054
  10023SM  H11A13530   7.409  -0.002  12.822 -2.0268  0.3027 -0.7669
  10023SM  H11B13531   7.556   0.034  12.715 -0.5456  0.4062 -3.7180
  10023SM     P13532   7.530  -0.225  12.623  0.0926 -0.0414  0.2038
  10023SM   O1313533   7.465  -0.348  12.577  0.2831 -0.7530 -0.6475
  10023SM   O1413534   7.635  -0.160  12.534  0.6159  0.0212  0.5206
  10023SM   O1113535   7.608  -0.256  12.755  0.2105  0.1741 -0.3650
  10023SM   O1213536   7.419  -0.114  12.656 -0.6369  0.6914 -0.0367
  10023SM   C1S13537   7.529  -0.316  12.868  0.5671  0.2587  0.7238
  10023SM   H1S13538   7.508  -0.422  12.842 -1.5843  0.8548 -0.1438
  10023SM   H1T13539   7.429  -0.271  12.877  0.3899  0.3298 -1.1417
  10023SM    NF13540   7.539  -0.384  13.116  0.2156  0.4496 -0.0802
  10023SM   HNF13541   7.490  -0.333  13.187 -0.8104 -1.8655  0.9972
  10023SM   C2S13542   7.604  -0.318  13.005 -0.2938  0.0396  0.2537
  10023SM   H2S13543   7.700  -0.374  13.000 -1.4192 -2.1925  1.8514
  10023SM   C3S13544   7.631  -0.165  13.045 -0.2642  0.3882  0.4570
  10023SM   H3S13545   7.542  -0.102  13.025 -0.7314 -0.1877  0.6833
  10023SM    O313546   7.724  -0.110  12.955 -0.3918  0.2531  0.0934
  10023SM   HO313547   7.712  -0.166  12.879  1.7616 -0.2882  0.0732
  10023SM   C4S13548   7.684  -0.147  13.188 -0.5583 -0.1321  0.2856
  10023SM   H4S13549   7.778  -0.203  13.202  1.3077  2.7643  0.2798
  10023SM   C5S13550   7.636  -0.071  13.287  0.7922  0.1502  0.5467
  10023SM   H5S13551   7.548  -0.009  13.264  0.6640  0.2727  1.3377
  10023SM   C6S13552   7.700  -0.074  13.420  0.2933 -0.1834 -0.0972
  10023SM   H6S13553   7.783  -0.149  13.418  0.7997  0.3829 -1.1396
  10023SM   H6T13554   7.631  -0.106  13.501 -1.7620 -0.7962 -1.9942
  10023SM   C7S13555   7.742   0.063  13.464  0.0647  0.0261  0.3970
  10023SM   H7S13556   7.657   0.133  13.455  0.7524  0.7841 -0.4781
  10023SM   H7T13557   7.822   0.103  13.397 -0.8391 -0.1916 -0.8453
  10023SM   C8S13558   7.789   0.054  13.607 -0.1487  0.5912 -0.3904
  10023SM   H8S13559   7.845  -0.040  13.626 -2.1497 -0.6735 -0.5137
  10023SM   H8T13560   7.709   0.053  13.685 -1.0605  1.5366 -1.2849
  10023SM   C9S13561   7.875   0.171  13.653 -0.6747 -1.0397  0.3115
  10023SM   H9S13562   7.813   0.259  13.679  0.7573 -0.1239  0.7486
  10023SM   H9T13563   7.942   0.197  13.568 -0.0974  3.3400  1.8795
  10023SM  C10S13564   7.955   0.128  13.770  0.3480 -0.7141 -0.7278
  10023SM  H10S13565   8.027   0.204  13.805 -0.7271 -0.7204  1.6673
  10023SM  H10T13566   8.008   0.032  13.751  0.7935 -0.6173  0.0157
  10023SM  C11S13567   7.867   0.102  13.898 -0.0156  0.1194  0.4103
  10023SM  H11S13568   7.791   0.026  13.872 -0.2996  0.3638  0.5196
  10023SM  H11T13569   7.823   0.203  13.914 -2.3230 -0.5072 -1.4583
  10023SM  C12S13570   7.947   0.050  14.018  0.1727  0.4496  0.0554
  10023SM  H12S13571   8.045   0.103  14.013  0.5244 -0.1877 -0.0387
  10023SM  H12T13572   7.963  -0.060  14.011  2.2449  0.7960 -1.5244
  10023SM  C13S13573   7.876   0.066  14.157  0.1224 -0.4373 -0.2186
  10023SM  H13S13574   7.767   0.047  14.147 -0.1691  0.5229  0.9479
  10023SM  H13T13575   7.880   0.173  14.186 -1.3471 -0.5914  0.6443
  10023SM  C14S13576   7.942  -0.030  14.251 -0.5592  0.2784 -0.4821
  10023SM  H14S13577   8.049  -0.005  14.265 -0.6621 -0.0669  1.0945
  10023SM  H14T13578   7.936  -0.124  14.192 -0.7782 -0.0242  0.0153
  10023SM  C15S13579   7.867  -0.047  14.378 -0.1100 -0.2692  0.6039
  10023SM  H15S13580   7.762  -0.069  14.347  0.8621 -1.0763 -2.4364
  10023SM  H15T13581   7.878   0.046  14.439 -1.4526  1.5026 -1.6830
  10023SM  C16S13582   7.924  -0.165  14.459  0.5905 -0.2990 -0.2308
  10023SM  H16S13583   7.894  -0.152  14.565  2.2678  4.4018 -0.1346
  10023SM  H16T13584   8.035  -0.158  14.460  0.5610  0.1523  0.6313
  10023SM  C17S13585   7.878  -0.302  14.411  0.4478  0.5418 -0.2578
  10023SM  H17S13586   7.944  -0.376  14.462 -0.4757 -1.3238 -1.6748
  10023SM  H17T13587   7.902  -0.324  14.305  5.2507 -0.8656  0.8601
  10023SM  C18S13588   7.725  -0.324  14.426 -0.0121  0.3647  0.9110
  10023SM  H18S13589   7.682  -0.313  14.528 -4.1233 -0.2813 -0.5738
  10023SM  H18T13590   7.698  -0.427  14.395  1.1674  0.1768  0.4487
  10023SM  H18U13591   7.668  -0.270  14.348  1.8636  2.2068  0.7173
  10023SM   C1F13592   7.523  -0.512  13.125 -0.6822  0.1405  0.8270
  10023SM    OF13593   7.589  -0.593  13.057  0.0775 -0.3595  0.3633
  10023SM   C2F13594   7.424  -0.568  13.215  0.5451  0.1597 -0.2381
  10023SM   H2F13595   7.396  -0.674  13.198 -0.5564 -0.1183  2.7308
  10023SM   H2G13596   7.325  -0.517  13.212  0.0059 -0.8105  0.4464
  10023SM   C3F13597   7.479  -0.564  13.362 -0.4048 -0.1728  0.1551
  10023SM   H3F13598   7.517  -0.462  13.385 -1.5636  0.8337 -2.1656
  10023SM   H3G13599   7.558  -0.642  13.374  0.0182  0.2850  0.4084
  10023SM   C4F13600   7.370  -0.606  13.458 -0.4171 -0.1206  0.5177
  10023SM   H4F13601   7.414  -0.644  13.552 -1.8720  0.1696  1.3400
  10023SM   H4G13602   7.305  -0.690  13.423 -1.6135  1.2324 -0.6531
  10023SM   C5F13603   7.269  -0.497  13.491  0.6834  0.3940 -0.8822
  10023SM   H5F13604   7.196  -0.489  13.408 -0.4448  0.7194  0.1009
  10023SM   H5G13605   7.324  -0.401  13.502  1.1593  0.0596 -0.2481
  10023SM   C6F13606   7.193  -0.535  13.627 -0.3425  0.4635  0.5747
  10023SM   H6F13607   7.140  -0.447  13.668 -0.2995 -0.4478  2.7039
  10023SM   H6G13608   7.266  -0.555  13.708  1.8836  2.9368 -0.6806
  10023SM   C7F13609   7.071  -0.634  13.598 -0.9129 -0.5412 -0.0564
  10023SM   H7F13610   7.129  -0.719  13.556  0.8258  0.8676 -0.6440
  10023SM   H7G13611   7.010  -0.594  13.514 -0.3546  2.9680  1.0702
  10023SM   C8F13612   6.991  -0.676  13.718  0.3463  0.0482  0.5445
  10023SM   H8F13613   6.931  -0.769  13.704  2.1751 -1.5890  2.6845
  10023SM   H8G13614   6.917  -0.602  13.755  1.4011  0.7049  1.3844
  10023SM   C9F13615   7.083  -0.706  13.836 -0.6774 -0.0409  0.2036
  10023SM   H9F13616   7.131  -0.614  13.875  2.4993 -1.4658 -0.0194
  10023SM   H9G13617   7.164  -0.777  13.807 -2.8023 -2.1205 -0.9385
  10023SM  C10F13618   7.015  -0.774  13.954  0.2238 -0.6324 -0.0512
  10023SM  H10F13619   7.099  -0.799  14.022  0.4619  1.6378  0.5635
  10023SM  H10G13620   6.976  -0.873  13.920 -0.8767  0.1307 -1.1219
  10023SM  C11F13621   6.909  -0.688  14.026 -0.5010  0.0557  0.2830
  10023SM  H11F13622   6.820  -0.676  13.960 -1.2233 -1.9413  0.7976
  10023SM  H11G13623   6.949  -0.588  14.052 -2.2365  0.3198  2.2056
  10023SM  C12F13624   6.872  -0.751  14.161  0.2259  0.3378 -0.0248
  10023SM  H12F13625   6.785  -0.694  14.200 -1.5751 -2.2479 -0.0014
  10023SM  H12G13626   6.957  -0.734  14.231  0.8560 -2.1008 -0.0963
  10023SM  C13F13627   6.827  -0.900  14.169  0.3564  0.3087  0.0550
  10023SM  H13F13628   6.906  -0.976  14.151  0.2499 -0.2883  1.9241
  10023SM  H13G13629   6.754  -0.918  14.087  1.3608  0.2384 -0.8485
  10023SM  C14F13630   6.742  -0.943  14.293 -0.6661 -0.3673 -0.3078
  10023SM  H14F13631   6.670  -1.021  14.262 -3.1581  2.2195 -1.5079
  10023SM  H14G13632   6.686  -0.849  14.309  2.6669  1.6673  0.4931
  10023SM  C15F13633   6.831  -0.987  14.412 -0.4372  0.0187  0.1898
  10023SM  H15F13634   6.878  -0.893  14.449 -0.7165  0.3986 -0.4187
  10023SM  H15G13635   6.914  -1.050  14.375 -0.8554  0.5504 -1.7539
  10023SM  C16F13636   6.757  -1.049  14.531 -0.3202  0.0753  0.9543
  10023SM  H16F13637   6.714  -1.148  14.504  0.1114  0.3565 -0.8980
  10023SM  H16G13638   6.676  -0.973  14.541 -0.8880 -0.2576 -0.7026
  10023SM  C17F13639   6.826  -1.074  14.666  1.0867  0.8709 -0.0868
  10023SM  H17F13640   6.762  -1.111  14.749  0.2775  1.4250 -0.4514
  10023SM  H17G13641   6.860  -0.973  14.700 -1.5906  2.4649 -1.7915
  10023SM  C18F13642   6.948  -1.164  14.657 -0.0478  0.0913 -0.0550
  10023SM  H18F13643   7.035  -1.122  14.602  1.5516 -1.2476  1.2992
  10023SM  H18G13644   6.920  -1.264  14.617  2.3877  0.0846 -1.9638
  10023SM  C19F13645   7.015  -1.191  14.795  0.1280  0.8543 -0.1116
  10023SM  H19F13646   6.937  -1.194  14.874 -1.2781 -0.0292 -1.4619
  10023SM  H19G13647   7.075  -1.105  14.830  0.6472  0.5377 -0.2096
  10023SM  C20F13648   7.091  -1.322  14.793  0.5161  0.3495  0.5085
  10023SM  H20F13649   7.167  -1.306  14.713 -0.7944 -0.1261 -0.8757
  10023SM  H20G13650   7.026  -1.406  14.761  1.4573 -0.0309 -0.4740
  10023SM  C21F13651   7.170  -1.345  14.927 -0.7682 -0.1825  0.1016
  10023SM  H21F13652   7.207  -1.245  14.959 -1.0297 -0.4254  1.1981
  10023SM  H21G13653   7.261  -1.401  14.897  0.9471  0.7429  3.1403
  10023SM  C22F13654   7.092  -1.413  15.035 -0.0650 -0.4822  0.5101
  10023SM  H22F13655   7.011  -1.347  15.073 -1.5363 -1.2370 -1.1947
  10023SM  H22G13656   7.163  -1.430  15.119  0.2444  0.5898  0.4867
  10023SM  C23F13657   7.032  -1.549  14.992  0.4913 -0.1915  0.7497
  10023SM  H23F13658   6.990  -1.604  15.080 -0.7869 -1.5077 -0.6304
  10023SM  H23G13659   7.108  -1.614  14.944 -1.2235 -1.3662 -0.4919
  10023SM  H23H13660   6.954  -1.535  14.914  1.0014 -2.2795 -0.2181
  101CHL1    C313661   3.583   3.711  16.652  0.4474  0.0825  0.2554
  101CHL1    H313662   3.515   3.624  16.639 -0.8156  0.9111  1.0740
  101CHL1    O313663   3.581   3.763  16.779 -0.0025  0.0542 -0.7636
  101CHL1   H3'13664   3.609   3.854  16.770 -0.5767  0.2971 -0.1350
  101CHL1    C413665   3.726   3.680  16.613 -0.4264 -0.9651 -0.5544
  101CHL1   H4A13666   3.799   3.760  16.638 -1.4306 -0.0964 -0.3278
  101CHL1   H4B13667   3.748   3.590  16.673  1.1117 -0.5420 -0.4404
  101CHL1    C513668   3.743   3.647  16.461 -0.0274 -0.0597 -0.0196
  101CHL1    C613669   3.803   3.535  16.430 -0.5596 -0.0607 -0.0668
  101CHL1    H613670   3.850   3.472  16.507 -0.9234  0.3928  0.5293
  101CHL1    C713671   3.830   3.493  16.286  0.3605 -0.1077  0.3902
  101CHL1   H7A13672   3.932   3.459  16.258 -0.1878 -0.8009 -0.8731
  101CHL1   H7B13673   3.775   3.398  16.267  0.7229  0.0304 -1.5446
  101CHL1    C813674   3.793   3.595  16.180  0.0185 -0.8301 -0.1066
  101CHL1    H813675   3.860   3.684  16.179 -0.7028 -0.2792 -0.6235
  101CHL1   C1413676   3.769   3.535  16.045 -0.3635  0.0573 -0.4210
  101CHL1   H1413677   3.672   3.481  16.050 -0.2533 -0.0752  0.4494
  101CHL1   C1513678   3.866   3.424  15.991  0.0781  0.1640  0.8006
  101CHL1  H15A13679   3.967   3.469  16.008 -0.1976  1.1558 -0.0823
  101CHL1  H15B13680   3.855   3.330  16.049 -0.0219  0.9889  2.1673
  101CHL1   C1613681   3.824   3.425  15.845 -0.2587 -0.0779  0.4367
  101CHL1  H16A13682   3.914   3.432  15.779  0.6001 -3.4009  1.0750
  101CHL1  H16B13683   3.778   3.326  15.827 -0.4138  0.0864 -0.1182
  101CHL1   C1713684   3.730   3.543  15.813  0.3125  0.3284 -0.2173
  101CHL1   H1713685   3.634   3.490  15.827  1.6944 -2.1349  0.5019
  101CHL1   C1313686   3.737   3.635  15.933 -0.2945  0.7275 -0.0237
  101CHL1   C1813687   3.856   3.728  15.915 -0.0465  0.1699  0.6136
  101CHL1  H18A13688   3.870   3.785  16.010  0.8311 -0.9463  1.1664
  101CHL1  H18B13689   3.946   3.664  15.906 -1.0940 -1.4831  1.4419
  101CHL1  H18C13690   3.842   3.798  15.829  2.7044  1.3878  1.0666
  101CHL1   C1213691   3.598   3.699  15.973 -0.3001  0.5371 -0.4110
  101CHL1  H12A13692   3.567   3.772  15.896 -2.0908 -3.1735 -3.5202
  101CHL1  H12B13693   3.512   3.630  15.975 -0.3470  0.5452 -1.5553
  101CHL1   C1113694   3.605   3.769  16.118  0.6626  0.0731 -0.3472
  101CHL1  H11A13695   3.663   3.863  16.106  0.3179  0.7702  2.7214
  101CHL1  H11B13696   3.501   3.801  16.140  0.7232 -1.1215  1.9853
  101CHL1    C913697   3.663   3.671  16.222  0.2557 -0.2879 -0.4291
  101CHL1    H913698   3.594   3.586  16.240  0.9794 -1.0735 -1.2426
  101CHL1   C1013699   3.674   3.738  16.361 -0.5176  0.4189  0.5772
  101CHL1   C1913700   3.750   3.873  16.346 -0.0340  0.5248 -0.0569
  101CHL1  H19A13701   3.776   3.922  16.442 -0.1346 -1.9887  1.3175
  101CHL1  H19B13702   3.845   3.861  16.290 -0.3466  1.7785 -0.8903
  101CHL1  H19C13703   3.694   3.944  16.282  1.2656  2.5209  0.9168
  101CHL1    C113704   3.529   3.764  16.415  0.3739 -0.0142 -0.3094
  101CHL1   H1A13705   3.469   3.838  16.358  0.2323  0.7388  0.7937
  101CHL1   H1B13706   3.468   3.673  16.395 -2.3484  2.2156 -3.3059
  101CHL1    C213707   3.527   3.821  16.561  0.0090 -0.3926 -0.0328
  101CHL1   H2A13708   3.422   3.844  16.586  0.3894  3.5725 -1.3479
  101CHL1   H2B13709   3.568   3.924  16.568 -3.2943  1.0817 -0.7725
  101CHL1   C2013710   3.737   3.599  15.672 -0.5761 -0.4495  0.2906
  101CHL1   H2013711   3.839   3.639  15.649 -0.8604  1.0105  1.3553
  101CHL1   C2113712   3.637   3.712  15.643 -0.7441  0.3184  0.1541
  101CHL1  H21A13713   3.536   3.670  15.663 -0.1475  0.0437  3.0224
  101CHL1  H21B13714   3.631   3.749  15.539 -0.1608 -2.4916 -0.9795
  101CHL1  H21C13715   3.638   3.798  15.714 -0.9348  0.1058  0.4149
  101CHL1   C2213716   3.729   3.499  15.560 -0.0130  0.4388  0.4379
  101CHL1  H22A13717   3.733   3.555  15.463  2.0931 -1.1699 -0.4816
  101CHL1  H22B13718   3.823   3.439  15.560 -1.6843 -2.3372  0.0456
  101CHL1   C2313719   3.609   3.407  15.574 -0.0496  0.1140  0.1824
  101CHL1  H23A13720   3.619   3.351  15.670 -0.4867  0.4753  0.4487
  101CHL1  H23B13721   3.512   3.461  15.562 -0.2764 -0.6052 -1.3541
  101CHL1   C2413722   3.616   3.308  15.459 -0.1921 -0.3621  0.1246
  101CHL1  H24A13723   3.621   3.353  15.357  0.6874 -1.2891 -0.2600
  101CHL1  H24B13724   3.713   3.254  15.464 -0.3018 -0.7080 -1.0216
  101CHL1   C2513725   3.500   3.214  15.462  0.2882 -0.7549  0.4855
  101CHL1   H2513726   3.463   3.211  15.567 -0.5832  0.4922  0.2318
  101CHL1   C2613727   3.382   3.259  15.369 -0.5449 -0.1835 -0.3147
  101CHL1  H26A13728   3.330   3.355  15.387 -2.5902 -0.8534 -2.2334
  101CHL1  H26B13729   3.412   3.255  15.262 -1.2391 -1.1446 -0.4920
  101CHL1  H26C13730   3.302   3.186  15.391 -0.7365 -0.0928 -0.7011
  101CHL1   C2713731   3.547   3.075  15.436 -0.2451 -0.0755 -0.1435
  101CHL1  H27A13732   3.602   3.061  15.340 -1.6576  1.9638 -1.3454
  101CHL1  H27B13733   3.611   3.034  15.517 -0.5296 -0.0550  0.0936
  101CHL1  H27C13734   3.463   3.002  15.438  0.5239 -0.9418  1.1443
  102CHL1    C313735   2.529   3.653  16.673 -0.1213 -0.3307  0.0103
  102CHL1    H313736   2.482   3.554  16.656  0.1530 -0.0079 -3.5047
  102CHL1    O313737   2.533   3.675  16.812  0.0571  0.0506 -0.0916
  102CHL1   H3'13738   2.498   3.762  16.832  1.1832  0.5368 -0.1920
  102CHL1    C413739   2.678   3.652  16.624 -0.7692  0.6202 -0.2185
  102CHL1   H4A13740   2.723   3.746  16.660 -0.2921  0.9441 -1.6109
  102CHL1   H4B13741   2.737   3.574  16.677 -0.6753  2.0588  1.9141
  102CHL1    C513742   2.683   3.630  16.470 -0.5749  0.3657 -0.3376
  102CHL1    C613743   2.761   3.537  16.415  0.1085  0.1232 -0.7639
  102CHL1    H613744   2.834   3.490  16.483 -0.4308 -0.7584 -0.7893
  102CHL1    C713745   2.779   3.509  16.272 -0.1648  0.2996  0.1989
  102CHL1   H7A13746   2.888   3.494  16.256  0.5930  3.8198  1.2004
  102CHL1   H7B13747   2.738   3.410  16.240  1.7976 -1.0167  1.5429
  102CHL1    C813748   2.719   3.621  16.186  0.1558  0.0174  0.1189
  102CHL1    H813749   2.797   3.701  16.181 -0.2987  0.5656  1.3767
  102CHL1   C1413750   2.714   3.554  16.040 -0.0890 -0.5719 -0.7098
  102CHL1   H1413751   2.649   3.466  16.058  0.5856 -0.9266  0.0913
  102CHL1   C1513752   2.844   3.501  15.979  1.2551 -0.5043 -0.0775
  102CHL1  H15A13753   2.927   3.574  15.971  2.2809 -1.6263  0.0415
  102CHL1  H15B13754   2.893   3.415  16.030 -0.2101 -0.7736  0.9526
  102CHL1   C1613755   2.801   3.474  15.836 -0.1705 -0.1807  0.1855
  102CHL1  H16A13756   2.868   3.535  15.772 -2.5260  2.9147  0.4157
  102CHL1  H16B13757   2.800   3.364  15.823 -1.7237 -0.1094 -0.4853
  102CHL1   C1713758   2.657   3.542  15.814 -0.3699  0.3059 -0.6608
  102CHL1   H1713759   2.591   3.455  15.835 -1.1289  0.9566 -0.2846
  102CHL1   C1313760   2.646   3.645  15.933 -0.0661  1.3423 -0.0779
  102CHL1   C1813761   2.739   3.764  15.903  0.0079 -0.5641 -1.2057
  102CHL1  H18A13762   2.763   3.807  16.003 -1.4468 -0.8701 -0.6946
  102CHL1  H18B13763   2.828   3.728  15.848 -0.2530  0.5816 -2.4269
  102CHL1  H18C13764   2.690   3.838  15.836 -3.0806 -2.0180 -0.7183
  102CHL1   C1213765   2.512   3.692  15.979 -0.0135 -0.0720  0.3959
  102CHL1  H12A13766   2.475   3.770  15.908 -0.1166 -2.5329 -2.4413
  102CHL1  H12B13767   2.443   3.606  15.961 -0.0594  0.3276 -1.6301
  102CHL1   C1113768   2.514   3.761  16.126 -0.8022  0.3373 -0.3712
  102CHL1  H11A13769   2.571   3.855  16.117 -0.3321  0.1107  0.2206
  102CHL1  H11B13770   2.407   3.780  16.150 -0.6667 -1.2428  1.7808
  102CHL1    C913771   2.583   3.670  16.233 -0.0305 -0.6579 -0.7203
  102CHL1    H913772   2.529   3.574  16.253  3.8299 -3.0067 -0.6904
  102CHL1   C1013773   2.590   3.720  16.385 -0.5484  0.2061 -0.1737
  102CHL1   C1913774   2.662   3.860  16.386  0.4299 -0.3706 -0.5801
  102CHL1  H19A13775   2.690   3.885  16.491  0.2570 -1.9679 -0.1129
  102CHL1  H19B13776   2.737   3.884  16.308 -0.7239 -1.1022 -1.9785
  102CHL1  H19C13777   2.582   3.932  16.360  0.1713 -0.1479  0.7340
  102CHL1    C113778   2.443   3.729  16.450 -0.5690  0.4432 -0.2322
  102CHL1   H1A13779   2.395   3.817  16.401  1.3545  1.3317 -0.6263
  102CHL1   H1B13780   2.390   3.639  16.414 -1.6557  1.1140 -0.3731
  102CHL1    C213781   2.440   3.753  16.601 -0.4954  0.1243 -0.1800
  102CHL1   H2A13782   2.338   3.745  16.644 -0.9667  0.6497 -1.1685
  102CHL1   H2B13783   2.474   3.857  16.624 -0.0889 -0.4167  1.8186
  102CHL1   C2013784   2.626   3.581  15.672  0.4088  0.3921  0.0545
  102CHL1   H2013785   2.685   3.674  15.655  1.0271  0.4463  2.2406
  102CHL1   C2113786   2.472   3.593  15.650  0.2911  0.0529  0.7310
  102CHL1  H21A13787   2.461   3.646  15.553  2.8136  1.5903  1.1898
  102CHL1  H21B13788   2.414   3.631  15.737 -1.5137 -1.7515  0.3934
  102CHL1  H21C13789   2.429   3.491  15.638 -0.1451  0.2950  0.1889
  102CHL1   C2213790   2.673   3.477  15.575  0.4686  0.0746  0.6075
  102CHL1  H22A13791   2.783   3.462  15.587  0.1756 -1.5251  1.5729
  102CHL1  H22B13792   2.633   3.377  15.603  3.2395 -0.9021  1.4880
  102CHL1   C2313793   2.656   3.505  15.424 -0.4056 -0.0076 -0.0808
  102CHL1  H23A13794   2.562   3.558  15.400  0.3496  0.6202 -1.8096
  102CHL1  H23B13795   2.737   3.576  15.394 -1.2803  0.2035 -2.0526
  102CHL1   C2413796   2.653   3.376  15.343 -0.0017 -0.5367  0.4279
  102CHL1  H24A13797   2.743   3.316  15.371  0.2270 -0.2395  0.3374
  102CHL1  H24B13798   2.561   3.319  15.369 -1.2207  0.5345 -1.3220
  102CHL1   C2513799   2.643   3.409  15.188 -0.0840 -0.0692  0.5256
  102CHL1   H2513800   2.562   3.484  15.184 -0.0701 -0.0718  0.1808
  102CHL1   C2613801   2.772   3.476  15.140 -0.2487  0.6597 -0.1162
  102CHL1  H26A13802   2.857   3.414  15.175 -2.3756 -3.2344 -1.2666
  102CHL1  H26B13803   2.787   3.481  15.030  0.1350  2.7761 -0.0097
  102CHL1  H26C13804   2.764   3.580  15.178 -0.6753  0.4339  0.4260
  102CHL1   C2713805   2.617   3.282  15.105  0.1343  0.2033  0.2446
  102CHL1  H27A13806   2.517   3.241  15.131 -0.5702  3.2846  3.0909
  102CHL1  H27B13807   2.613   3.298  14.995 -1.2810 -0.4841  0.1659
  102CHL1  H27C13808   2.701   3.213  15.126  0.1267 -0.0465 -0.5045
  103CHL1    C313809   3.238   2.312  16.681  0.0016  0.1596  0.0113
  103CHL1    H313810   3.152   2.371  16.642  1.3951  0.7923 -2.3446
  103CHL1    O313811   3.261   2.340  16.818  0.1511 -0.5612 -0.1034
  103CHL1   H3'13812   3.328   2.277  16.845  1.1430 -0.0128 -1.2116
  103CHL1    C413813   3.228   2.167  16.653  0.8055  0.4979 -0.0439
  103CHL1   H4A13814   3.320   2.115  16.686  1.1692  0.8054 -0.5499
  103CHL1   H4B13815   3.145   2.136  16.720  0.1971  3.3890  0.7185
  103CHL1    C513816   3.194   2.142  16.505  0.5874  0.0871  0.1111
  103CHL1    C613817   3.082   2.080  16.455 -0.4083  0.0241  0.3786
  103CHL1    H613818   3.011   2.049  16.534 -0.5106  0.2913  0.3907
  103CHL1    C713819   3.055   2.062  16.309 -0.4624  0.2228 -0.2328
  103CHL1   H7A13820   3.020   1.957  16.301  0.8411 -0.4907  2.2303
  103CHL1   H7B13821   2.969   2.121  16.273 -1.2253 -0.4435  0.4572
  103CHL1    C813822   3.179   2.090  16.218 -0.2074  0.7690 -0.3743
  103CHL1    H813823   3.242   1.999  16.230  0.3724  1.2334  0.1878
  103CHL1   C1413824   3.144   2.117  16.073 -0.3893 -0.7280  0.0208
  103CHL1   H1413825   3.089   2.213  16.086 -2.6159 -2.1944  2.3860
  103CHL1   C1513826   3.035   2.028  16.001  0.2957  0.4200 -1.2922
  103CHL1  H15A13827   3.059   1.923  16.028  0.0245  0.6201 -0.1925
  103CHL1  H15B13828   2.932   2.049  16.037  0.7597  1.2200 -0.3817
  103CHL1   C1613829   3.052   2.054  15.848  0.4770 -0.2767  0.5014
  103CHL1  H16A13830   3.077   1.955  15.802  0.7662  0.7453 -1.6709
  103CHL1  H16B13831   2.966   2.098  15.794  0.7999  1.6598  1.4920
  103CHL1   C1713832   3.177   2.153  15.839  0.4364 -0.7381  0.5858
  103CHL1   H1713833   3.134   2.255  15.834  2.7436  0.2526 -0.5212
  103CHL1   C1313834   3.256   2.136  15.976  0.9466  0.0615  0.9470
  103CHL1   C1813835   3.339   2.002  15.963 -0.2645 -0.3895 -0.2266
  103CHL1  H18A13836   3.281   1.919  15.917 -0.8677 -0.1170  0.0205
  103CHL1  H18B13837   3.424   2.012  15.893  1.6254 -3.1326  1.5292
  103CHL1  H18C13838   3.385   1.974  16.060  0.3643  1.5036  0.0595
  103CHL1   C1213839   3.335   2.260  16.022 -0.3624  0.2621 -0.5691
  103CHL1  H12A13840   3.428   2.280  15.965  1.8880  0.9131  2.9698
  103CHL1  H12B13841   3.273   2.352  16.022  2.8962  2.6335 -1.4799
  103CHL1   C1113842   3.380   2.238  16.165  0.5307  0.2402 -1.2425
  103CHL1  H11A13843   3.440   2.145  16.162  0.8400  0.3662  0.1978
  103CHL1  H11B13844   3.445   2.321  16.202 -1.0444  1.6308 -1.5190
  103CHL1    C913845   3.257   2.216  16.266 -0.1311  0.6052  0.4383
  103CHL1    H913846   3.179   2.295  16.266  0.5648  1.3806 -2.3217
  103CHL1   C1013847   3.308   2.200  16.411  0.0877  0.5686 -0.3356
  103CHL1   C1913848   3.429   2.097  16.427  0.2515 -0.9562  0.2340
  103CHL1  H19A13849   3.523   2.131  16.379  1.3249 -1.6215  1.7815
  103CHL1  H19B13850   3.462   2.075  16.531  2.9385 -2.0801 -0.7570
  103CHL1  H19C13851   3.402   2.002  16.377  0.1332 -1.9026  1.9918
  103CHL1    C113852   3.355   2.343  16.457 -0.2899  0.4100 -0.3502
  103CHL1   H1A13853   3.458   2.368  16.424  0.1340  0.2239  0.7932
  103CHL1   H1B13854   3.274   2.413  16.427  0.7874  2.3213  1.0581
  103CHL1    C213855   3.365   2.357  16.607  0.2962  0.3022 -0.7143
  103CHL1   H2A13856   3.383   2.462  16.639 -0.5139  1.1074 -2.7519
  103CHL1   H2B13857   3.450   2.294  16.642 -0.7939 -1.7201 -1.5620
  103CHL1   C2013858   3.251   2.137  15.703 -0.2698  1.0691  0.0033
  103CHL1   H2013859   3.284   2.031  15.697  0.1684  1.2304 -0.6197
  103CHL1   C2113860   3.390   2.220  15.702  0.0175  0.4002  0.5621
  103CHL1  H21A13861   3.455   2.171  15.779 -0.4254 -1.0658  0.0282
  103CHL1  H21B13862   3.368   2.325  15.731  0.9079  0.6786  0.2648
  103CHL1  H21C13863   3.435   2.210  15.601 -0.4567  0.4446  0.3465
  103CHL1   C2213864   3.164   2.165  15.578  0.3279  0.8889  0.1636
  103CHL1  H22A13865   3.057   2.157  15.606 -0.1130  1.1491 -1.3687
  103CHL1  H22B13866   3.178   2.267  15.536  1.0986  1.1615  1.0410
  103CHL1   C2313867   3.205   2.073  15.461  0.5471  0.0601  0.2381
  103CHL1  H23A13868   3.314   2.077  15.440  0.1930 -0.8644 -1.9980
  103CHL1  H23B13869   3.179   1.972  15.498 -0.4655 -0.3325 -1.4168
  103CHL1   C2413870   3.149   2.108  15.324 -0.4584 -0.9259  0.0072
  103CHL1  H24A13871   3.041   2.088  15.306 -1.1642  0.8520  1.9568
  103CHL1  H24B13872   3.164   2.215  15.300 -0.4071 -0.9503 -0.0717
  103CHL1   C2513873   3.234   2.036  15.213  0.7604 -0.1553  0.0736
  103CHL1   H2513874   3.342   2.060  15.218  0.4614  1.2130  0.2671
  103CHL1   C2613875   3.225   1.887  15.219 -0.6515  0.4592 -0.8384
  103CHL1  H26A13876   3.274   1.853  15.312 -1.6054 -0.5012 -0.6609
  103CHL1  H26B13877   3.120   1.851  15.229 -0.4915  0.6934  3.9499
  103CHL1  H26C13878   3.283   1.834  15.141 -2.1735 -2.0821 -0.3536
  103CHL1   C2713879   3.165   2.082  15.078 -0.4391  0.5179 -0.7041
  103CHL1  H27A13880   3.057   2.060  15.080 -0.3880  0.2535  0.8202
  103CHL1  H27B13881   3.190   2.190  15.070 -1.2346  0.9917  2.0922
  103CHL1  H27C13882   3.207   2.021  14.995 -2.3457  0.5970 -1.7596
  104CHL1    C313883   5.915   4.471  16.694 -0.3519 -0.3435 -0.0654
  104CHL1    H313884   5.960   4.377  16.653  2.2259  1.0017 -0.5377
  104CHL1    O313885   5.893   4.439  16.829 -0.6149  0.6885  0.1287
  104CHL1   H3'13886   5.981   4.403  16.846 -1.0954 -0.1848  0.8485
  104CHL1    C413887   6.014   4.590  16.685  0.0477  0.3969 -0.4633
  104CHL1   H4A13888   5.987   4.677  16.749 -0.4375 -1.1486  1.5311
  104CHL1   H4B13889   6.102   4.545  16.736  0.5535 -0.0117 -1.6596
  104CHL1    C513890   6.025   4.639  16.546 -0.2077 -0.9164  0.3109
  104CHL1    C613891   6.147   4.661  16.499  0.0177  0.1229 -0.2761
  104CHL1    H613892   6.231   4.658  16.570  0.6042  2.2091 -0.8110
  104CHL1    C713893   6.174   4.711  16.360  0.0204  0.5691 -0.7057
  104CHL1   H7A13894   6.254   4.787  16.370 -1.1852  1.6812  1.0919
  104CHL1   H7B13895   6.203   4.626  16.295  2.1013 -0.4444  1.3927
  104CHL1    C813896   6.051   4.784  16.302  0.1019  0.1402 -0.6030
  104CHL1    H813897   6.048   4.877  16.363 -0.9530 -0.6253  0.5544
  104CHL1   C1413898   6.078   4.800  16.153 -0.3529 -0.0865  0.1626
  104CHL1   H1413899   6.080   4.700  16.105  1.1774 -0.8207  1.6867
  104CHL1   C1513900   6.217   4.857  16.098  0.2940 -0.3265 -0.7288
  104CHL1  H15A13901   6.236   4.944  16.164 -0.4254  0.1730 -1.1721
  104CHL1  H15B13902   6.308   4.792  16.098  1.3112  1.0608 -0.8282
  104CHL1   C1613903   6.186   4.896  15.957 -0.2462  0.0073 -0.5406
  104CHL1  H16A13904   6.212   5.004  15.946  0.1026  0.1326  1.1631
  104CHL1  H16B13905   6.241   4.841  15.877 -1.5649  0.5071 -1.8327
  104CHL1   C1713906   6.034   4.871  15.936  0.2365 -0.5916  0.0400
  104CHL1   H1713907   6.030   4.765  15.902 -1.0205 -0.7495  0.6084
  104CHL1   C1313908   5.969   4.877  16.075  0.3045  0.2568  0.6468
  104CHL1   C1813909   5.957   5.024  16.112 -0.0691 -0.2317  1.0542
  104CHL1  H18A13910   6.048   5.080  16.084  0.4557 -1.4197  0.2946
  104CHL1  H18B13911   5.867   5.065  16.062  0.7031  0.9406  0.6015
  104CHL1  H18C13912   5.945   5.032  16.222  3.3694  1.1987  1.4678
  104CHL1   C1213913   5.838   4.796  16.084 -0.1891  0.4407 -0.3351
  104CHL1  H12A13914   5.758   4.869  16.061 -0.3690  0.0265 -1.0346
  104CHL1  H12B13915   5.841   4.710  16.014 -0.0920  0.3476 -0.2190
  104CHL1   C1113916   5.805   4.755  16.230 -0.1224  1.4787  0.0493
  104CHL1  H11A13917   5.773   4.849  16.280  0.6923  0.7431  2.0607
  104CHL1  H11B13918   5.717   4.687  16.227  0.4940  0.6792 -3.0294
  104CHL1    C913919   5.922   4.692  16.314 -0.1721  0.2122  0.1006
  104CHL1    H913920   5.949   4.592  16.272 -0.9028  0.6005 -1.3484
  104CHL1   C1013921   5.890   4.663  16.462 -0.2463  0.4640 -1.0654
  104CHL1   C1913922   5.835   4.792  16.525  0.0332 -0.7799  0.2333
  104CHL1  H19A13923   5.902   4.874  16.492 -0.4760 -0.3546  0.2539
  104CHL1  H19B13924   5.733   4.808  16.484  0.8051 -1.6986 -2.2531
  104CHL1  H19C13925   5.839   4.795  16.636  2.5575  0.7136  0.1809
  104CHL1    C113926   5.801   4.546  16.487 -0.2533  0.1699  0.1822
  104CHL1   H1A13927   5.699   4.560  16.446  0.3196 -0.7980 -1.7345
  104CHL1   H1B13928   5.856   4.463  16.437  0.8308  0.1690  1.3346
  104CHL1    C213929   5.784   4.514  16.635  0.6323  0.3106  0.3021
  104CHL1   H2A13930   5.703   4.439  16.649  1.2742 -0.0517  2.6933
  104CHL1   H2B13931   5.747   4.608  16.680 -0.1080 -0.8223  2.1898
  104CHL1   C2013932   5.975   4.954  15.821 -0.4696 -0.2709  0.4026
  104CHL1   H2013933   5.982   5.062  15.845 -0.4808  0.1476 -1.3720
  104CHL1   C2113934   5.826   4.915  15.805  1.0078 -0.2126  0.4219
  104CHL1  H21A13935   5.788   4.955  15.708 -0.1366 -0.0413  0.9280
  104CHL1  H21B13936   5.759   4.967  15.876  1.0746  1.6115 -0.7681
  104CHL1  H21C13937   5.798   4.810  15.826 -0.8339  0.8577  4.1205
  104CHL1   C2213938   6.063   4.938  15.690 -0.1102  0.0201  0.4678
  104CHL1  H22A13939   6.160   4.988  15.711 -0.6483  0.2586  2.6527
  104CHL1  H22B13940   6.074   4.831  15.665 -0.1292  0.1401 -0.0708
  104CHL1   C2313941   6.005   5.015  15.566 -0.0323  0.4335 -0.0944
  104CHL1  H23A13942   5.905   4.985  15.529 -0.7785  2.3444  0.2347
  104CHL1  H23B13943   5.989   5.123  15.588  0.8093  0.6140 -0.3267
  104CHL1   C2413944   6.095   4.993  15.440 -0.5424  0.5632  0.1390
  104CHL1  H24A13945   6.201   5.001  15.474 -0.7480 -0.7337  1.1276
  104CHL1  H24B13946   6.081   4.892  15.397  1.4251 -0.2588  1.2883
  104CHL1   C2513947   6.084   5.103  15.337 -0.0085 -0.4393 -1.4141
  104CHL1   H2513948   6.111   5.201  15.381  0.0352 -0.6505 -0.9634
  104CHL1   C2613949   6.182   5.092  15.221  0.3463  0.7073  0.0723
  104CHL1  H26A13950   6.155   5.009  15.154 -1.0507  1.4614 -0.3320
  104CHL1  H26B13951   6.166   5.181  15.157  0.5085 -0.2147 -1.2686
  104CHL1  H26C13952   6.288   5.091  15.253  0.7530 -0.0661 -1.2362
  104CHL1   C2713953   5.931   5.116  15.294 -1.4168  0.0225 -0.3728
  104CHL1  H27A13954   5.917   5.185  15.208 -1.2754  1.4747  0.7411
  104CHL1  H27B13955   5.893   5.020  15.252  1.4236 -1.2313 -0.3677
  104CHL1  H27C13956   5.860   5.157  15.368 -0.7121 -1.4642  1.2013
  105CHL1    C313957   6.484   3.770  16.621  0.2883 -0.4249 -0.0633
  105CHL1    H313958   6.555   3.698  16.576  2.0867  1.4048 -0.2783
  105CHL1    O313959   6.525   3.799  16.758  0.3277  0.5210 -0.1156
  105CHL1   H3'13960   6.447   3.839  16.796 -1.2000 -1.3990 -1.0858
  105CHL1    C413961   6.470   3.890  16.529 -0.1406  0.4580  0.4313
  105CHL1   H4A13962   6.400   3.974  16.550 -0.4908  0.8504 -2.0043
  105CHL1   H4B13963   6.569   3.940  16.530 -0.5206  1.2344  1.4208
  105CHL1    C513964   6.432   3.844  16.391 -0.1275  0.9904 -0.2289
  105CHL1    C613965   6.512   3.862  16.286 -0.1159 -0.3457  0.2452
  105CHL1    H613966   6.599   3.924  16.312 -2.3619  2.2935  2.1333
  105CHL1    C713967   6.464   3.840  16.146 -0.6180 -0.2375  0.2199
  105CHL1   H7A13968   6.496   3.925  16.083 -0.0467 -0.4840  0.1726
  105CHL1   H7B13969   6.511   3.751  16.099 -1.3602 -0.1228 -0.7859
  105CHL1    C813970   6.313   3.807  16.132  0.0123  0.2980  0.4561
  105CHL1    H813971   6.251   3.897  16.149 -0.8825 -0.0400 -0.9271
  105CHL1   C1413972   6.272   3.752  15.999  1.0544  0.6829  0.3090
  105CHL1   H1413973   6.329   3.657  15.990  0.5129  0.1482  2.0232
  105CHL1   C1513974   6.307   3.837  15.881  1.4316 -0.2410 -0.5382
  105CHL1  H15A13975   6.293   3.944  15.908 -1.0863 -0.8674  0.9198
  105CHL1  H15B13976   6.413   3.829  15.848  2.0311 -2.8380  1.6190
  105CHL1   C1613977   6.209   3.805  15.767 -0.5287 -0.9921 -0.1450
  105CHL1  H16A13978   6.146   3.893  15.746  0.3061 -0.5289 -0.7865
  105CHL1  H16B13979   6.257   3.770  15.673 -0.6179  1.6710 -1.2699
  105CHL1   C1713980   6.109   3.700  15.828 -0.7748 -0.1613 -0.4627
  105CHL1   H1713981   6.163   3.604  15.819  0.7445  0.1992  3.1053
  105CHL1   C1313982   6.117   3.725  15.984  0.4120  0.4066  0.8773
  105CHL1   C1813983   6.017   3.844  16.014 -1.0278  0.1848 -0.2508
  105CHL1  H18A13984   5.915   3.803  16.002 -0.5060 -0.5210 -2.8547
  105CHL1  H18B13985   6.026   3.875  16.120  2.1436 -0.2294 -0.2924
  105CHL1  H18C13986   6.019   3.927  15.940  0.1854 -1.9539 -2.7857
  105CHL1   C1213987   6.097   3.604  16.072 -0.2696 -0.0581  0.6389
  105CHL1  H12A13988   5.991   3.571  16.066 -0.6697  1.3493 -0.5537
  105CHL1  H12B13989   6.159   3.517  16.041  0.9030  1.0899 -0.3339
  105CHL1   C1113990   6.134   3.644  16.218 -0.1162 -0.3233  0.5742
  105CHL1  H11A13991   6.053   3.715  16.245 -0.5075 -0.4485 -0.2412
  105CHL1  H11B13992   6.118   3.554  16.280 -0.1743 -2.2548 -2.0613
  105CHL1    C913993   6.272   3.701  16.241 -0.4256 -0.0490 -0.2514
  105CHL1    H913994   6.344   3.617  16.229 -0.6347 -0.2361 -0.2048
  105CHL1   C1013995   6.297   3.765  16.383  0.1229 -0.2630  0.1342
  105CHL1   C1913996   6.178   3.865  16.414 -0.3277 -0.2225 -0.1313
  105CHL1  H19A13997   6.175   3.911  16.515  2.8005 -0.1684  0.0238
  105CHL1  H19B13998   6.152   3.943  16.339  1.0050  0.9496  0.5893
  105CHL1  H19C13999   6.085   3.804  16.415 -1.1931  1.0469 -0.4007
  105CHL1    C114000   6.294   3.654  16.494  0.3019  0.0640 -0.6711
  105CHL1   H1A14001   6.191   3.611  16.498  0.6126 -0.5977  1.6183
  105CHL1   H1B14002   6.356   3.570  16.455  2.2060 -0.4134  2.9565
  105CHL1    C214003   6.351   3.695  16.629  0.0078  0.0647 -0.2199
  105CHL1   H2A14004   6.373   3.608  16.695  2.8147  0.9513  0.1331
  105CHL1   H2B14005   6.268   3.745  16.683 -0.4230 -0.3707 -0.4703
  105CHL1   C2014006   5.968   3.701  15.766  0.4513 -0.0316  0.2966
  105CHL1   H2014007   5.914   3.795  15.792 -1.5838 -0.8883 -0.5306
  105CHL1   C2114008   5.883   3.595  15.825  0.3553  0.1869  0.5048
  105CHL1  H21A14009   5.792   3.604  15.762 -0.4337 -1.0502  1.4291
  105CHL1  H21B14010   5.857   3.609  15.932  0.0688 -1.8376  0.7503
  105CHL1  H21C14011   5.933   3.497  15.810  0.0863  0.0472  0.4979
  105CHL1   C2214012   5.952   3.699  15.609  0.2513 -0.1574 -0.4913
  105CHL1  H22A14013   5.846   3.693  15.576  0.0900  1.7040 -0.4350
  105CHL1  H22B14014   5.980   3.797  15.564 -2.6192  0.8882 -0.2338
  105CHL1   C2314015   6.012   3.586  15.523  0.4336  0.7062  0.4403
  105CHL1  H23A14016   6.122   3.577  15.534  0.2107 -0.9471  1.8317
  105CHL1  H23B14017   5.982   3.489  15.568 -0.5875  1.0036  0.4288
  105CHL1   C2414018   5.976   3.601  15.370  0.2995  0.2538 -0.1952
  105CHL1  H24A14019   5.866   3.618  15.366  0.0096 -0.1457  3.1911
  105CHL1  H24B14020   6.024   3.693  15.328  0.4739  0.3037  0.1161
  105CHL1   C2514021   5.997   3.477  15.288  0.0075  0.3506  0.1591
  105CHL1   H2514022   5.941   3.395  15.338 -2.7690  1.0848 -1.4729
  105CHL1   C2614023   5.956   3.482  15.136  0.7372  0.7364 -0.3067
  105CHL1  H26A14024   5.853   3.523  15.136  1.2893  2.1492  0.2787
  105CHL1  H26B14025   6.020   3.551  15.077  1.6958  0.3920  0.3133
  105CHL1  H26C14026   5.950   3.386  15.079 -1.5880  0.6226  0.0361
  105CHL1   C2714027   6.148   3.444  15.292 -0.4342 -0.1600 -0.6792
  105CHL1  H27A14028   6.194   3.462  15.391  0.9562 -0.0955 -1.3120
  105CHL1  H27B14029   6.167   3.345  15.245  0.7608  0.5374 -1.7564
  105CHL1  H27C14030   6.200   3.523  15.234  1.0336  1.8089  3.0035
  106CHL1    C314031   2.725   1.176  16.728  1.5963  0.0469 -0.8517
  106CHL1    H314032   2.737   1.286  16.726  2.4118 -0.0399 -1.8937
  106CHL1    O314033   2.727   1.135  16.859 -0.2009 -0.1803 -0.1579
  106CHL1   H3'14034   2.814   1.161  16.890  0.8465 -0.8012 -2.3955
  106CHL1    C414035   2.588   1.138  16.672  0.1106  0.4002 -0.1290
  106CHL1   H4A14036   2.581   1.028  16.684 -2.0762  0.4261 -0.7348
  106CHL1   H4B14037   2.516   1.191  16.738  0.0617 -1.4807  1.3988
  106CHL1    C514038   2.574   1.179  16.528  0.1103  0.2529 -0.7553
  106CHL1    C614039   2.466   1.252  16.489  0.7719  0.0547 -0.1431
  106CHL1    H614040   2.389   1.279  16.563  1.4858  1.3782  0.1514
  106CHL1    C714041   2.442   1.284  16.345  0.4131  0.2653  0.2269
  106CHL1   H7A14042   2.343   1.241  16.317  1.2307 -1.2900 -0.3558
  106CHL1   H7B14043   2.431   1.394  16.332  1.5714  0.7531  2.7934
  106CHL1    C814044   2.548   1.236  16.243 -0.2570 -0.0634 -0.7723
  106CHL1    H814045   2.515   1.134  16.214 -1.1860  0.8126 -3.0765
  106CHL1   C1414046   2.556   1.316  16.117 -0.0893 -0.7868  0.0582
  106CHL1   H1414047   2.595   1.417  16.140 -0.9457 -0.2829 -0.6317
  106CHL1   C1514048   2.425   1.352  16.039 -0.0008  0.2015  0.1000
  106CHL1  H15A14049   2.362   1.261  16.035 -0.0010  0.2312 -0.7246
  106CHL1  H15B14050   2.366   1.429  16.093 -0.2310 -1.9912  3.1942
  106CHL1   C1614051   2.467   1.391  15.896  0.6895  0.0118  0.2487
  106CHL1  H16A14052   2.416   1.326  15.822 -1.9590  2.7278 -0.5413
  106CHL1  H16B14053   2.433   1.495  15.877 -1.6485 -0.7233  0.0695
  106CHL1   C1714054   2.622   1.373  15.892 -0.3637  0.1067 -0.1320
  106CHL1   H1714055   2.667   1.467  15.929 -0.2007 -0.1837  0.4222
  106CHL1   C1314056   2.654   1.268  16.006 -0.0878  0.8258  0.2504
  106CHL1   C1814057   2.619   1.126  15.956  0.3162 -0.1963  0.3325
  106CHL1  H18A14058   2.524   1.114  15.900 -0.4473 -0.1587  1.5957
  106CHL1  H18B14059   2.701   1.084  15.893 -0.6123 -2.5310  0.5975
  106CHL1  H18C14060   2.621   1.060  16.045 -1.6782  1.2895  1.5525
  106CHL1   C1214061   2.794   1.266  16.063  0.8794  0.7354  0.0407
  106CHL1  H12A14062   2.861   1.213  15.993 -2.0760 -2.5057 -0.6254
  106CHL1  H12B14063   2.832   1.367  16.087  3.6786 -0.8411  3.0608
  106CHL1   C1114064   2.805   1.186  16.193 -0.3292  0.1326  0.0400
  106CHL1  H11A14065   2.812   1.077  16.176  1.2680 -0.3055  2.9196
  106CHL1  H11B14066   2.905   1.195  16.241  0.5318 -0.0748 -1.6468
  106CHL1    C914067   2.694   1.221  16.296 -0.2219  0.0032  0.1566
  106CHL1    H914068   2.714   1.325  16.329  2.9925 -0.9176  1.5310
  106CHL1   C1014069   2.696   1.139  16.433  0.0660  0.3835  0.5781
  106CHL1   C1914070   2.697   0.985  16.407 -1.1730 -0.7168 -0.9924
  106CHL1  H19A14071   2.679   0.936  16.505 -0.5676  0.9690  0.0122
  106CHL1  H19B14072   2.609   0.950  16.348 -0.0695 -1.6244 -2.1466
  106CHL1  H19C14073   2.790   0.948  16.359  0.1302  2.1492 -0.8796
  106CHL1    C114074   2.832   1.169  16.505 -0.7387 -0.1465 -0.5279
  106CHL1   H1A14075   2.918   1.127  16.448 -1.0128  1.3299 -2.1285
  106CHL1   H1B14076   2.847   1.279  16.498  2.0015 -0.2036  2.3517
  106CHL1    C214077   2.838   1.124  16.649 -0.0186 -0.3405 -0.1039
  106CHL1   H2A14078   2.930   1.157  16.702 -1.4007  2.2618  0.8523
  106CHL1   H2B14079   2.835   1.013  16.648  0.0067 -0.3574 -2.0213
  106CHL1   C2014080   2.680   1.361  15.748  0.6380  0.9564  0.4797
  106CHL1   H2014081   2.634   1.269  15.708  0.8779  0.6318  0.9521
  106CHL1   C2114082   2.831   1.338  15.736  0.1537  0.7341 -0.4600
  106CHL1  H21A14083   2.880   1.423  15.787 -0.8429  0.8596  0.3250
  106CHL1  H21B14084   2.873   1.328  15.634 -0.7335  1.8683 -0.9506
  106CHL1  H21C14085   2.849   1.242  15.790 -1.9442 -0.4355 -1.7032
  106CHL1   C2214086   2.645   1.474  15.654  0.4933  0.0441  0.1966
  106CHL1  H22A14087   2.539   1.505  15.665  0.4884  1.0981 -2.1435
  106CHL1  H22B14088   2.692   1.569  15.685 -0.2782  0.9481 -1.2616
  106CHL1   C2314089   2.668   1.435  15.509 -0.4661  0.3762  0.8085
  106CHL1  H23A14090   2.774   1.455  15.480 -0.6177  0.4154  0.2599
  106CHL1  H23B14091   2.658   1.324  15.500 -1.4477  0.4635  0.7171
  106CHL1   C2414092   2.569   1.507  15.417  0.4355 -0.3752  0.4070
  106CHL1  H24A14093   2.467   1.465  15.428 -0.3630  0.5605 -2.6910
  106CHL1  H24B14094   2.562   1.617  15.436  0.5774  0.3266 -3.0452
  106CHL1   C2514095   2.586   1.497  15.259 -0.6277  0.4187 -1.1711
  106CHL1   H2514096   2.487   1.532  15.222 -2.2860 -2.4733  0.1444
  106CHL1   C2614097   2.705   1.584  15.224  0.0131  0.6296  0.0399
  106CHL1  H26A14098   2.721   1.601  15.115 -0.3615  0.0526 -0.1149
  106CHL1  H26B14099   2.702   1.686  15.267 -0.9864  0.3644  0.6432
  106CHL1  H26C14100   2.797   1.538  15.265  0.0013 -0.1939 -0.8056
  106CHL1   C2714101   2.616   1.353  15.207  0.1171 -0.5032  0.1459
  106CHL1  H27A14102   2.721   1.323  15.231 -0.0916 -1.9060 -0.5921
  106CHL1  H27B14103   2.534   1.287  15.243 -0.2091  0.7614  1.8487
  106CHL1  H27C14104   2.618   1.346  15.096 -0.1418  1.2492  0.0032
  107CHL1    C314105   3.603   5.460  16.719  0.6088  0.5801 -0.0010
  107CHL1    H314106   3.583   5.565  16.691  0.4312  0.3830 -0.6326
  107CHL1    O314107   3.603   5.460  16.862  0.1034  0.1454 -0.1558
  107CHL1   H3'14108   3.631   5.372  16.887  2.1877  1.0005  0.8244
  107CHL1    C414109   3.493   5.366  16.670 -0.5139 -0.9107  0.6433
  107CHL1   H4A14110   3.530   5.263  16.692  0.4142 -0.9291 -0.8764
  107CHL1   H4B14111   3.397   5.394  16.718 -0.1567  2.6260 -0.4275
  107CHL1    C514112   3.489   5.382  16.520  0.3866 -0.0753  0.7531
  107CHL1    C614113   3.374   5.430  16.464  0.4117 -0.6327  0.3432
  107CHL1    H614114   3.289   5.462  16.526  0.5292  0.1008  0.1350
  107CHL1    C714115   3.351   5.435  16.315  0.5134 -0.3844  0.4466
  107CHL1   H7A14116   3.244   5.410  16.297  0.2909  0.8271 -0.0100
  107CHL1   H7B14117   3.368   5.538  16.278 -0.4662 -0.3488  0.0606
  107CHL1    C814118   3.453   5.352  16.233  0.1807  0.2012 -0.4918
  107CHL1    H814119   3.428   5.244  16.244 -2.4982  0.5668 -2.2499
  107CHL1   C1414120   3.455   5.403  16.087 -0.0018 -0.2097  0.0471
  107CHL1   H1414121   3.493   5.506  16.072 -1.6942  0.1575 -2.4026
  107CHL1   C1514122   3.322   5.390  16.010  0.3137  0.2314  0.7532
  107CHL1  H15A14123   3.280   5.288  16.025  0.1804  0.3164  0.9699
  107CHL1  H15B14124   3.241   5.462  16.036  0.4127  1.5884 -2.3101
  107CHL1   C1614125   3.362   5.412  15.866  0.0726  0.3385  0.4491
  107CHL1  H16A14126   3.303   5.336  15.810  0.9268  0.6865 -0.9851
  107CHL1  H16B14127   3.345   5.515  15.828  0.7028 -0.1172 -1.1582
  107CHL1   C1714128   3.518   5.385  15.861 -0.8337 -0.3779 -0.2308
  107CHL1   H1714129   3.565   5.485  15.844  1.1694 -1.3064 -0.3518
  107CHL1   C1314130   3.560   5.330  15.998  0.3321 -0.2090  0.4195
  107CHL1   C1814131   3.535   5.175  15.996  0.0637  0.6623  0.0841
  107CHL1  H18A14132   3.431   5.163  15.957  0.1489  3.1597 -1.1326
  107CHL1  H18B14133   3.602   5.136  15.916  0.4458  0.1909  0.6312
  107CHL1  H18C14134   3.553   5.118  16.089 -0.1725  0.8187  0.2281
  107CHL1   C1214135   3.701   5.371  16.050  0.2251  0.6338 -0.4170
  107CHL1  H12A14136   3.782   5.327  15.988  1.7902 -0.4749  2.2601
  107CHL1  H12B14137   3.705   5.481  16.033  0.3661  0.8331  0.8146
  107CHL1   C1114138   3.718   5.335  16.196  0.7001  0.5899  0.4809
  107CHL1  H11A14139   3.722   5.224  16.193 -1.6892  0.4855 -1.6452
  107CHL1  H11B14140   3.813   5.370  16.241  1.9225 -1.5962 -0.2538
  107CHL1    C914141   3.600   5.376  16.291  0.1448 -0.3376  0.4889
  107CHL1    H914142   3.617   5.486  16.286  2.0565 -0.5562  1.3015
  107CHL1   C1014143   3.619   5.346  16.441 -0.0875  0.1280 -1.1201
  107CHL1   C1914144   3.647   5.197  16.451  0.1942  0.4062  0.3733
  107CHL1  H19A14145   3.737   5.168  16.392 -2.1543  1.1724 -4.0237
  107CHL1  H19B14146   3.658   5.167  16.557 -0.5118 -1.1411  0.0438
  107CHL1  H19C14147   3.561   5.141  16.408  1.5432 -2.3871  1.0368
  107CHL1    C114148   3.740   5.425  16.510  0.0441 -0.1186 -0.0789
  107CHL1   H1A14149   3.832   5.378  16.468 -0.0297 -0.2464 -0.0948
  107CHL1   H1B14150   3.729   5.530  16.475 -0.0967 -0.1504 -0.1290
  107CHL1    C214151   3.734   5.417  16.662 -0.5351  0.2855  0.0678
  107CHL1   H2A14152   3.818   5.480  16.701  1.4631 -1.6555 -0.8925
  107CHL1   H2B14153   3.761   5.313  16.690  0.0604 -0.1718 -2.0173
  107CHL1   C2014154   3.556   5.309  15.729 -0.4555 -0.2467 -0.7873
  107CHL1   H2014155   3.498   5.215  15.736 -1.3243  0.2838 -0.5613
  107CHL1   C2114156   3.711   5.282  15.722  0.6282 -0.0809  0.2164
  107CHL1  H21A14157   3.746   5.208  15.647  2.7295  0.0654  0.9639
  107CHL1  H21B14158   3.760   5.240  15.813 -1.8727  0.0283  1.6950
  107CHL1  H21C14159   3.757   5.382  15.704  1.4604 -0.3964  0.5116
  107CHL1   C2214160   3.502   5.382  15.600 -0.7751 -0.2674 -0.4221
  107CHL1  H22A14161   3.391   5.384  15.605 -0.7981 -0.4972 -0.8836
  107CHL1  H22B14162   3.544   5.485  15.603 -4.4694  1.5910 -3.2381
  107CHL1   C2314163   3.551   5.335  15.462  0.0052 -0.2209 -0.0826
  107CHL1  H23A14164   3.662   5.337  15.464  0.0032  1.6386  1.7227
  107CHL1  H23B14165   3.509   5.233  15.446 -0.3898  0.0615 -0.8955
  107CHL1   C2414166   3.497   5.435  15.347 -0.2984 -0.0284 -0.1277
  107CHL1  H24A14167   3.387   5.421  15.354  0.1680 -3.4826  3.0064
  107CHL1  H24B14168   3.515   5.538  15.386  1.8671  0.5976 -2.4703
  107CHL1   C2514169   3.555   5.410  15.212  0.5488 -0.1757 -0.7087
  107CHL1   H2514170   3.665   5.411  15.228  0.2278 -2.6541  2.9230
  107CHL1   C2614171   3.520   5.269  15.157 -0.0958 -0.4311 -0.3189
  107CHL1  H26A14172   3.563   5.255  15.056  0.7686  0.9458 -0.1816
  107CHL1  H26B14173   3.560   5.194  15.229 -0.1762  0.0351  0.2280
  107CHL1  H26C14174   3.410   5.254  15.156 -0.3896  1.4355 -0.0827
  107CHL1   C2714175   3.507   5.509  15.115 -0.6984 -0.4016  0.0438
  107CHL1  H27A14176   3.517   5.611  15.158  3.2468 -0.5157 -0.2314
  107CHL1  H27B14177   3.572   5.508  15.025 -1.7249 -0.3994 -0.7135
  107CHL1  H27C14178   3.406   5.493  15.072 -0.3987 -1.5892 -0.2525
  108CHL1    C314179   5.588   3.099  16.730 -0.4573 -0.0707 -0.2840
  108CHL1    H314180   5.481   3.103  16.702 -0.2842 -2.6857 -1.5721
  108CHL1    O314181   5.604   3.159  16.861  0.1406  0.2286 -0.0375
  108CHL1   H3'14182   5.612   3.255  16.852 -0.1532  0.1250 -1.7810
  108CHL1    C414183   5.636   2.952  16.735  0.6218 -0.1457 -0.4793
  108CHL1   H4A14184   5.734   2.945  16.788 -0.7055 -1.6613  1.9350
  108CHL1   H4B14185   5.564   2.898  16.800 -0.5671  0.2777 -1.4064
  108CHL1    C514186   5.640   2.885  16.598  0.0246  0.3639  0.1416
  108CHL1    C614187   5.584   2.765  16.562 -0.0037  0.4694 -0.3978
  108CHL1    H614188   5.536   2.705  16.641 -0.2967 -1.2291 -1.8257
  108CHL1    C714189   5.585   2.692  16.430 -0.1494  0.4044  0.1732
  108CHL1   H7A14190   5.602   2.583  16.443 -0.1867  0.3750 -0.0320
  108CHL1   H7B14191   5.483   2.709  16.391 -0.4686  1.2537  1.3257
  108CHL1    C814192   5.695   2.758  16.343 -0.2286  0.8013  0.2466
  108CHL1    H814193   5.794   2.720  16.377  0.4568  0.4553 -1.9355
  108CHL1   C1414194   5.670   2.716  16.198 -0.0119 -0.2710 -0.2416
  108CHL1   H1414195   5.565   2.752  16.192  0.6326  2.2425  1.9638
  108CHL1   C1514196   5.671   2.565  16.163 -0.6281 -0.2365 -0.2125
  108CHL1  H15A14197   5.764   2.510  16.188 -2.0692 -1.8369  1.9518
  108CHL1  H15B14198   5.591   2.517  16.224 -2.6671  2.6307 -0.4324
  108CHL1   C1614199   5.647   2.569  16.014  0.0998  0.4420 -0.5451
  108CHL1  H16A14200   5.705   2.485  15.971 -3.1623 -1.2569 -2.0772
  108CHL1  H16B14201   5.541   2.542  15.991 -0.0795  1.1991 -0.6380
  108CHL1   C1714202   5.687   2.712  15.961  0.3303  0.5718 -0.8029
  108CHL1   H1714203   5.590   2.760  15.934  0.5258  0.0435 -2.6076
  108CHL1   C1314204   5.748   2.784  16.087 -0.3100  0.4619 -0.2062
  108CHL1   C1814205   5.897   2.743  16.104  0.5816 -0.2941 -0.3941
  108CHL1  H18A14206   5.911   2.635  16.078 -1.4127 -0.6195 -0.3071
  108CHL1  H18B14207   5.948   2.807  16.029  0.4764  0.0620 -0.1578
  108CHL1  H18C14208   5.935   2.770  16.204 -0.7601  1.3811 -0.2870
  108CHL1   C1214209   5.716   2.935  16.097  0.3064 -0.4337 -0.3341
  108CHL1  H12A14210   5.759   2.989  16.009  4.1638 -1.4212  0.7162
  108CHL1  H12B14211   5.606   2.940  16.094  0.1504 -1.4879  1.7634
  108CHL1   C1114212   5.762   2.985  16.236  0.6912  0.1389 -0.5664
  108CHL1  H11A14213   5.871   2.968  16.246  0.4268 -2.0681 -0.9689
  108CHL1  H11B14214   5.743   3.094  16.249 -2.9383 -0.5294  1.3307
  108CHL1    C914215   5.693   2.913  16.352  0.5659 -0.3783  0.3569
  108CHL1    H914216   5.585   2.934  16.338  0.9925  2.0630  0.2427
  108CHL1   C1014217   5.724   2.970  16.494 -0.0836  0.3355 -0.2299
  108CHL1   C1914218   5.870   2.969  16.522  0.5489  0.3684  0.4234
  108CHL1  H19A14219   5.895   2.989  16.628 -0.7813 -1.8700  1.2158
  108CHL1  H19B14220   5.908   2.866  16.501 -2.2019 -0.5635 -0.3861
  108CHL1  H19C14221   5.932   3.035  16.458  1.8552 -1.7138 -0.5828
  108CHL1    C114222   5.683   3.122  16.497  0.1332 -0.7934  0.1220
  108CHL1   H1A14223   5.759   3.181  16.442 -1.0911  1.7299  0.9628
  108CHL1   H1B14224   5.579   3.130  16.458 -0.4187  1.2554  1.8339
  108CHL1    C214225   5.676   3.176  16.636  0.0729  0.5036  0.4272
  108CHL1   H2A14226   5.642   3.282  16.639 -1.4548  0.0477  0.5528
  108CHL1   H2B14227   5.777   3.177  16.682  0.6571 -1.8474 -0.6496
  108CHL1   C2014228   5.769   2.703  15.832  0.3494 -0.2888 -0.4026
  108CHL1   H2014229   5.865   2.654  15.857 -0.1309 -0.2140  1.7493
  108CHL1   C2114230   5.794   2.850  15.780 -0.1526  0.3994  0.6015
  108CHL1  H21A14231   5.856   2.907  15.852  1.0003 -0.3146  0.1938
  108CHL1  H21B14232   5.700   2.905  15.759 -1.5207 -2.3202 -0.8633
  108CHL1  H21C14233   5.852   2.832  15.688 -0.7054 -1.8544  0.6388
  108CHL1   C2214234   5.712   2.624  15.716  0.2964  0.0152  0.2352
  108CHL1  H22A14235   5.761   2.658  15.623 -0.0313 -0.5422 -0.1494
  108CHL1  H22B14236   5.732   2.515  15.723 -1.3589 -0.3225  0.2075
  108CHL1   C2314237   5.558   2.643  15.685  0.0632  0.1482  0.4933
  108CHL1  H23A14238   5.488   2.602  15.761 -0.3613  0.9264  0.5466
  108CHL1  H23B14239   5.537   2.753  15.683 -0.5494  0.0260 -0.1875
  108CHL1   C2414240   5.513   2.588  15.552 -0.1459 -0.2426  0.0491
  108CHL1  H24A14241   5.582   2.627  15.474 -1.8279  0.5107 -1.1265
  108CHL1  H24B14242   5.537   2.480  15.544 -0.8612 -0.6739  2.5896
  108CHL1   C2514243   5.367   2.618  15.512  1.1696 -0.1375 -0.1661
  108CHL1   H2514244   5.339   2.724  15.531 -1.8988 -1.3139  3.1171
  108CHL1   C2614245   5.341   2.592  15.363  0.5664 -0.1756 -0.6845
  108CHL1  H26A14246   5.413   2.654  15.304 -1.2791  1.0002 -1.7761
  108CHL1  H26B14247   5.366   2.485  15.345 -0.6882 -0.4967 -0.6030
  108CHL1  H26C14248   5.238   2.626  15.342  0.8336  2.1718  1.3504
  108CHL1   C2714249   5.271   2.530  15.597 -0.2902  0.1928 -0.1962
  108CHL1  H27A14250   5.279   2.423  15.567  0.6602 -0.0124  0.7355
  108CHL1  H27B14251   5.291   2.543  15.705 -1.2624  0.5107 -0.0506
  108CHL1  H27C14252   5.167   2.560  15.574 -1.8343 -3.6023  1.0102
  109CHL1    C314253   2.362   5.464  16.600 -0.1955  0.1423 -0.7496
  109CHL1    H314254   2.262   5.429  16.567 -0.0935 -0.5720 -0.3296
  109CHL1    O314255   2.381   5.428  16.736  0.3442  0.2584 -0.0982
  109CHL1   H3'14256   2.297   5.387  16.758  0.9199 -0.0675  1.6423
  109CHL1    C414257   2.454   5.380  16.508 -0.7464 -0.5244  0.2576
  109CHL1   H4A14258   2.555   5.394  16.552 -0.2531  1.0931 -1.2797
  109CHL1   H4B14259   2.428   5.273  16.523 -1.6398 -0.4131 -0.4261
  109CHL1    C514260   2.456   5.414  16.362  1.1294  0.6449 -0.0641
  109CHL1    C614261   2.429   5.324  16.266 -0.9204 -0.0465 -0.6892
  109CHL1    H614262   2.412   5.219  16.294 -3.1722  0.4032 -0.1428
  109CHL1    C714263   2.422   5.363  16.120  0.5309  0.7480  0.4469
  109CHL1   H7A14264   2.471   5.290  16.052 -0.4767  0.0505  0.4472
  109CHL1   H7B14265   2.317   5.356  16.084  0.6705  2.6044 -0.3924
  109CHL1    C814266   2.480   5.506  16.084 -0.0176  0.7305  0.4719
  109CHL1    H814267   2.591   5.495  16.084 -0.0938 -0.2048 -0.9228
  109CHL1   C1414268   2.433   5.551  15.948 -0.1855 -0.2945  0.0793
  109CHL1   H1414269   2.322   5.553  15.958 -0.0659  0.1802  1.5989
  109CHL1   C1514270   2.457   5.463  15.824  0.8447 -0.2812 -1.3285
  109CHL1  H15A14271   2.561   5.426  15.839  0.5627  0.2562  3.6581
  109CHL1  H15B14272   2.394   5.371  15.823 -0.7764  0.6255  2.2528
  109CHL1   C1614273   2.433   5.565  15.708  0.3207  0.3906 -0.7816
  109CHL1  H16A14274   2.524   5.553  15.645 -0.4739 -0.3697 -1.8129
  109CHL1  H16B14275   2.346   5.540  15.645  1.0144 -0.0644 -1.5800
  109CHL1   C1714276   2.427   5.706  15.759 -0.1092 -0.0391 -0.2616
  109CHL1   H1714277   2.322   5.741  15.771  0.1504  0.4082  0.7609
  109CHL1   C1314278   2.485   5.690  15.903  0.3036 -0.3805  0.8021
  109CHL1   C1814279   2.639   5.690  15.891  0.2808  0.6993 -0.9151
  109CHL1  H18A14280   2.670   5.797  15.883  0.6211  0.6697 -0.0780
  109CHL1  H18B14281   2.688   5.636  15.974 -1.6379  0.1365 -0.1044
  109CHL1  H18C14282   2.672   5.636  15.799 -1.6609 -0.7065 -0.8237
  109CHL1   C1214283   2.425   5.788  16.014  0.3281 -0.1034 -0.4620
  109CHL1  H12A14284   2.446   5.895  15.993 -1.7968  0.5221  0.3061
  109CHL1  H12B14285   2.314   5.785  16.005  0.1096  2.3788  0.5838
  109CHL1   C1114286   2.467   5.752  16.154 -0.5016 -0.0214  0.1636
  109CHL1  H11A14287   2.577   5.767  16.153 -0.4033 -0.6259  1.0690
  109CHL1  H11B14288   2.423   5.822  16.229 -0.0979  0.4160 -0.0061
  109CHL1    C914289   2.433   5.602  16.192  0.2329 -0.2048  0.2212
  109CHL1    H914290   2.322   5.600  16.189  0.1515  1.8547  0.6243
  109CHL1   C1014291   2.467   5.566  16.339 -0.0370 -0.6436  0.7007
  109CHL1   C1914292   2.608   5.623  16.364 -0.1860  0.5261 -0.2527
  109CHL1  H19A14293   2.618   5.733  16.359 -1.6627  0.7747  1.3375
  109CHL1  H19B14294   2.644   5.596  16.466 -0.8777  1.3644  0.2197
  109CHL1  H19C14295   2.675   5.580  16.286 -1.1697  0.5793 -1.1539
  109CHL1    C114296   2.377   5.652  16.431  0.3039 -0.9623  0.3925
  109CHL1   H1A14297   2.414   5.756  16.423 -2.8814  0.3722  1.2851
  109CHL1   H1B14298   2.271   5.660  16.399  0.2324 -1.1432  0.5808
  109CHL1    C214299   2.379   5.617  16.581 -0.1640  0.9575 -0.4618
  109CHL1   H2A14300   2.303   5.671  16.642 -0.2602  0.9742 -0.5953
  109CHL1   H2B14301   2.483   5.634  16.616  0.4700 -0.0772 -1.7588
  109CHL1   C2014302   2.485   5.811  15.661  0.3156  0.2308 -1.0780
  109CHL1   H2014303   2.595   5.792  15.659  0.5678  1.4436  0.1388
  109CHL1   C2114304   2.477   5.955  15.718 -0.5448 -0.5273 -0.2482
  109CHL1  H21A14305   2.545   6.017  15.656 -0.2562 -0.8501 -0.2553
  109CHL1  H21B14306   2.519   5.954  15.821 -0.3922  1.2005 -0.2633
  109CHL1  H21C14307   2.370   5.984  15.716 -0.6829 -0.8547  1.1148
  109CHL1   C2214308   2.435   5.798  15.513 -0.5420 -0.1173 -0.3080
  109CHL1  H22A14309   2.440   5.690  15.485 -3.2148 -0.1538 -0.9364
  109CHL1  H22B14310   2.328   5.825  15.505 -0.8877 -1.3859 -0.2059
  109CHL1   C2314311   2.537   5.866  15.418  0.1875 -0.9088 -0.7016
  109CHL1  H23A14312   2.525   5.975  15.437  0.5462 -1.1352  0.9954
  109CHL1  H23B14313   2.641   5.837  15.444  0.9565  0.1897 -2.3977
  109CHL1   C2414314   2.505   5.836  15.269  0.1082 -0.0006  0.6105
  109CHL1  H24A14315   2.514   5.726  15.254 -2.3980 -0.3631  1.4099
  109CHL1  H24B14316   2.398   5.862  15.253 -0.4597 -1.1372  2.3898
  109CHL1   C2514317   2.580   5.912  15.161 -0.1338  0.8226 -0.5536
  109CHL1   H2514318   2.570   6.018  15.191 -0.6843  0.6672 -0.1787
  109CHL1   C2614319   2.723   5.871  15.169  0.0285 -0.3700 -0.3793
  109CHL1  H26A14320   2.771   5.903  15.263  1.0620  0.7933 -1.2643
  109CHL1  H26B14321   2.743   5.763  15.155 -0.2935 -0.5782  0.6850
  109CHL1  H26C14322   2.788   5.919  15.092 -0.4375  1.0868  0.1067
  109CHL1   C2714323   2.522   5.889  15.029 -0.1114  0.5040 -0.1524
  109CHL1  H27A14324   2.573   5.955  14.956  0.5004  0.4363  0.2122
  109CHL1  H27B14325   2.536   5.786  14.991  2.0163  1.8198 -3.3214
  109CHL1  H27C14326   2.417   5.925  15.020  0.1558  0.9361 -1.8374
  110CHL1    C314327   1.318   5.509  16.828  0.2785  0.4034  0.0547
  110CHL1    H314328   1.268   5.417  16.865  2.6224 -0.5373  1.0528
  110CHL1    O314329   1.304   5.610  16.925  0.0089 -0.2792 -0.4195
  110CHL1   H3'14330   1.302   5.691  16.875  0.5542 -1.3570 -2.3018
  110CHL1    C414331   1.466   5.479  16.802  0.2384  0.2465  0.6616
  110CHL1   H4A14332   1.504   5.583  16.793 -1.0914  0.7395  0.5159
  110CHL1   H4B14333   1.522   5.446  16.892 -1.8886  2.4444  2.9657
  110CHL1    C514334   1.494   5.398  16.675  0.0606 -0.2874 -0.5235
  110CHL1    C614335   1.574   5.294  16.682  0.0764 -0.1627  0.0208
  110CHL1    H614336   1.621   5.266  16.778 -1.9499  2.2256  1.8476
  110CHL1    C714337   1.611   5.213  16.560  0.4695 -0.0697  0.3593
  110CHL1   H7A14338   1.716   5.179  16.555  0.0165 -1.6189  0.8991
  110CHL1   H7B14339   1.560   5.114  16.565  0.5813 -0.0474  2.4053
  110CHL1    C814340   1.576   5.285  16.431  0.0210 -0.6616  0.8068
  110CHL1    H814341   1.654   5.364  16.423 -1.3903  1.0953  3.1623
  110CHL1   C1414342   1.586   5.185  16.315  0.1877 -1.0394 -0.1245
  110CHL1   H1414343   1.517   5.103  16.345 -1.3801  0.4914  0.6608
  110CHL1   C1514344   1.722   5.133  16.286 -0.0716 -0.3429  0.0470
  110CHL1  H15A14345   1.794   5.216  16.301  1.2291 -1.5172  0.4850
  110CHL1  H15B14346   1.747   5.043  16.346 -1.1856 -1.2734 -0.8527
  110CHL1   C1614347   1.713   5.086  16.144 -0.1229 -0.3034 -0.5725
  110CHL1  H16A14348   1.786   5.133  16.074 -1.3915  1.6385 -0.6658
  110CHL1  H16B14349   1.734   4.977  16.146  1.1864 -0.0505  0.7924
  110CHL1   C1714350   1.578   5.125  16.083  0.1773  0.3803 -1.0820
  110CHL1   H1714351   1.509   5.043  16.109 -0.9057  0.7113 -2.7635
  110CHL1   C1314352   1.534   5.240  16.183 -0.5260 -0.1107 -0.2313
  110CHL1   C1814353   1.618   5.366  16.135 -0.0207  0.0115 -0.4375
  110CHL1  H18A14354   1.724   5.342  16.112  0.6700  2.1748  0.2070
  110CHL1  H18B14355   1.568   5.407  16.045  0.7276 -0.6067 -1.1521
  110CHL1  H18C14356   1.620   5.451  16.207 -2.2722  0.5353 -0.9422
  110CHL1   C1214357   1.384   5.271  16.200 -0.1672  0.8893 -0.0198
  110CHL1  H12A14358   1.324   5.299  16.110 -1.0409 -1.4726 -0.2271
  110CHL1  H12B14359   1.336   5.186  16.251  1.4606  0.5512  1.0238
  110CHL1   C1114360   1.354   5.380  16.296  0.0553  0.1529 -0.0788
  110CHL1  H11A14361   1.383   5.480  16.258 -0.4746  0.7245  0.9676
  110CHL1  H11B14362   1.248   5.380  16.329  0.6272  1.8158  1.9671
  110CHL1    C914363   1.433   5.349  16.435 -0.2321 -0.0176 -0.1522
  110CHL1    H914364   1.382   5.256  16.467  2.5743 -1.6931 -0.2478
  110CHL1   C1014365   1.423   5.445  16.547 -0.2696 -0.0545 -0.1240
  110CHL1   C1914366   1.489   5.573  16.500 -0.6606  0.0250 -0.1457
  110CHL1  H19A14367   1.429   5.617  16.417 -0.7704  1.4294  0.6623
  110CHL1  H19B14368   1.503   5.656  16.572  0.0742  1.7306 -2.1345
  110CHL1  H19C14369   1.592   5.551  16.463  0.3036  1.2957  1.6621
  110CHL1    C114370   1.270   5.470  16.585 -0.1091  0.4214  0.1748
  110CHL1   H1A14371   1.216   5.519  16.501 -1.5463 -0.7851  0.3544
  110CHL1   H1B14372   1.226   5.370  16.605  0.0461  0.5744  1.3406
  110CHL1    C214373   1.243   5.559  16.705  0.6097  0.4241 -0.0244
  110CHL1   H2A14374   1.134   5.572  16.718  0.7183 -0.3349  1.8701
  110CHL1   H2B14375   1.285   5.660  16.689 -0.6789  1.0003  0.1361
  110CHL1   C2014376   1.581   5.141  15.929 -0.1346  0.9401 -0.3445
  110CHL1   H2014377   1.659   5.212  15.896  1.0969 -0.5389 -0.7250
  110CHL1   C2114378   1.448   5.198  15.877 -0.1371 -0.4146  0.2381
  110CHL1  H21A14379   1.432   5.298  15.924  1.9206  0.0368  0.0812
  110CHL1  H21B14380   1.369   5.125  15.904  1.4765 -2.6529 -0.8582
  110CHL1  H21C14381   1.474   5.209  15.770  0.3207 -1.1051  0.2756
  110CHL1   C2214382   1.618   5.011  15.858  0.1674  0.5765 -0.1634
  110CHL1  H22A14383   1.697   4.961  15.918  0.0210 -0.3837 -0.7427
  110CHL1  H22B14384   1.526   4.950  15.859 -0.2405  1.1875 -0.1609
  110CHL1   C2314385   1.670   5.026  15.712 -0.1290 -0.4577 -1.0858
  110CHL1  H23A14386   1.595   5.090  15.660 -0.6132  0.6777  0.8885
  110CHL1  H23B14387   1.763   5.085  15.719 -0.7271  0.3113  2.5028
  110CHL1   C2414388   1.696   4.886  15.648  0.0728 -0.8003 -0.0839
  110CHL1  H24A14389   1.760   4.823  15.713 -1.2905 -1.5389  0.5821
  110CHL1  H24B14390   1.595   4.839  15.655  0.4660 -2.2945 -2.8341
  110CHL1   C2514391   1.751   4.886  15.500 -0.5658  0.1244  0.0816
  110CHL1   H2514392   1.846   4.943  15.512 -0.7406  1.7732 -4.4598
  110CHL1   C2614393   1.793   4.752  15.442  0.5097  0.4577  0.7122
  110CHL1  H26A14394   1.799   4.773  15.334 -1.3531  1.6356  0.8008
  110CHL1  H26B14395   1.898   4.733  15.473  0.4855 -1.2509 -0.1496
  110CHL1  H26C14396   1.734   4.660  15.461  0.9605 -0.6631 -2.6463
  110CHL1   C2714397   1.650   4.968  15.410 -0.5580 -0.1198 -0.0384
  110CHL1  H27A14398   1.554   4.911  15.418 -0.3058 -0.8757 -1.9441
  110CHL1  H27B14399   1.638   5.072  15.447 -0.0664 -0.1098  0.0949
  110CHL1  H27C14400   1.674   4.977  15.302 -1.8369  2.3694 -0.1818
  111CHL1    C314401   2.729   7.413  16.759  0.0840 -0.7302  0.0292
  111CHL1    H314402   2.620   7.432  16.749 -0.0660 -1.7369 -0.3495
  111CHL1    O314403   2.766   7.379  16.895  1.0325 -0.1579  0.6468
  111CHL1   H3'14404   2.804   7.455  16.938 -0.6980  0.6323  0.8784
  111CHL1    C414405   2.764   7.308  16.662  0.2919 -0.0208 -0.1661
  111CHL1   H4A14406   2.874   7.292  16.661  0.4811  0.1794  3.7829
  111CHL1   H4B14407   2.726   7.209  16.694 -1.5517  1.4813  2.7092
  111CHL1    C514408   2.717   7.357  16.524  0.2545  0.2487  0.2810
  111CHL1    C614409   2.644   7.278  16.445  0.5394 -0.3684 -0.0873
  111CHL1    H614410   2.615   7.180  16.487  1.8176  0.0290  1.8605
  111CHL1    C714411   2.603   7.312  16.305 -0.0566 -0.3198  0.7353
  111CHL1   H7A14412   2.612   7.217  16.249 -1.6941 -0.5725  0.8527
  111CHL1   H7B14413   2.500   7.352  16.303 -0.3636 -1.1006 -1.3059
  111CHL1    C814414   2.691   7.426  16.247 -0.1856 -0.4179 -0.1764
  111CHL1    H814415   2.783   7.376  16.210  0.8352  1.5609 -0.3832
  111CHL1   C1414416   2.628   7.493  16.120  0.0948 -1.0116 -0.3120
  111CHL1   H1414417   2.527   7.528  16.152  0.6135 -1.3649  1.8843
  111CHL1   C1514418   2.599   7.404  16.000  0.2696 -0.5244 -0.3350
  111CHL1  H15A14419   2.682   7.332  15.982 -0.2316 -1.0583 -0.5523
  111CHL1  H15B14420   2.514   7.339  16.031  0.3909  0.0194  1.2380
  111CHL1   C1614421   2.569   7.502  15.885 -0.0185  0.5907  0.0502
  111CHL1  H16A14422   2.613   7.465  15.790  1.6078 -0.5593  1.2065
  111CHL1  H16B14423   2.460   7.518  15.870  0.0609  1.5170  0.3820
  111CHL1   C1714424   2.619   7.644  15.933 -0.9136 -0.0498 -0.0251
  111CHL1   H1714425   2.530   7.706  15.959 -0.9856  0.0724 -0.5663
  111CHL1   C1314426   2.703   7.609  16.057 -0.3995  0.7123  0.1909
  111CHL1   C1814427   2.841   7.551  16.002  0.1350 -0.6616  0.6306
  111CHL1  H18A14428   2.902   7.519  16.090 -1.2487  1.2468  2.3571
  111CHL1  H18B14429   2.823   7.459  15.942 -3.6036 -1.0635  2.0888
  111CHL1  H18C14430   2.900   7.623  15.942 -0.9060 -1.4794 -1.4824
  111CHL1   C1214431   2.721   7.725  16.157 -0.0069 -0.2387 -0.0565
  111CHL1  H12A14432   2.789   7.799  16.111 -0.5557 -0.5496 -1.4104
  111CHL1  H12B14433   2.627   7.774  16.190 -0.4639 -1.1757  0.0608
  111CHL1   C1114434   2.789   7.669  16.284 -0.0373 -0.2625 -0.0219
  111CHL1  H11A14435   2.894   7.645  16.258  0.3281  0.6802  0.5633
  111CHL1  H11B14436   2.794   7.751  16.359 -0.0907  0.5118 -0.8527
  111CHL1    C914437   2.719   7.539  16.349  0.1433 -0.2922 -0.1949
  111CHL1    H914438   2.620   7.579  16.380  0.4801  0.5578 -0.1743
  111CHL1   C1014439   2.784   7.492  16.471  0.2509  0.0742 -0.3125
  111CHL1   C1914440   2.938   7.468  16.452 -0.2586  0.1818  0.1321
  111CHL1  H19A14441   2.946   7.377  16.388  0.6359 -0.0471  0.5575
  111CHL1  H19B14442   2.991   7.559  16.417 -0.4785 -0.4152 -1.9172
  111CHL1  H19C14443   2.985   7.447  16.550 -0.7361 -0.1175  0.3015
  111CHL1    C114444   2.757   7.594  16.585  0.2341 -0.3116 -0.6119
  111CHL1   H1A14445   2.807   7.689  16.557  2.9983 -2.0376 -1.9562
  111CHL1   H1B14446   2.647   7.609  16.582  0.2913  0.0809 -0.8566
  111CHL1    C214447   2.792   7.547  16.723 -0.7428 -0.2008  0.2541
  111CHL1   H2A14448   2.765   7.611  16.809 -3.2922 -2.6391  1.4175
  111CHL1   H2B14449   2.903   7.537  16.724 -0.7055  0.2069  0.6986
  111CHL1   C2014450   2.689   7.733  15.825 -0.3100  0.1128 -0.3336
  111CHL1   H2014451   2.784   7.688  15.788 -1.2836 -2.4875  0.0796
  111CHL1   C2114452   2.730   7.879  15.874 -0.4700 -0.4697 -0.1768
  111CHL1  H21A14453   2.827   7.859  15.924 -1.7033 -1.2219  2.0526
  111CHL1  H21B14454   2.652   7.930  15.935 -1.4742  0.4872 -2.1742
  111CHL1  H21C14455   2.746   7.938  15.782  1.7047 -0.6682  0.0239
  111CHL1   C2214456   2.591   7.746  15.708 -0.0473  0.4217  0.6098
  111CHL1  H22A14457   2.536   7.652  15.688  0.6767  0.0779  0.1926
  111CHL1  H22B14458   2.516   7.819  15.747 -1.6339 -1.8215  1.9763
  111CHL1   C2314459   2.647   7.783  15.570 -0.0110 -0.1697 -0.1622
  111CHL1  H23A14460   2.563   7.812  15.503 -2.5302  1.2083  3.2494
  111CHL1  H23B14461   2.711   7.874  15.575  0.3057 -0.4582  1.6116
  111CHL1   C2414462   2.736   7.675  15.503  0.2569 -0.3850 -0.7446
  111CHL1  H24A14463   2.788   7.724  15.418 -1.5215 -1.6421 -2.6610
  111CHL1  H24B14464   2.820   7.635  15.563  0.1806 -0.4658 -0.6911
  111CHL1   C2514465   2.662   7.554  15.448 -0.7135  0.1937  0.5697
  111CHL1   H2514466   2.613   7.500  15.532  1.4503 -0.6410  1.3839
  111CHL1   C2614467   2.556   7.589  15.341 -0.4880 -0.0152  0.1216
  111CHL1  H26A14468   2.526   7.497  15.285  2.3893  0.1268 -1.9268
  111CHL1  H26B14469   2.467   7.627  15.395 -2.4236 -2.2742 -1.2553
  111CHL1  H26C14470   2.597   7.663  15.269 -0.6273  0.7923  0.8686
  111CHL1   C2714471   2.761   7.456  15.389  0.1668  0.7512  0.2293
  111CHL1  H27A14472   2.738   7.347  15.392  1.2267  0.4997 -0.2827
  111CHL1  H27B14473   2.779   7.484  15.283  1.0301 -1.1208 -0.1634
  111CHL1  H27C14474   2.854   7.459  15.449 -0.8895 -0.7706  2.0698
  112CHL1    C314475   5.009   0.560  16.797 -1.2327 -0.1843  0.5411
  112CHL1    H314476   4.973   0.664  16.785 -1.3520 -0.1115  1.4359
  112CHL1    O314477   4.981   0.514  16.927  0.0053 -0.0444 -0.3122
  112CHL1   H3'14478   4.951   0.427  16.901 -1.3059 -0.0594  1.1384
  112CHL1    C414479   4.937   0.467  16.687 -0.0822  0.4204 -0.0108
  112CHL1   H4A14480   4.985   0.369  16.707  1.9178  1.2439 -0.4260
  112CHL1   H4B14481   4.830   0.461  16.716  0.0337  1.6124  0.7189
  112CHL1    C514482   4.964   0.511  16.542 -0.3038 -0.0949 -0.0698
  112CHL1    C614483   4.862   0.529  16.457  0.4416  0.1759 -0.7965
  112CHL1    H614484   4.760   0.506  16.491  0.4119  1.4956  0.0445
  112CHL1    C714485   4.872   0.583  16.321 -0.2036 -0.3922 -0.7726
  112CHL1   H7A14486   4.798   0.541  16.250 -0.1188 -0.0399 -1.0766
  112CHL1   H7B14487   4.865   0.694  16.330 -0.8886 -0.3599 -1.5369
  112CHL1    C814488   5.020   0.568  16.270  0.2972 -0.1709 -0.9349
  112CHL1    H814489   5.043   0.461  16.254  0.7298 -0.2779  0.3248
  112CHL1   C1414490   5.035   0.642  16.148 -0.1644 -0.5888  0.2736
  112CHL1   H1414491   5.012   0.747  16.172  4.6022  0.8540 -0.4703
  112CHL1   C1514492   4.932   0.606  16.038 -0.3915 -0.2835  0.3129
  112CHL1  H15A14493   4.918   0.496  16.038  2.8966 -0.8047  1.3713
  112CHL1  H15B14494   4.829   0.645  16.056 -0.3428 -1.0009  2.3390
  112CHL1   C1614495   4.995   0.665  15.912 -0.5312 -0.6556  0.0503
  112CHL1  H16A14496   4.993   0.595  15.825  0.4332 -0.1446 -0.4085
  112CHL1  H16B14497   4.935   0.755  15.887  1.8270  1.0759  0.2163
  112CHL1   C1714498   5.136   0.724  15.951  0.1221  0.5102 -1.0524
  112CHL1   H1714499   5.115   0.828  15.984 -2.4977 -0.8469  2.1026
  112CHL1   C1314500   5.174   0.641  16.079  0.4764 -0.8092  0.0697
  112CHL1   C1814501   5.212   0.498  16.037 -0.0017  0.4435  0.0068
  112CHL1  H18A14502   5.147   0.451  15.961 -1.7921 -1.2689  2.4156
  112CHL1  H18B14503   5.314   0.499  15.993  0.4535  1.3820  1.0280
  112CHL1  H18C14504   5.220   0.435  16.129  2.7209  2.3485  1.2198
  112CHL1   C1214505   5.279   0.704  16.177 -0.0212 -0.1171 -0.0091
  112CHL1  H12A14506   5.380   0.687  16.136  0.2430  1.2107  0.0417
  112CHL1  H12B14507   5.253   0.812  16.183  1.4011  0.3492 -1.5224
  112CHL1   C1114508   5.268   0.630  16.312 -0.4555 -0.0773 -0.5075
  112CHL1  H11A14509   5.317   0.533  16.291 -0.5515  0.0847 -1.5579
  112CHL1  H11B14510   5.338   0.682  16.380 -1.9356  0.3662  0.7306
  112CHL1    C914511   5.124   0.627  16.369  0.3172 -0.2321  0.2462
  112CHL1    H914512   5.104   0.734  16.391  0.6504  0.0192 -0.6658
  112CHL1   C1014513   5.109   0.548  16.507 -0.6696  0.1850  0.5754
  112CHL1   C1914514   5.186   0.408  16.501  0.1525 -0.2041 -0.3793
  112CHL1  H19A14515   5.174   0.346  16.592  2.9730 -0.1920  0.0940
  112CHL1  H19B14516   5.144   0.354  16.414 -0.5355  1.5190 -1.1618
  112CHL1  H19C14517   5.293   0.435  16.486 -0.0233  0.3050 -0.7569
  112CHL1    C114518   5.183   0.616  16.620  0.0502 -0.2722  0.4662
  112CHL1   H1A14519   5.291   0.615  16.596 -0.1030  0.3808 -0.3200
  112CHL1   H1B14520   5.159   0.724  16.612 -1.4657 -0.5291  1.1917
  112CHL1    C214521   5.158   0.564  16.762 -0.0564 -0.4704  0.4935
  112CHL1   H2A14522   5.219   0.635  16.823  0.9006  0.1786 -1.1582
  112CHL1   H2B14523   5.212   0.466  16.770 -1.8329 -1.7805 -2.2521
  112CHL1   C2014524   5.239   0.726  15.834  0.6521  0.3740 -0.1000
  112CHL1   H2014525   5.295   0.630  15.822 -0.5306 -0.0716 -2.6136
  112CHL1   C2114526   5.330   0.843  15.870  0.2839 -0.3270  0.0611
  112CHL1  H21A14527   5.379   0.818  15.967  0.7778  1.8568  0.4202
  112CHL1  H21B14528   5.272   0.938  15.872  0.0620 -0.4681  1.6668
  112CHL1  H21C14529   5.412   0.848  15.796  0.0960  0.9411 -0.0731
  112CHL1   C2214530   5.178   0.753  15.700  0.1569 -0.2231 -0.0446
  112CHL1  H22A14531   5.107   0.673  15.669  0.0904 -0.1728 -0.0206
  112CHL1  H22B14532   5.117   0.846  15.699  0.4431 -0.0347  0.0506
  112CHL1   C2314533   5.280   0.774  15.583  0.2453  0.4350 -0.3714
  112CHL1  H23A14534   5.296   0.884  15.577  1.0095  0.3495  0.0251
  112CHL1  H23B14535   5.381   0.736  15.607 -0.7664 -1.3593  1.3111
  112CHL1   C2414536   5.218   0.718  15.459 -0.1359  0.0262  0.0035
  112CHL1  H24A14537   5.163   0.622  15.457 -3.6410  1.7637  2.2923
  112CHL1  H24B14538   5.137   0.792  15.441  1.7130  2.3636  0.7525
  112CHL1   C2514539   5.320   0.729  15.341 -0.5299 -0.2137 -0.1136
  112CHL1   H2514540   5.400   0.666  15.385  0.0746 -0.9674 -2.1854
  112CHL1   C2614541   5.254   0.677  15.210  0.6390 -0.1023  0.3754
  112CHL1  H26A14542   5.167   0.733  15.172 -0.0511 -0.1445  1.8109
  112CHL1  H26B14543   5.334   0.666  15.134  0.1489 -0.2927 -0.1194
  112CHL1  H26C14544   5.216   0.575  15.232  1.7537 -0.7527 -0.6368
  112CHL1   C2714545   5.367   0.874  15.321 -0.3198  0.1366 -0.1244
  112CHL1  H27A14546   5.419   0.916  15.410  0.0211 -0.2602 -0.1305
  112CHL1  H27B14547   5.447   0.864  15.245 -0.8142  1.2734 -0.8176
  112CHL1  H27C14548   5.288   0.942  15.283 -1.0184 -1.7579 -2.2682
  113CHL1    C314549   1.191   5.019  16.779  0.2311  0.5674 -1.1746
  113CHL1    H314550   1.262   5.100  16.751  0.8661  0.3314 -0.2729
  113CHL1    O314551   1.186   5.009  16.920 -0.2663 -0.4000 -0.1318
  113CHL1   H3'14552   1.144   4.924  16.933 -0.0909 -0.8954 -2.3104
  113CHL1    C414553   1.053   5.047  16.723  0.4123  0.1123 -0.3139
  113CHL1   H4A14554   0.982   4.969  16.757 -2.5263  2.4338 -0.7212
  113CHL1   H4B14555   1.021   5.137  16.780 -0.4845 -0.8365  0.7071
  113CHL1    C514556   1.050   5.063  16.575 -0.2293  0.2669  0.5395
  113CHL1    C614557   1.008   5.172  16.519 -0.4818  1.1298  0.3516
  113CHL1    H614558   0.979   5.253  16.588 -0.0828  2.0188 -0.5012
  113CHL1    C714559   1.002   5.194  16.375 -0.4276  0.6559 -0.0309
  113CHL1   H7A14560   0.908   5.251  16.355 -0.9245  0.1214  0.7474
  113CHL1   H7B14561   1.083   5.265  16.349  0.6789 -1.7762 -4.0441
  113CHL1    C814562   1.013   5.073  16.291 -0.5103  0.5223  0.0914
  113CHL1    H814563   0.919   5.014  16.303  1.1747 -2.4346 -0.2364
  113CHL1   C1414564   1.037   5.109  16.147  0.3010 -0.1963  0.5508
  113CHL1   H1414565   1.126   5.175  16.149 -2.3834  3.7749  1.7841
  113CHL1   C1514566   0.929   5.202  16.093 -0.0227  0.4009 -0.0022
  113CHL1  H15A14567   0.832   5.170  16.137  0.2764 -0.8110 -0.2034
  113CHL1  H15B14568   0.936   5.304  16.136 -0.2185 -0.1185  1.2955
  113CHL1   C1614569   0.950   5.181  15.939  0.3209  0.1224 -0.9776
  113CHL1  H16A14570   0.852   5.155  15.894  0.1886 -1.0635 -0.0681
  113CHL1  H16B14571   0.987   5.270  15.884 -1.1081  1.4406  0.1121
  113CHL1   C1714572   1.054   5.061  15.912  0.0185  0.4613 -0.2002
  113CHL1   H1714573   1.155   5.107  15.904 -1.1083  2.9645 -1.1694
  113CHL1   C1314574   1.048   4.989  16.052 -0.2319 -0.1169 -0.0210
  113CHL1   C1814575   0.920   4.906  16.064  0.2348  0.0748  0.1583
  113CHL1  H18A14576   0.835   4.964  16.024 -0.3956  0.3985  1.9260
  113CHL1  H18B14577   0.936   4.817  15.998  0.6049 -1.5506  2.3366
  113CHL1  H18C14578   0.889   4.866  16.162  0.7937  0.8218  0.6552
  113CHL1   C1214579   1.174   4.912  16.105  0.7058 -0.3390  0.2323
  113CHL1  H12A14580   1.183   4.822  16.041 -1.9846 -0.2952 -0.3163
  113CHL1  H12B14581   1.266   4.975  16.113 -0.0126  1.0904 -1.8438
  113CHL1   C1114582   1.157   4.859  16.247 -0.1162 -0.6288  0.4006
  113CHL1  H11A14583   1.079   4.780  16.258  0.5555 -1.2715  0.6299
  113CHL1  H11B14584   1.248   4.808  16.285 -0.1520 -0.5620  0.5780
  113CHL1    C914585   1.125   4.976  16.342  0.0441 -0.2376 -0.2085
  113CHL1    H914586   1.214   5.043  16.332 -0.6197  0.6469 -0.2812
  113CHL1   C1014587   1.106   4.939  16.497 -0.4414 -0.4684  0.1662
  113CHL1   C1914588   1.005   4.826  16.518  0.0325 -0.0716  0.8288
  113CHL1  H19A14589   1.008   4.802  16.626 -0.0167 -0.9314  0.6496
  113CHL1  H19B14590   0.905   4.860  16.483  0.8428  2.5725  0.8938
  113CHL1  H19C14591   1.042   4.738  16.461 -0.5943  1.2420 -1.7809
  113CHL1    C114592   1.242   4.897  16.560  0.5238 -0.3547  0.3884
  113CHL1   H1A14593   1.277   4.798  16.522  0.7931 -0.3176  0.5359
  113CHL1   H1B14594   1.320   4.968  16.523  1.2652 -0.5931  1.4258
  113CHL1    C214595   1.245   4.888  16.712  0.4068  0.1625 -0.5370
  113CHL1   H2A14596   1.351   4.888  16.746  0.3705  2.0554 -0.3096
  113CHL1   H2B14597   1.189   4.798  16.746  1.1465 -0.7327 -1.6338
  113CHL1   C2014598   1.031   4.977  15.785  0.1936  0.0009  0.4122
  113CHL1   H2014599   0.936   4.923  15.802  0.0858 -0.4724 -1.5149
  113CHL1   C2114600   1.147   4.882  15.776  0.4617  0.3083 -0.5662
  113CHL1  H21A14601   1.244   4.937  15.785  0.9165 -0.4842 -0.5463
  113CHL1  H21B14602   1.149   4.836  15.675 -2.3882  2.2006 -1.6022
  113CHL1  H21C14603   1.147   4.794  15.844  2.2525  0.0717 -0.8100
  113CHL1   C2214604   0.993   5.064  15.658 -0.3728  0.0885  0.7772
  113CHL1  H22A14605   0.954   4.997  15.579 -0.4481  1.0168  0.0020
  113CHL1  H22B14606   0.913   5.139  15.680 -0.3961  0.0614  0.7866
  113CHL1   C2314607   1.112   5.150  15.607  0.3109 -0.3359  0.4458
  113CHL1  H23A14608   1.162   5.201  15.692 -0.0751  0.1205  0.4069
  113CHL1  H23B14609   1.180   5.074  15.563 -0.2718 -0.7344  0.2064
  113CHL1   C2414610   1.076   5.249  15.501 -0.1528 -0.6343 -0.5608
  113CHL1  H24A14611   1.026   5.189  15.422 -2.3819 -0.7316  0.8340
  113CHL1  H24B14612   1.004   5.318  15.550  1.1704  0.5819 -0.2685
  113CHL1   C2514613   1.190   5.333  15.443  0.4457 -0.2248 -0.3335
  113CHL1   H2514614   1.272   5.268  15.405  0.7130 -0.7727  1.1253
  113CHL1   C2614615   1.136   5.426  15.338  0.3268  0.2304  0.8266
  113CHL1  H26A14616   1.048   5.482  15.376  1.5426  0.3597  3.7169
  113CHL1  H26B14617   1.218   5.493  15.302 -0.9386  0.9134 -0.9038
  113CHL1  H26C14618   1.097   5.363  15.255 -0.3779  1.3504  0.2856
  113CHL1   C2714619   1.261   5.422  15.548 -1.0875  0.5239 -0.3376
  113CHL1  H27A14620   1.192   5.473  15.619 -0.3954 -1.0975  1.5926
  113CHL1  H27B14621   1.335   5.365  15.607  0.0226  0.6053 -1.5993
  113CHL1  H27C14622   1.331   5.490  15.494 -2.0853  0.8927 -1.2251
  114CHL1    C314623   5.686   0.272  16.784 -0.3093  0.9206 -0.6035
  114CHL1    H314624   5.606   0.196  16.774 -1.0399  1.9485 -3.3173
  114CHL1    O314625   5.727   0.275  16.921  0.0254 -0.7343  0.2486
  114CHL1   H3'14626   5.744   0.187  16.956 -0.3668 -0.1187  2.0603
  114CHL1    C414627   5.801   0.220  16.693  0.3005 -0.3952 -0.5994
  114CHL1   H4A14628   5.886   0.289  16.714 -0.3641  0.2241  0.1433
  114CHL1   H4B14629   5.828   0.122  16.736  1.6981  0.9148  1.7177
  114CHL1    C514630   5.765   0.217  16.545  0.5329 -1.0610  0.0799
  114CHL1    C614631   5.749   0.099  16.478 -0.5896  1.0644 -0.4190
  114CHL1    H614632   5.763   0.005  16.535 -0.8875  1.0795 -0.3193
  114CHL1    C714633   5.710   0.097  16.331  0.2413  0.4567 -0.3429
  114CHL1   H7A14634   5.779   0.034  16.270 -1.1732 -0.9707 -0.5195
  114CHL1   H7B14635   5.609   0.052  16.325  1.5162 -2.7573  0.2189
  114CHL1    C814636   5.722   0.236  16.265 -0.5216  0.3254 -0.8814
  114CHL1    H814637   5.831   0.258  16.265  0.0381 -1.8624  2.2152
  114CHL1   C1414638   5.663   0.240  16.124 -0.0391 -0.1764 -0.2770
  114CHL1   H1414639   5.556   0.210  16.135  0.2208 -0.7723  0.7965
  114CHL1   C1514640   5.716   0.138  16.027 -0.3546  0.0340 -0.0473
  114CHL1  H15A14641   5.826   0.126  16.037 -0.4741 -0.7805  0.3617
  114CHL1  H15B14642   5.674   0.036  16.043  0.3611 -0.4292 -1.0279
  114CHL1   C1614643   5.680   0.193  15.890 -0.0834 -0.3539 -0.5966
  114CHL1  H16A14644   5.776   0.208  15.835  2.7362  0.6520  4.0107
  114CHL1  H16B14645   5.609   0.130  15.832 -1.1827 -0.2717  0.6125
  114CHL1   C1714646   5.626   0.343  15.910 -0.0521  0.2952 -0.7129
  114CHL1   H1714647   5.515   0.340  15.908 -0.0482 -0.5473 -0.1501
  114CHL1   C1314648   5.671   0.381  16.054  0.7994  0.0821  0.4501
  114CHL1   C1814649   5.815   0.431  16.041 -0.5400  0.5941 -0.2670
  114CHL1  H18A14650   5.874   0.361  15.978  1.1028 -0.8088  2.5616
  114CHL1  H18B14651   5.814   0.534  15.999 -1.8042  1.5938  2.0366
  114CHL1  H18C14652   5.866   0.446  16.139 -0.0113  0.0534 -0.4551
  114CHL1   C1214653   5.579   0.468  16.140 -0.4373  0.4318  0.0747
  114CHL1  H12A14654   5.568   0.570  16.099  1.3332  0.6971  0.1750
  114CHL1  H12B14655   5.480   0.418  16.135 -0.0420 -0.4139  0.3915
  114CHL1   C1114656   5.640   0.484  16.284  0.3026  0.1225  0.1120
  114CHL1  H11A14657   5.746   0.518  16.278  1.9111 -4.1406  0.6164
  114CHL1  H11B14658   5.569   0.548  16.340 -2.7465 -2.0483 -1.0022
  114CHL1    C914659   5.660   0.344  16.356  0.4904  0.8507 -0.1626
  114CHL1    H914660   5.554   0.311  16.358  0.5490  0.6059 -0.9083
  114CHL1   C1014661   5.723   0.358  16.496 -0.1473  0.6760  0.0548
  114CHL1   C1914662   5.854   0.445  16.481  0.4328 -0.1931 -0.6315
  114CHL1  H19A14663   5.904   0.458  16.579 -0.1978  3.4437 -0.6770
  114CHL1  H19B14664   5.920   0.398  16.404  2.1132  1.4818 -0.2942
  114CHL1  H19C14665   5.829   0.550  16.454  0.5540 -0.1252 -0.4824
  114CHL1    C114666   5.614   0.421  16.593  0.1481  0.0512 -0.7107
  114CHL1   H1A14667   5.596   0.523  16.553  1.8007  0.6414 -0.0475
  114CHL1   H1B14668   5.520   0.365  16.572  0.0019  1.0519 -2.9551
  114CHL1    C214669   5.637   0.411  16.739 -0.7841 -0.6281  0.1103
  114CHL1   H2A14670   5.551   0.446  16.801 -0.4305 -0.7326  0.6710
  114CHL1   H2B14671   5.714   0.491  16.743 -1.0795 -0.1308 -2.6755
  114CHL1   C2014672   5.658   0.436  15.790  0.7176 -0.2028 -0.2076
  114CHL1   H2014673   5.769   0.441  15.788  0.7232 -0.2700 -0.0674
  114CHL1   C2114674   5.594   0.576  15.814 -0.6166 -0.2466 -1.0359
  114CHL1  H21A14675   5.607   0.652  15.734  0.6998 -0.1631 -0.7611
  114CHL1  H21B14676   5.640   0.631  15.899 -0.9993  2.6092 -2.5306
  114CHL1  H21C14677   5.486   0.563  15.837 -0.4088  0.4495  0.4864
  114CHL1   C2214678   5.633   0.393  15.645 -0.2940 -0.4604 -0.0204
  114CHL1  H22A14679   5.659   0.285  15.632  2.9741  0.3119 -0.7615
  114CHL1  H22B14680   5.523   0.392  15.634 -0.3580 -2.9280  0.1745
  114CHL1   C2314681   5.699   0.471  15.528 -0.2615  0.3854  0.5882
  114CHL1  H23A14682   5.647   0.569  15.526  1.5869  1.4056 -0.1996
  114CHL1  H23B14683   5.805   0.477  15.561 -0.4064  1.0063  0.9556
  114CHL1   C2414684   5.700   0.400  15.394 -0.3251  0.0349  0.1534
  114CHL1  H24A14685   5.742   0.299  15.412  1.2644  0.8444  1.2618
  114CHL1  H24B14686   5.603   0.401  15.341  0.4616  1.9803 -1.3816
  114CHL1   C2514687   5.793   0.475  15.292 -0.5890 -0.1411  0.3702
  114CHL1   H2514688   5.886   0.507  15.344  0.0005 -1.4803  0.2024
  114CHL1   C2614689   5.834   0.379  15.179 -0.4759 -1.0691  0.0092
  114CHL1  H26A14690   5.750   0.322  15.133 -0.6846 -0.7524 -0.0083
  114CHL1  H26B14691   5.890   0.436  15.102  2.5062 -1.2135  1.9301
  114CHL1  H26C14692   5.911   0.309  15.217  0.2301 -1.7159 -2.4089
  114CHL1   C2714693   5.726   0.592  15.231 -0.1285 -0.5130  0.3878
  114CHL1  H27A14694   5.800   0.632  15.158 -1.8632  1.2081 -0.5184
  114CHL1  H27B14695   5.631   0.558  15.185  0.3530 -1.7778  0.2724
  114CHL1  H27C14696   5.707   0.669  15.309  0.7633  3.0084 -2.5982
  115CHL1    C314697   1.857   0.228  16.732 -0.2176 -0.1985 -0.6518
  115CHL1    H314698   1.953   0.218  16.677 -0.4514 -0.9362 -0.9338
  115CHL1    O314699   1.865   0.225  16.874 -0.1724  0.1600 -0.4855
  115CHL1   H3'14700   1.777   0.258  16.892 -0.2668 -0.3239 -0.0466
  115CHL1    C414701   1.806   0.361  16.666 -0.3073 -0.5245  0.0447
  115CHL1   H4A14702   1.724   0.401  16.730  0.9778  0.1241  1.3593
  115CHL1   H4B14703   1.882   0.442  16.677 -1.9691  1.4575 -2.1173
  115CHL1    C514704   1.769   0.359  16.518  0.2353  0.0174 -1.1807
  115CHL1    C614705   1.804   0.459  16.438  0.6605 -0.1680 -0.0888
  115CHL1    H614706   1.842   0.554  16.478  0.3064 -1.2866  3.1651
  115CHL1    C714707   1.778   0.453  16.292  0.2744  0.1057  0.0384
  115CHL1   H7A14708   1.738   0.549  16.253  0.7275  1.0769  1.8642
  115CHL1   H7B14709   1.875   0.429  16.243  0.3823 -0.6539  0.6093
  115CHL1    C814710   1.684   0.343  16.239  0.0527  0.6490  0.1665
  115CHL1    H814711   1.582   0.377  16.269  0.0476 -1.1481  2.4099
  115CHL1   C1414712   1.697   0.314  16.089 -0.5212 -0.1920  0.6942
  115CHL1   H1414713   1.802   0.281  16.074 -0.6766 -0.4670  0.1521
  115CHL1   C1514714   1.700   0.434  15.989 -0.2982 -0.0248  1.2005
  115CHL1  H15A14715   1.631   0.513  16.026 -0.3800  0.4658  0.0367
  115CHL1  H15B14716   1.802   0.473  15.973  0.5944 -1.6143  2.5991
  115CHL1   C1614717   1.659   0.373  15.857 -0.3115  0.1715 -0.0211
  115CHL1  H16A14718   1.559   0.405  15.820 -0.7443 -1.6745 -0.5304
  115CHL1  H16B14719   1.735   0.363  15.778  0.6115 -3.5197  1.1340
  115CHL1   C1714720   1.640   0.221  15.882 -0.1159  1.0296 -0.4029
  115CHL1   H1714721   1.741   0.174  15.872  0.4950  2.0771  0.5885
  115CHL1   C1314722   1.605   0.202  16.030 -0.1096 -0.5840  0.3279
  115CHL1   C1814723   1.455   0.235  16.047  0.1711 -0.2224 -0.9409
  115CHL1  H18A14724   1.436   0.260  16.154 -0.2469 -0.4032 -0.9705
  115CHL1  H18B14725   1.418   0.312  15.976 -0.1733  0.0896 -0.4285
  115CHL1  H18C14726   1.394   0.149  16.013 -0.5503 -0.4143  0.7365
  115CHL1   C1214727   1.651   0.076  16.101  0.2979  0.6224  0.2323
  115CHL1  H12A14728   1.578  -0.004  16.076  0.3309 -0.5428  3.4180
  115CHL1  H12B14729   1.756   0.057  16.071  0.8533  1.3614  1.6049
  115CHL1   C1114730   1.641   0.090  16.256  1.0131 -0.0826  0.1958
  115CHL1  H11A14731   1.533   0.094  16.280  1.1289 -1.3799  1.0358
  115CHL1  H11B14732   1.676  -0.007  16.298  0.3517 -0.5901 -0.3983
  115CHL1    C914733   1.711   0.215  16.314  0.0258 -0.6177  0.4291
  115CHL1    H914734   1.813   0.186  16.281 -0.1699  1.1850 -2.0605
  115CHL1   C1014735   1.707   0.234  16.467 -0.1460  0.5655 -0.0126
  115CHL1   C1914736   1.556   0.242  16.513  0.4648  0.3852  0.1019
  115CHL1  H19A14737   1.552   0.261  16.623  2.3412  2.0330 -0.0575
  115CHL1  H19B14738   1.511   0.333  16.467  1.2380 -0.5219 -2.6294
  115CHL1  H19C14739   1.493   0.152  16.499 -0.7803  0.8802  2.0842
  115CHL1    C114740   1.767   0.107  16.531 -0.3914 -1.1965  0.7181
  115CHL1   H1A14741   1.713   0.017  16.496 -0.7612 -0.3044 -1.1076
  115CHL1   H1B14742   1.870   0.101  16.490 -0.0484 -0.5712  1.4637
  115CHL1    C214743   1.776   0.109  16.680 -0.2155 -0.2409 -0.1100
  115CHL1   H2A14744   1.818   0.013  16.717 -1.9613 -0.6231  0.9810
  115CHL1   H2B14745   1.678   0.119  16.730  0.9673  1.8509  2.0220
  115CHL1   C2014746   1.549   0.146  15.780 -0.6090  0.0522  0.1532
  115CHL1   H2014747   1.441   0.152  15.806 -1.1040  0.6728 -1.8525
  115CHL1   C2114748   1.591  -0.001  15.785 -0.2266  0.0090  0.2273
  115CHL1  H21A14749   1.600  -0.049  15.885 -1.4757  2.3620  1.5521
  115CHL1  H21B14750   1.687  -0.028  15.735  0.4562 -2.3756  2.5652
  115CHL1  H21C14751   1.521  -0.055  15.717  1.0377 -0.7564 -0.5056
  115CHL1   C2214752   1.564   0.200  15.633 -0.4288 -0.4354 -0.0427
  115CHL1  H22A14753   1.525   0.304  15.632 -2.7483 -1.1299 -3.7605
  115CHL1  H22B14754   1.671   0.201  15.602 -0.4249  1.3455 -0.1017
  115CHL1   C2314755   1.478   0.117  15.540 -0.2896  0.4970 -0.1601
  115CHL1  H23A14756   1.535   0.031  15.498  0.8859  2.0893 -1.9275
  115CHL1  H23B14757   1.387   0.082  15.595 -0.9531  1.5718 -0.5385
  115CHL1   C2414758   1.439   0.205  15.425  0.1604 -0.3703 -0.2057
  115CHL1  H24A14759   1.390   0.292  15.474  1.1287 -0.6413  1.3271
  115CHL1  H24B14760   1.533   0.237  15.376  0.4921 -0.3853  0.4057
  115CHL1   C2514761   1.331   0.156  15.326 -0.1165 -0.2130 -0.0334
  115CHL1   H2514762   1.253   0.095  15.376 -1.6590 -0.4824 -2.6092
  115CHL1   C2614763   1.251   0.268  15.273  0.5106  0.2255  0.3695
  115CHL1  H26A14764   1.322   0.342  15.229  1.2121 -0.2133  0.7377
  115CHL1  H26B14765   1.183   0.225  15.196 -0.4973  0.3066  1.1895
  115CHL1  H26C14766   1.199   0.331  15.348  1.3788  0.2257  0.9901
  115CHL1   C2714767   1.404   0.081  15.207 -0.6721 -0.1728 -0.3313
  115CHL1  H27A14768   1.436  -0.016  15.249 -1.4686 -1.6585 -2.9200
  115CHL1  H27B14769   1.341   0.035  15.128  0.0420 -3.7582  1.0056
  115CHL1  H27C14770   1.481   0.138  15.150 -1.2774  2.1373  1.0134
  116CHL1    C314771   2.330   0.146  16.755  0.3539  0.5026 -0.1157
  116CHL1    H314772   2.262   0.099  16.830  1.8503  1.1925  1.7639
  116CHL1    O314773   2.414   0.237  16.821 -0.2142  0.1742  0.4489
  116CHL1   H3'14774   2.451   0.184  16.892  0.3423  2.6383  2.1274
  116CHL1    C414775   2.414   0.043  16.677 -0.3464 -0.3104 -0.4830
  116CHL1   H4A14776   2.495   0.095  16.621 -0.5353 -0.8332 -1.2603
  116CHL1   H4B14777   2.456  -0.016  16.761  0.0607  1.9330  0.9985
  116CHL1    C514778   2.349  -0.050  16.579  0.4785  0.5535 -0.3962
  116CHL1    C614779   2.354  -0.184  16.594  0.0624  0.5869 -0.1158
  116CHL1    H614780   2.405  -0.225  16.683  2.1748 -1.1698 -1.9940
  116CHL1    C714781   2.294  -0.281  16.495  0.0443  0.6155  0.0404
  116CHL1   H7A14782   2.358  -0.367  16.464 -0.7313  0.3866 -0.9642
  116CHL1   H7B14783   2.201  -0.322  16.541  0.4971 -1.5792 -0.8515
  116CHL1    C814784   2.251  -0.208  16.364 -0.2798  0.0486 -0.0462
  116CHL1    H814785   2.342  -0.178  16.308 -2.6149  1.6518 -3.2613
  116CHL1   C1414786   2.158  -0.294  16.281 -0.5127 -0.0139  0.1293
  116CHL1   H1414787   2.068  -0.303  16.346 -0.6579 -0.5521 -0.1445
  116CHL1   C1514788   2.200  -0.442  16.255 -0.8574  0.2933 -0.2709
  116CHL1  H15A14789   2.308  -0.457  16.235 -0.7774  0.1676  0.2297
  116CHL1  H15B14790   2.173  -0.509  16.339 -1.1368  0.5310 -0.1703
  116CHL1   C1614791   2.123  -0.484  16.126 -0.5505 -0.3565 -0.1846
  116CHL1  H16A14792   2.197  -0.516  16.050  1.2666 -1.9759  2.1351
  116CHL1  H16B14793   2.052  -0.566  16.149 -0.8094  0.0881  0.6322
  116CHL1   C1714794   2.037  -0.357  16.088 -0.0768 -0.0706  0.2518
  116CHL1   H1714795   1.941  -0.361  16.144 -0.4068  2.1375 -0.0853
  116CHL1   C1314796   2.115  -0.239  16.146  0.3021 -0.4171  0.4803
  116CHL1   C1814797   2.242  -0.215  16.056 -0.2223 -0.4724 -0.2246
  116CHL1  H18A14798   2.311  -0.146  16.109 -0.9384 -1.6965  2.4419
  116CHL1  H18B14799   2.306  -0.306  16.050  1.4794  0.5796  0.9644
  116CHL1  H18C14800   2.213  -0.176  15.956 -0.1739  0.1034 -0.0182
  116CHL1   C1214801   2.035  -0.107  16.177  0.2870 -0.0092 -0.4898
  116CHL1  H12A14802   2.002  -0.053  16.086  0.2027 -0.8315 -0.9611
  116CHL1  H12B14803   1.950  -0.142  16.240 -0.3546  1.7546 -0.3171
  116CHL1   C1114804   2.122  -0.007  16.260 -0.2383 -0.3415  0.6753
  116CHL1  H11A14805   2.208   0.026  16.197 -0.0871 -0.6224  0.7291
  116CHL1  H11B14806   2.054   0.074  16.293  1.5559  1.0950  1.0363
  116CHL1    C914807   2.179  -0.072  16.389 -0.4638 -0.0826 -0.1185
  116CHL1    H914808   2.092  -0.099  16.452  1.5050 -2.1089  1.9423
  116CHL1   C1014809   2.270   0.024  16.473  0.6701 -0.3774  0.0804
  116CHL1   C1914810   2.366   0.104  16.374  0.3504  0.4695 -0.0780
  116CHL1  H19A14811   2.419   0.037  16.303  1.9512  0.4754  1.0518
  116CHL1  H19B14812   2.311   0.181  16.316  1.0379  0.1525 -1.1700
  116CHL1  H19C14813   2.443   0.155  16.435  1.6476 -3.5854  2.0386
  116CHL1    C114814   2.175   0.121  16.550 -0.3628 -0.0267  0.1194
  116CHL1   H1A14815   2.110   0.179  16.481  0.5193  2.2816  1.1219
  116CHL1   H1B14816   2.099   0.062  16.605 -0.6971  0.5492  0.2882
  116CHL1    C214817   2.241   0.213  16.647  0.6627  0.0650  0.3820
  116CHL1   H2A14818   2.169   0.267  16.711  1.1754  1.5393 -0.2312
  116CHL1   H2B14819   2.298   0.290  16.591  0.3567  0.9693  1.2941
  116CHL1   C2014820   2.008  -0.366  15.937 -0.4230 -0.9095 -0.3242
  116CHL1   H2014821   2.104  -0.367  15.881  0.3507  0.1023  0.9327
  116CHL1   C2114822   1.927  -0.243  15.889 -0.5451  0.1394 -0.0028
  116CHL1  H21A14823   1.912  -0.245  15.779 -1.3111  1.2269  0.0740
  116CHL1  H21B14824   1.982  -0.150  15.913  0.5721 -0.2862 -0.8355
  116CHL1  H21C14825   1.837  -0.233  15.953  0.2527  0.3179  1.1305
  116CHL1   C2214826   1.929  -0.496  15.907  0.3753  0.6022  0.7849
  116CHL1  H22A14827   1.980  -0.594  15.923 -0.1888  0.1334 -0.1356
  116CHL1  H22B14828   1.841  -0.491  15.975  0.6947 -1.1424  1.3862
  116CHL1   C2314829   1.862  -0.517  15.769 -0.4191 -0.0186  0.8038
  116CHL1  H23A14830   1.795  -0.431  15.754  1.3963  1.1397 -1.3511
  116CHL1  H23B14831   1.923  -0.511  15.676 -1.1333  0.8076  0.3766
  116CHL1   C2414832   1.770  -0.642  15.758 -0.7096  0.1458  0.1204
  116CHL1  H24A14833   1.840  -0.728  15.750 -0.5695  0.1500  1.1693
  116CHL1  H24B14834   1.724  -0.654  15.858  1.6601  1.7549  1.5120
  116CHL1   C2514835   1.658  -0.627  15.650 -0.0568  0.2582  0.3107
  116CHL1   H2514836   1.586  -0.552  15.689 -0.8349 -0.3345  0.0357
  116CHL1   C2614837   1.720  -0.571  15.517 -0.4511 -0.0008 -0.4913
  116CHL1  H26A14838   1.805  -0.637  15.491  0.0844  0.0720  0.9445
  116CHL1  H26B14839   1.646  -0.566  15.435 -0.0125  0.2631 -0.8746
  116CHL1  H26C14840   1.757  -0.466  15.530  0.8051 -0.5678  0.9390
  116CHL1   C2714841   1.588  -0.760  15.629 -0.0620  0.2538 -0.1719
  116CHL1  H27A14842   1.528  -0.778  15.721 -1.6046  2.9450 -0.5412
  116CHL1  H27B14843   1.519  -0.745  15.543  0.2123 -1.0475 -0.6519
  116CHL1  H27C14844   1.655  -0.844  15.600 -0.1702  0.1952 -0.2529
  117CHL1    C314845   6.142   0.836  16.757  0.7756  0.3854 -0.1388
  117CHL1    H314846   6.103   0.740  16.799  0.3959  0.6551  0.1306
  117CHL1    O314847   6.184   0.911  16.864 -0.6272 -0.1352 -0.0872
  117CHL1   H3'14848   6.267   0.871  16.892 -0.5129  0.7112  0.8048
  117CHL1    C414849   6.261   0.811  16.666 -0.6037  0.3393 -0.1243
  117CHL1   H4A14850   6.322   0.904  16.658 -0.7449  0.5181  0.7464
  117CHL1   H4B14851   6.331   0.738  16.712  2.4506  1.5114 -2.4945
  117CHL1    C514852   6.226   0.777  16.522  0.2638  0.0566 -0.2717
  117CHL1    C614853   6.276   0.660  16.471 -0.3582  0.0863  0.2630
  117CHL1    H614854   6.347   0.593  16.521 -1.0492 -0.0461  1.0826
  117CHL1    C714855   6.257   0.616  16.331  0.3723  0.3253  0.6547
  117CHL1   H7A14856   6.357   0.590  16.291  0.5555  1.8254  0.0918
  117CHL1   H7B14857   6.186   0.530  16.338 -0.0418  0.6383  0.3218
  117CHL1    C814858   6.190   0.728  16.244 -0.2498  0.4048 -0.2302
  117CHL1    H814859   6.268   0.805  16.225 -0.4234  0.3581 -1.1876
  117CHL1   C1414860   6.147   0.679  16.103 -0.4224  0.0008  0.0359
  117CHL1   H1414861   6.055   0.616  16.113  0.0916 -0.6598  0.6694
  117CHL1   C1514862   6.251   0.588  16.029 -0.0772  0.1562 -0.6455
  117CHL1  H15A14863   6.356   0.625  16.034  0.2289 -0.8111  0.3773
  117CHL1  H15B14864   6.253   0.484  16.068  1.3877  0.5220  0.3495
  117CHL1   C1614865   6.203   0.583  15.883 -0.3961 -0.4010  0.2940
  117CHL1  H16A14866   6.282   0.605  15.808  0.3382 -0.4399  1.0482
  117CHL1  H16B14867   6.156   0.485  15.863  1.3844 -1.5269  1.4174
  117CHL1   C1714868   6.085   0.693  15.881  0.3659 -0.6061 -0.3070
  117CHL1   H1714869   5.989   0.640  15.900 -0.3859  0.5413 -0.7927
  117CHL1   C1314870   6.097   0.786  16.004 -0.7445  0.6220  0.5033
  117CHL1   C1814871   6.207   0.895  15.975  0.6494  0.6048 -0.7492
  117CHL1  H18A14872   6.167   0.967  15.900 -0.1811 -1.0910 -1.9845
  117CHL1  H18B14873   6.235   0.938  16.073  0.2656 -0.8585  0.0262
  117CHL1  H18C14874   6.299   0.843  15.943  0.3609  0.9497 -2.2159
  117CHL1   C1214875   5.970   0.850  16.070  0.3134  0.3678  0.1655
  117CHL1  H12A14876   5.927   0.934  16.012 -1.2234  0.1133  0.8969
  117CHL1  H12B14877   5.897   0.766  16.079  1.0676 -0.7962 -3.1494
  117CHL1   C1114878   6.003   0.904  16.210 -0.0129 -1.2641  0.5098
  117CHL1  H11A14879   6.065   0.996  16.201 -1.1700 -0.1571  2.7245
  117CHL1  H11B14880   5.912   0.941  16.263  0.7447 -0.2002  1.1123
  117CHL1    C914881   6.071   0.804  16.303  0.0652 -0.8449 -0.4202
  117CHL1    H914882   6.000   0.722  16.327 -0.0110 -0.8119 -0.5313
  117CHL1   C1014883   6.119   0.863  16.450  0.8807 -0.1871 -0.5037
  117CHL1   C1914884   6.181   1.010  16.427 -0.7424  0.1545 -0.4353
  117CHL1  H19A14885   6.101   1.082  16.398  0.3120  0.6266 -2.3583
  117CHL1  H19B14886   6.229   1.054  16.517 -0.7050 -0.7891  0.0226
  117CHL1  H19C14887   6.265   1.010  16.355  0.9734  1.3606  1.4916
  117CHL1    C114888   6.002   0.860  16.546 -0.2086  0.0722 -0.3404
  117CHL1   H1A14889   5.922   0.924  16.503 -0.4457  1.0323  1.4568
  117CHL1   H1B14890   5.955   0.760  16.557 -4.1339  1.7948  0.4091
  117CHL1    C214891   6.029   0.916  16.686 -0.0286  0.5491 -0.1215
  117CHL1   H2A14892   5.934   0.902  16.742 -1.5815 -1.8980 -3.0682
  117CHL1   H2B14893   6.056   1.023  16.671  1.8303  0.4021  1.6211
  117CHL1   C2014894   6.067   0.765  15.742 -0.2297  0.9042  0.6801
  117CHL1   H2014895   6.151   0.834  15.720 -0.4706  0.7544 -0.7662
  117CHL1   C2114896   5.933   0.849  15.748 -0.6999  0.4969  0.3402
  117CHL1  H21A14897   5.857   0.775  15.781  0.7591  0.0515  3.0258
  117CHL1  H21B14898   5.901   0.900  15.655 -1.0334  0.4109  0.4051
  117CHL1  H21C14899   5.939   0.930  15.824 -2.3443  1.6022 -0.6468
  117CHL1   C2214900   6.046   0.661  15.624 -0.2332  0.1206  0.2909
  117CHL1  H22A14901   6.092   0.563  15.648 -0.0732  0.4612  1.4247
  117CHL1  H22B14902   5.937   0.640  15.619 -0.3113  0.5421  0.1825
  117CHL1   C2314903   6.092   0.694  15.478 -0.3111  0.3926  0.0483
  117CHL1  H23A14904   6.203   0.698  15.481 -0.1071 -1.0155 -2.4975
  117CHL1  H23B14905   6.067   0.614  15.406 -1.7089 -0.3182  1.2740
  117CHL1   C2414906   6.014   0.819  15.421 -0.2093 -0.1413  0.1551
  117CHL1  H24A14907   5.906   0.807  15.444 -0.3056  1.3021  0.5599
  117CHL1  H24B14908   6.046   0.905  15.484 -4.2364  0.9174  1.0111
  117CHL1   C2514909   6.037   0.843  15.265 -0.2853  0.3744 -0.8522
  117CHL1   H2514910   6.029   0.739  15.227  0.7726 -0.3006  0.6606
  117CHL1   C2614911   5.925   0.915  15.203 -0.0167  0.1823 -0.7141
  117CHL1  H26A14912   5.914   1.012  15.256 -0.4562 -0.4504  0.4161
  117CHL1  H26B14913   5.953   0.947  15.101  3.5146  1.3968  0.4975
  117CHL1  H26C14914   5.828   0.860  15.198  1.1496 -2.2140  0.9982
  117CHL1   C2714915   6.171   0.912  15.236  0.5087  0.7591 -0.1352
  117CHL1  H27A14916   6.174   0.900  15.125 -3.0988 -2.8170 -0.0611
  117CHL1  H27B14917   6.173   1.022  15.255 -0.2001  0.8629 -0.5966
  117CHL1  H27C14918   6.255   0.858  15.284 -2.4896 -2.8887  1.5173
  118CHL1    C314919   0.771   1.055  16.744 -0.4424 -0.0419  0.0454
  118CHL1    H314920   0.790   0.946  16.737 -2.9202 -0.5091 -0.5645
  118CHL1    O314921   0.774   1.082  16.881  0.0695 -0.0891  0.2385
  118CHL1   H3'14922   0.797   1.175  16.890  1.4654 -0.6111  3.6121
  118CHL1    C414923   0.883   1.137  16.672 -0.1984 -0.0905  0.2749
  118CHL1   H4A14924   0.858   1.242  16.698  2.6280  0.0054  3.2265
  118CHL1   H4B14925   0.982   1.107  16.712  1.3384  3.3956 -0.5244
  118CHL1    C514926   0.877   1.109  16.525 -0.1265 -0.4775  0.6370
  118CHL1    C614927   0.991   1.069  16.463 -0.4338 -0.6249  0.0152
  118CHL1    H614928   1.084   1.047  16.517 -0.2912 -0.6640 -0.2442
  118CHL1    C714929   1.002   1.045  16.316 -0.0241  0.6423 -0.3098
  118CHL1   H7A14930   1.096   1.092  16.279  1.4932 -2.3449 -0.5789
  118CHL1   H7B14931   1.005   0.935  16.304 -0.0508  0.6761 -0.6432
  118CHL1    C814932   0.885   1.107  16.235  0.0300  0.9859 -0.3101
  118CHL1    H814933   0.901   1.214  16.210  1.4550  0.4270 -1.9703
  118CHL1   C1414934   0.878   1.043  16.092 -0.4701 -0.4432  0.1201
  118CHL1   H1414935   0.850   0.936  16.103 -0.4457 -0.6607 -1.6422
  118CHL1   C1514936   1.008   1.040  16.012  0.2978  0.1046  0.2238
  118CHL1  H15A14937   1.062   1.136  16.004  4.1171 -1.5648  3.1462
  118CHL1  H15B14938   1.076   0.960  16.047  0.8229 -0.3789 -1.7661
  118CHL1   C1614939   0.961   0.996  15.868 -0.6390 -0.9651  0.3727
  118CHL1  H16A14940   1.026   1.055  15.799 -0.3823 -0.5342  0.9709
  118CHL1  H16B14941   0.978   0.887  15.854  0.5590 -0.6788 -0.6286
  118CHL1   C1714942   0.805   1.022  15.866  0.3183  0.3290 -0.0025
  118CHL1   H1714943   0.753   0.924  15.866 -0.1704  0.5619 -1.4816
  118CHL1   C1314944   0.764   1.099  15.991 -0.6707 -0.0037 -1.4829
  118CHL1   C1814945   0.794   1.244  15.958 -0.1626  0.1929  0.3307
  118CHL1  H18A14946   0.884   1.263  15.895  0.5034 -1.3221  0.7802
  118CHL1  H18B14947   0.714   1.288  15.895 -0.3963 -1.6614 -0.7376
  118CHL1  H18C14948   0.818   1.304  16.048  2.3630 -0.7688  0.3865
  118CHL1   C1214949   0.627   1.079  16.063  0.1552  0.0934  0.0725
  118CHL1  H12A14950   0.556   1.126  15.991  1.6193 -1.5062 -2.5661
  118CHL1  H12B14951   0.613   0.969  16.055 -0.2262  0.0868  0.7831
  118CHL1   C1114952   0.632   1.141  16.200 -0.3109 -0.1564  0.3696
  118CHL1  H11A14953   0.653   1.248  16.183 -0.8798  0.1455  1.4953
  118CHL1  H11B14954   0.528   1.131  16.238 -0.8077  0.9964 -0.6055
  118CHL1    C914955   0.744   1.086  16.297 -0.1021 -0.4684  0.0473
  118CHL1    H914956   0.725   0.976  16.301 -0.0562 -0.4683  0.2814
  118CHL1   C1014957   0.742   1.136  16.447 -0.0693 -1.0394  0.2957
  118CHL1   C1914958   0.720   1.284  16.433  0.1731 -0.2774  0.3794
  118CHL1  H19A14959   0.722   1.337  16.530 -1.2196  1.8090 -0.6591
  118CHL1  H19B14960   0.799   1.324  16.366  2.4968 -2.0532  1.8843
  118CHL1  H19C14961   0.617   1.292  16.394  0.8799  0.7845 -1.4313
  118CHL1    C114962   0.632   1.060  16.528  0.4295 -0.1637  0.0521
  118CHL1   H1A14963   0.535   1.074  16.477  1.0283 -0.2703 -1.1506
  118CHL1   H1B14964   0.647   0.950  16.528 -3.3522 -0.8238  1.7356
  118CHL1    C214965   0.640   1.090  16.679  0.3179  0.2399 -0.2458
  118CHL1   H2A14966   0.563   1.028  16.730  0.2815 -1.3330 -2.1068
  118CHL1   H2B14967   0.618   1.198  16.698  1.0102  0.1930  0.9705
  118CHL1   C2014968   0.760   1.073  15.730 -0.3358 -0.2848  0.4921
  118CHL1   H2014969   0.792   1.178  15.716  0.5978 -0.5359  0.6870
  118CHL1   C2114970   0.615   1.080  15.729 -0.4395 -0.0505  0.4165
  118CHL1  H21A14971   0.556   0.992  15.762 -0.7072  0.5039  1.4592
  118CHL1  H21B14972   0.578   1.104  15.626  0.6502 -0.7342 -0.1505
  118CHL1  H21C14973   0.576   1.166  15.787  0.1165  0.3723  0.1709
  118CHL1   C2214974   0.812   0.986  15.616  0.5966  0.3890  0.5301
  118CHL1  H22A14975   0.923   0.975  15.611  0.3687 -2.1382 -2.0098
  118CHL1  H22B14976   0.781   0.882  15.640  0.8965  0.4824  1.3565
  118CHL1   C2314977   0.769   1.036  15.476  0.7323 -0.2885  0.1889
  118CHL1  H23A14978   0.660   1.025  15.456  0.2930  1.9954  1.0856
  118CHL1  H23B14979   0.783   1.145  15.458  2.5106 -0.2400  1.5581
  118CHL1   C2414980   0.837   0.967  15.353 -0.6948 -0.0627 -0.3779
  118CHL1  H24A14981   0.946   0.988  15.360 -0.4196 -1.6304  0.4493
  118CHL1  H24B14982   0.830   0.856  15.361  0.1858 -0.1591 -0.8095
  118CHL1   C2514983   0.776   1.000  15.211 -0.1235  0.2012 -0.1682
  118CHL1   H2514984   0.798   1.105  15.181 -0.5450  0.5293  0.6218
  118CHL1   C2614985   0.829   0.909  15.093 -0.1236 -0.0589 -0.5960
  118CHL1  H26A14986   0.830   0.968  14.999  1.5261  1.4057  0.2829
  118CHL1  H26B14987   0.931   0.869  15.113  0.8229  2.1020 -0.8080
  118CHL1  H26C14988   0.766   0.817  15.088  1.4162 -1.2135  0.1286
  118CHL1   C2714989   0.623   0.995  15.203  0.0297  0.4143  0.3155
  118CHL1  H27A14990   0.585   0.999  15.099 -0.8341 -1.0272  0.5532
  118CHL1  H27B14991   0.567   0.919  15.262  0.6547  0.9942  1.6938
  118CHL1  H27C14992   0.592   1.092  15.249  1.7500  1.8866 -1.4688
  119CHL1    C314993   1.015   7.659  16.723  0.0367  0.0786 -0.1896
  119CHL1    H314994   0.973   7.557  16.713 -1.2619  0.7828 -3.0222
  119CHL1    O314995   1.029   7.673  16.861 -0.4175  0.1888 -0.2014
  119CHL1   H3'14996   1.124   7.680  16.872 -0.1483 -1.3314 -1.3228
  119CHL1    C414997   1.143   7.684  16.650 -0.8731  0.5928 -0.5968
  119CHL1   H4A14998   1.174   7.786  16.680 -1.5582  0.4552  0.6582
  119CHL1   H4B14999   1.216   7.606  16.678 -1.5847 -0.3818 -1.3541
  119CHL1    C515000   1.114   7.680  16.503 -0.2540 -0.4582  0.2317
  119CHL1    C615001   1.177   7.586  16.426 -0.5918  0.6121 -0.7083
  119CHL1    H615002   1.260   7.524  16.463 -0.5960 -0.2579 -2.0545
  119CHL1    C715003   1.150   7.576  16.283  0.1724 -0.1722  0.2888
  119CHL1   H7A15004   1.250   7.571  16.234 -0.5123 -0.1296 -1.1856
  119CHL1   H7B15005   1.114   7.476  16.250 -0.1787 -0.6203  1.9545
  119CHL1    C815006   1.073   7.694  16.215  0.2050  0.0850  0.0777
  119CHL1    H815007   1.146   7.776  16.200  2.6330 -2.2678 -2.1003
  119CHL1   C1415008   1.013   7.657  16.077 -0.4262 -0.8078  0.1631
  119CHL1   H1415009   0.940   7.575  16.096 -0.3940 -0.4105  2.2657
  119CHL1   C1515010   1.106   7.594  15.966 -0.7935  0.4720 -0.2502
  119CHL1  H15A15011   1.210   7.626  15.988  0.0759 -2.3800  0.2534
  119CHL1  H15B15012   1.098   7.483  15.970 -0.6734  0.3840 -1.9345
  119CHL1   C1615013   1.054   7.643  15.832  0.0195 -1.2180 -0.2409
  119CHL1  H16A15014   1.128   7.713  15.789  0.2311 -1.3894 -0.1606
  119CHL1  H16B15015   1.050   7.563  15.755  0.9426 -0.5048 -1.0367
  119CHL1   C1715016   0.922   7.716  15.859  0.3898  0.2034 -0.4269
  119CHL1   H1715017   0.850   7.633  15.874  1.6060 -0.8654 -0.3716
  119CHL1   C1315018   0.938   7.771  16.004 -0.3290 -1.2714 -0.1809
  119CHL1   C1815019   1.027   7.894  15.990  0.0074 -1.1315 -0.5231
  119CHL1  H18A15020   0.969   7.982  15.955  1.0464 -0.5259 -0.7782
  119CHL1  H18B15021   1.075   7.926  16.085 -2.6169  0.6926  0.2786
  119CHL1  H18C15022   1.107   7.887  15.912  1.2881  1.2761  0.4600
  119CHL1   C1215023   0.811   7.799  16.088  0.4679  0.6513  0.3745
  119CHL1  H12A15024   0.754   7.887  16.051 -1.6980 -0.8401 -0.0246
  119CHL1  H12B15025   0.744   7.711  16.086 -0.2927  1.2291  0.0596
  119CHL1   C1115026   0.848   7.838  16.237  0.8701  0.4678 -0.6562
  119CHL1  H11A15027   0.901   7.936  16.230  0.5913  1.0551  3.4116
  119CHL1  H11B15028   0.757   7.842  16.300  1.0570 -1.6815 -0.1691
  119CHL1    C915029   0.954   7.739  16.303  0.1684  0.1774 -0.2454
  119CHL1    H915030   0.893   7.648  16.318  2.0592 -1.2058 -0.5675
  119CHL1   C1015031   1.001   7.770  16.445 -0.1821  0.6913  0.3978
  119CHL1   C1915032   1.058   7.915  16.456  0.1748 -0.3204 -0.0814
  119CHL1  H19A15033   1.066   7.950  16.561  2.1273 -0.6844 -0.0836
  119CHL1  H19B15034   1.158   7.927  16.411 -1.2728 -1.1029 -3.9016
  119CHL1  H19C15035   0.989   7.991  16.412  0.1360  0.1478  0.7593
  119CHL1    C115036   0.877   7.758  16.537 -0.2476  0.2293  0.2873
  119CHL1   H1A15037   0.807   7.840  16.512 -2.1176 -1.5225 -0.5348
  119CHL1   H1B15038   0.838   7.654  16.531  2.4058 -0.8681  0.7441
  119CHL1    C215039   0.908   7.771  16.685 -0.4920 -0.0279 -0.0851
  119CHL1   H2A15040   0.814   7.762  16.744  0.1427  0.3519  0.9978
  119CHL1   H2B15041   0.959   7.868  16.704 -1.0591 -0.0313  1.5389
  119CHL1   C2015042   0.862   7.803  15.747 -0.2647  0.3830 -0.4360
  119CHL1   H2015043   0.940   7.880  15.728  2.3007 -2.1182 -0.7137
  119CHL1   C2115044   0.718   7.851  15.785  0.4287  0.2225 -0.4745
  119CHL1  H21A15045   0.733   7.939  15.851 -3.4490  0.7520 -0.0683
  119CHL1  H21B15046   0.658   7.778  15.843  1.8857  0.6037  1.6354
  119CHL1  H21C15047   0.664   7.892  15.697  1.0363 -1.9167 -1.9132
  119CHL1   C2215048   0.854   7.728  15.618  0.3649 -0.2333  0.2008
  119CHL1  H22A15049   0.946   7.672  15.589 -0.8154 -2.1485 -0.0379
  119CHL1  H22B15050   0.781   7.644  15.624  0.6026 -0.4521  0.0641
  119CHL1   C2315051   0.822   7.817  15.497 -0.0667  0.0468 -0.0538
  119CHL1  H23A15052   0.722   7.859  15.520 -0.2813  1.6298 -3.2374
  119CHL1  H23B15053   0.891   7.904  15.494 -0.6511  0.4984 -0.6413
  119CHL1   C2415054   0.832   7.752  15.355 -0.1862  0.3353 -0.9180
  119CHL1  H24A15055   0.800   7.825  15.279 -0.3943  0.7993 -0.3916
  119CHL1  H24B15056   0.943   7.742  15.354 -0.1632  0.6652 -1.8606
  119CHL1   C2515057   0.767   7.620  15.337 -0.3271 -0.4036  0.4891
  119CHL1   H2515058   0.791   7.555  15.424  2.6866 -0.3733 -0.2175
  119CHL1   C2615059   0.617   7.622  15.307  0.7168  0.5771 -0.6894
  119CHL1  H26A15060   0.578   7.524  15.273 -0.0664  0.2866  0.9522
  119CHL1  H26B15061   0.559   7.633  15.401 -0.6344  2.3723 -1.6627
  119CHL1  H26C15062   0.575   7.711  15.255  0.1912 -1.1006 -3.3360
  119CHL1   C2715063   0.832   7.547  15.214 -0.4377  0.8127  0.4112
  119CHL1  H27A15064   0.783   7.565  15.116  0.6901  0.0112 -0.3264
  119CHL1  H27B15065   0.943   7.553  15.212 -0.2973 -0.7633  1.5747
  119CHL1  H27C15066   0.802   7.441  15.230  0.5273  0.1883 -1.5850
  120CHL1    C315067   0.340   0.850  16.619  0.7121 -0.2662  0.2918
  120CHL1    H315068   0.438   0.882  16.578 -0.3479  2.1985 -0.5000
  120CHL1    O315069   0.321   0.875  16.760  0.1202 -0.7301 -0.0506
  120CHL1   H3'15070   0.227   0.860  16.768 -0.0578  0.4704  0.2828
  120CHL1    C415071   0.218   0.914  16.547 -0.1699 -0.6156  0.8168
  120CHL1   H4A15072   0.122   0.867  16.579 -0.3918 -1.9418 -1.5668
  120CHL1   H4B15073   0.220   1.020  16.579  2.3488 -0.8404  1.6057
  120CHL1    C515074   0.236   0.901  16.396 -0.4434 -0.5898 -0.1349
  120CHL1    C615075   0.233   1.009  16.315 -0.3293  0.3534 -0.0579
  120CHL1    H615076   0.220   1.108  16.360  1.7440  0.1578  1.1235
  120CHL1    C715077   0.248   0.994  16.165 -0.2229 -0.5035 -0.9051
  120CHL1   H7A15078   0.169   1.057  16.120  0.1896 -0.1326 -1.1057
  120CHL1   H7B15079   0.354   1.014  16.141  0.1192  0.4739  1.1627
  120CHL1    C815080   0.228   0.853  16.107  0.0599 -0.5878 -0.4617
  120CHL1    H815081   0.120   0.825  16.110  0.2181 -1.1641  0.1005
  120CHL1   C1415082   0.267   0.850  15.963  0.1424 -0.3490  0.2689
  120CHL1   H1415083   0.377   0.863  15.963  0.3162 -1.4662 -1.3149
  120CHL1   C1515084   0.209   0.955  15.864 -0.0210  0.4580 -0.0616
  120CHL1  H15A15085   0.101   0.965  15.888  0.0006  0.8406 -0.1066
  120CHL1  H15B15086   0.264   1.051  15.878  2.7897 -1.2489  1.2865
  120CHL1   C1615087   0.231   0.889  15.727  0.2048  0.4113  0.1062
  120CHL1  H16A15088   0.142   0.854  15.672  1.2723 -2.6187  0.1371
  120CHL1  H16B15089   0.289   0.953  15.656  3.4210 -0.3521  1.8593
  120CHL1   C1715090   0.305   0.745  15.753 -0.1443 -0.9542  0.0002
  120CHL1   H1715091   0.413   0.769  15.758 -0.3061  0.0867 -0.8862
  120CHL1   C1315092   0.256   0.709  15.898  0.0051 -0.3416  0.4176
  120CHL1   C1815093   0.112   0.661  15.887  0.4541 -0.2854 -0.0120
  120CHL1  H18A15094   0.048   0.717  15.814 -0.1407  1.1623  1.5528
  120CHL1  H18B15095   0.110   0.552  15.864  0.7638 -0.3806  0.4091
  120CHL1  H18C15096   0.060   0.675  15.984 -0.0481 -1.4390 -0.0992
  120CHL1   C1215097   0.335   0.608  15.979  0.4920 -0.1785 -0.7389
  120CHL1  H12A15098   0.317   0.508  15.934  0.4601 -1.0356  1.0770
  120CHL1  H12B15099   0.443   0.635  15.971  0.5249  0.2256  0.7987
  120CHL1   C1115100   0.292   0.601  16.129 -0.1754  0.2862  0.4765
  120CHL1  H11A15101   0.193   0.551  16.140  0.9196 -1.8019  1.2884
  120CHL1  H11B15102   0.363   0.533  16.180 -0.1356  0.1217  0.2036
  120CHL1    C915103   0.296   0.742  16.191  0.4199 -0.8947  0.2907
  120CHL1    H915104   0.403   0.768  16.203 -0.1931  2.0437 -0.0281
  120CHL1   C1015105   0.250   0.752  16.343 -0.2156 -0.1345  0.0775
  120CHL1   C1915106   0.117   0.680  16.363 -0.1950 -0.1076  0.0253
  120CHL1  H19A15107   0.033   0.734  16.314 -2.5374 -1.3389  2.4032
  120CHL1  H19B15108   0.121   0.577  16.322 -0.3975 -0.4964  0.9607
  120CHL1  H19C15109   0.079   0.675  16.467  1.3994 -0.3770  0.6221
  120CHL1    C115110   0.341   0.674  16.446  0.2837  0.2827 -0.8932
  120CHL1   H1A15111   0.326   0.565  16.429 -0.2261  0.2222 -0.1040
  120CHL1   H1B15112   0.444   0.701  16.416  0.1353  1.8315 -0.1279
  120CHL1    C215113   0.324   0.700  16.594 -0.2522 -0.0787  0.4424
  120CHL1   H2A15114   0.395   0.643  16.657 -1.7003 -0.9780  1.3196
  120CHL1   H2B15115   0.225   0.662  16.627 -0.3712 -2.1269 -1.9407
  120CHL1   C2015116   0.291   0.650  15.635  0.3210 -0.4729 -0.4396
  120CHL1   H2015117   0.182   0.631  15.628  0.2376  0.1792 -1.0013
  120CHL1   C2115118   0.361   0.510  15.660  0.1804 -0.1165 -0.2193
  120CHL1  H21A15119   0.364   0.446  15.570  1.8668  0.4876 -0.6396
  120CHL1  H21B15120   0.304   0.462  15.742 -1.4909  1.8027 -0.1850
  120CHL1  H21C15121   0.463   0.516  15.706  0.1306  0.3296 -0.1601
  120CHL1   C2215122   0.352   0.717  15.503  0.1681  0.2644 -0.0190
  120CHL1  H22A15123   0.309   0.818  15.485 -0.1286  0.1237 -0.1076
  120CHL1  H22B15124   0.463   0.727  15.511  0.0357  0.4253  2.2239
  120CHL1   C2315125   0.314   0.635  15.374  0.4623  0.3913  0.0785
  120CHL1  H23A15126   0.354   0.532  15.366 -2.1136 -0.8799  1.9472
  120CHL1  H23B15127   0.204   0.619  15.374  0.3918  0.7274  1.2630
  120CHL1   C2415128   0.356   0.711  15.249 -0.0369  0.3791 -0.1850
  120CHL1  H24A15129   0.339   0.819  15.267  0.3776  0.4227 -0.0528
  120CHL1  H24B15130   0.465   0.703  15.229 -0.1349  1.1136 -1.0859
  120CHL1   C2515131   0.290   0.668  15.124  0.4008 -0.0258  0.3740
  120CHL1   H2515132   0.184   0.699  15.134  0.6329  0.5305  1.2647
  120CHL1   C2615133   0.349   0.740  15.001  0.1000 -0.5287  0.4028
  120CHL1  H26A15134   0.446   0.694  14.974 -0.0033  0.2492 -1.4423
  120CHL1  H26B15135   0.285   0.730  14.911  1.8853  0.0118 -0.9833
  120CHL1  H26C15136   0.365   0.849  15.020  1.9392 -0.6080 -0.4489
  120CHL1   C2715137   0.293   0.521  15.094  0.0156  1.0642  0.4516
  120CHL1  H27A15138   0.396   0.481  15.080 -1.4444 -3.0874  0.2941
  120CHL1  H27B15139   0.231   0.460  15.163  1.7049 -1.3195 -0.0008
  120CHL1  H27C15140   0.252   0.502  14.992 -0.2609  2.7306  0.2297
  121CHL1    C315141   4.549   4.064  13.210  0.2433  0.0557 -0.3709
  121CHL1    H315142   4.653   4.092  13.186  0.2738 -0.1117 -0.4403
  121CHL1    O315143   4.476   4.040  13.097  0.3450 -0.3342  0.8147
  121CHL1   H3'15144   4.389   4.029  13.136 -0.3510  1.1626 -0.1939
  121CHL1    C415145   4.552   3.940  13.309  0.1925  0.2692 -0.3970
  121CHL1   H4A15146   4.446   3.925  13.339  0.0505  3.0635  0.8065
  121CHL1   H4B15147   4.598   3.856  13.252 -0.9498 -1.0068  0.4996
  121CHL1    C515148   4.626   3.978  13.434 -0.2236 -0.6033  0.6435
  121CHL1    C615149   4.734   3.918  13.471  0.5140 -0.0750  0.3285
  121CHL1    H615150   4.760   3.825  13.417  1.1606 -0.9855  2.1098
  121CHL1    C715151   4.812   3.951  13.595  0.0907  1.0240 -0.2619
  121CHL1   H7A15152   4.861   3.855  13.621  1.9122  1.4691 -1.8307
  121CHL1   H7B15153   4.893   4.024  13.572  0.8037  0.2996 -0.0858
  121CHL1    C815154   4.719   4.021  13.694 -0.4102  0.2850  0.2626
  121CHL1    H815155   4.653   3.944  13.741  2.7171 -0.8764  3.2445
  121CHL1   C1415156   4.801   4.073  13.806 -0.1665  0.2419 -0.3516
  121CHL1   H1415157   4.869   4.143  13.753  3.3330 -0.8474  2.2754
  121CHL1   C1515158   4.906   3.977  13.870 -0.2872  0.0914 -0.1662
  121CHL1  H15A15159   4.875   3.871  13.880 -0.5706  0.1730 -0.1764
  121CHL1  H15B15160   4.996   3.983  13.805  1.2118 -0.6838  1.7254
  121CHL1   C1615161   4.927   4.027  14.016 -0.2461 -0.9488 -0.2463
  121CHL1  H16A15162   4.883   3.955  14.087  0.3473 -0.2974  0.8180
  121CHL1  H16B15163   5.036   4.047  14.028 -1.0777  4.5968  1.0654
  121CHL1   C1715164   4.851   4.160  14.022 -0.0213 -0.9263 -0.2175
  121CHL1   H1715165   4.925   4.236  13.987 -0.1580 -0.1357  1.1451
  121CHL1   C1315166   4.732   4.146  13.925 -0.3635 -0.1608  0.0763
  121CHL1   C1815167   4.629   4.056  13.985  0.3456  0.7800 -0.2910
  121CHL1  H18A15168   4.662   3.967  14.043 -2.0250 -0.1493 -0.2463
  121CHL1  H18B15169   4.575   4.106  14.068 -0.3624 -0.1026 -0.2100
  121CHL1  H18C15170   4.543   4.031  13.920  0.5850 -0.3320 -0.1895
  121CHL1   C1215171   4.665   4.275  13.859  0.1067  0.0245  0.2964
  121CHL1  H12A15172   4.593   4.322  13.929 -0.5174  0.7389 -0.7986
  121CHL1  H12B15173   4.737   4.346  13.812 -0.6587 -0.1076 -1.1145
  121CHL1   C1115174   4.571   4.233  13.741 -0.6874 -0.3559  0.0800
  121CHL1  H11A15175   4.474   4.194  13.779 -1.3606  1.7260  0.6367
  121CHL1  H11B15176   4.546   4.323  13.682 -0.3262  0.7196  1.5322
  121CHL1    C915177   4.647   4.139  13.635  0.2026 -0.0140  0.8624
  121CHL1    H915178   4.723   4.210  13.595  0.0720  0.0765  0.7735
  121CHL1   C1015179   4.558   4.091  13.515 -0.8588 -0.1292 -0.6228
  121CHL1   C1915180   4.429   4.033  13.572  0.4663 -0.3291 -0.7540
  121CHL1  H19A15181   4.436   3.953  13.649 -0.8351 -2.3453 -2.6039
  121CHL1  H19B15182   4.372   4.115  13.621  1.6539 -1.2841  2.5521
  121CHL1  H19C15183   4.352   3.995  13.501 -0.3791  2.2970 -1.3605
  121CHL1    C115184   4.545   4.217  13.418 -0.4902  0.3745 -0.4004
  121CHL1   H1A15185   4.501   4.303  13.472 -0.6678 -0.9066  1.6226
  121CHL1   H1B15186   4.651   4.239  13.393 -0.6667  1.0392 -0.5716
  121CHL1    C215187   4.479   4.178  13.280 -0.1101  0.0353 -0.7111
  121CHL1   H2A15188   4.479   4.272  13.221 -0.3341 -1.0775 -2.5545
  121CHL1   H2B15189   4.373   4.151  13.298  0.1145 -1.2140 -1.2208
  121CHL1   C2015190   4.820   4.227  14.162 -0.2925 -0.0615 -0.5502
  121CHL1   H2015191   4.730   4.181  14.208 -1.7309  1.8019 -1.3498
  121CHL1   C2115192   4.791   4.377  14.151 -0.5411 -0.2414 -0.5528
  121CHL1  H21A15193   4.765   4.423  14.249 -0.5808  1.4022 -1.2994
  121CHL1  H21B15194   4.703   4.400  14.088 -1.3068  0.2064  0.6401
  121CHL1  H21C15195   4.880   4.430  14.110  0.4196  0.2627  2.0049
  121CHL1   C2215196   4.940   4.193  14.256  0.2337 -0.2360  0.1399
  121CHL1  H22A15197   4.948   4.085  14.280  1.7974  0.2912  2.2466
  121CHL1  H22B15198   5.041   4.227  14.225  0.4135 -0.8631  0.0345
  121CHL1   C2315199   4.930   4.261  14.403 -0.4111  0.2347 -0.0413
  121CHL1  H23A15200   4.924   4.372  14.407 -0.0929  0.2110  2.5153
  121CHL1  H23B15201   4.843   4.217  14.455  0.2316 -0.4079  0.5241
  121CHL1   C2415202   5.052   4.204  14.478 -0.0929  0.0225 -0.2605
  121CHL1  H24A15203   5.033   4.096  14.499 -3.6423  0.5652  0.0671
  121CHL1  H24B15204   5.138   4.212  14.409  2.0858 -2.2134  1.9593
  121CHL1   C2515205   5.081   4.259  14.614  0.6038  0.0563 -0.6290
  121CHL1   H2515206   5.089   4.370  14.609 -2.1762  0.3167 -0.3597
  121CHL1   C2615207   4.970   4.244  14.717 -0.3473 -0.5421  0.3309
  121CHL1  H26A15208   4.872   4.248  14.665  0.1016 -3.3888 -0.9367
  121CHL1  H26B15209   4.996   4.150  14.771  1.1054  0.8948  2.2961
  121CHL1  H26C15210   4.965   4.327  14.790  0.0378  0.1835 -0.4564
  121CHL1   C2715211   5.219   4.201  14.658  0.8678  0.0005  0.5117
  121CHL1  H27A15212   5.308   4.233  14.599  0.5486 -0.1978 -0.0813
  121CHL1  H27B15213   5.226   4.240  14.762 -1.6478  0.9213  0.4098
  121CHL1  H27C15214   5.215   4.091  14.663  4.8198 -0.2663  1.1753
  122CHL1    C315215   3.441   4.070  13.246  0.5287 -0.3744  0.4864
  122CHL1    H315216   3.369   4.154  13.235  1.2284  0.2237  0.2881
  122CHL1    O315217   3.495   4.032  13.121 -0.0265  0.2948  0.2806
  122CHL1   H3'15218   3.430   3.975  13.078 -1.7061  2.9774 -1.0081
  122CHL1    C415219   3.564   4.108  13.334  0.3768 -0.2233  0.0999
  122CHL1   H4A15220   3.634   4.023  13.330  1.1420  0.3356  1.1972
  122CHL1   H4B15221   3.628   4.184  13.285 -0.8408 -1.1717 -3.2953
  122CHL1    C515222   3.525   4.131  13.481  0.3944  0.2523 -0.3496
  122CHL1    C615223   3.556   4.243  13.544 -0.2262 -0.4980  0.2195
  122CHL1    H615224   3.606   4.320  13.483  1.1288  0.5703  2.5352
  122CHL1    C715225   3.504   4.286  13.677 -0.6600  0.3965 -0.9622
  122CHL1   H7A15226   3.582   4.324  13.747  0.0679 -4.5374  1.3192
  122CHL1   H7B15227   3.421   4.356  13.656  0.1793  2.3732  1.7530
  122CHL1    C815228   3.452   4.162  13.758 -0.2267 -0.4428  0.2410
  122CHL1    H815229   3.543   4.109  13.793 -0.1058  0.2307  0.9692
  122CHL1   C1415230   3.363   4.207  13.868  0.6092  0.2751 -0.1356
  122CHL1   H1415231   3.271   4.248  13.822 -0.2893 -0.7770  0.6678
  122CHL1   C1515232   3.412   4.316  13.967 -0.1008  1.0024 -0.6069
  122CHL1  H15A15233   3.511   4.286  14.008 -2.0466 -0.9148  3.2061
  122CHL1  H15B15234   3.415   4.410  13.908 -1.4207  2.1368  1.0563
  122CHL1   C1615235   3.295   4.317  14.069 -0.3451 -0.1887  0.0511
  122CHL1  H16A15236   3.333   4.351  14.167  2.1080  1.0804 -1.2305
  122CHL1  H16B15237   3.221   4.391  14.032 -0.0406  0.4824  0.7402
  122CHL1   C1715238   3.230   4.179  14.062  0.2009 -0.3046  0.1273
  122CHL1   H1715239   3.132   4.198  14.012 -0.5543 -1.4814  1.1148
  122CHL1   C1315240   3.308   4.096  13.960  0.2917  0.1283  0.1068
  122CHL1   C1815241   3.427   4.028  14.032 -0.0904 -0.0150 -0.0101
  122CHL1  H18A15242   3.504   3.986  13.964 -1.3125  0.8270 -2.0252
  122CHL1  H18B15243   3.488   4.105  14.084  0.7091 -0.1607 -0.7106
  122CHL1  H18C15244   3.404   3.946  14.103 -0.6813 -1.2103 -1.5201
  122CHL1   C1215245   3.232   3.996  13.877  0.2897 -0.2620  0.0761
  122CHL1  H12A15246   3.209   3.913  13.948 -1.2163  0.2956  0.2622
  122CHL1  H12B15247   3.135   4.027  13.835 -0.1025 -1.1293  0.3054
  122CHL1   C1115248   3.319   3.943  13.759 -0.0388  0.2898 -0.1941
  122CHL1  H11A15249   3.407   3.890  13.800 -0.5931 -0.4524  0.0499
  122CHL1  H11B15250   3.257   3.873  13.699  1.0509  0.5160 -1.6348
  122CHL1    C915251   3.371   4.064  13.676 -0.2527  0.0955  0.0371
  122CHL1    H915252   3.286   4.124  13.636  2.5456  2.7745 -2.4982
  122CHL1   C1015253   3.437   4.019  13.541  0.0343 -0.2435  0.3587
  122CHL1   C1915254   3.541   3.907  13.565 -0.1819  0.8678 -0.1289
  122CHL1  H19A15255   3.620   3.939  13.636  2.1922 -1.3002 -1.6141
  122CHL1  H19B15256   3.503   3.810  13.603  0.5195  0.4312 -0.5165
  122CHL1  H19C15257   3.588   3.873  13.470  1.2044 -1.2532  1.2362
  122CHL1    C115258   3.326   3.982  13.440  0.0442  0.7432 -0.2961
  122CHL1   H1A15259   3.272   3.893  13.478  0.9762  0.1329 -0.3869
  122CHL1   H1B15260   3.250   4.062  13.425  0.6998  1.4112 -0.1169
  122CHL1    C215261   3.369   3.945  13.300 -0.4533 -0.1473  0.7033
  122CHL1   H2A15262   3.273   3.923  13.248  0.0263 -0.4172 -0.0879
  122CHL1   H2B15263   3.433   3.854  13.298 -0.1197  0.0129  2.8089
  122CHL1   C2015264   3.184   4.130  14.203 -0.2021 -0.0048  0.3108
  122CHL1   H2015265   3.140   4.032  14.176  1.1598 -0.4165 -0.5717
  122CHL1   C2115266   3.071   4.233  14.256 -0.5439 -0.0405  0.3559
  122CHL1  H21A15267   3.015   4.187  14.340  0.0424 -0.9952  0.2395
  122CHL1  H21B15268   3.005   4.261  14.171  0.1761  1.6853  0.3205
  122CHL1  H21C15269   3.121   4.318  14.306  2.3425 -2.1508  1.3583
  122CHL1   C2215270   3.291   4.107  14.314  0.2341  0.0635  0.0626
  122CHL1  H22A15271   3.381   4.052  14.278 -0.7156 -0.1111 -2.1870
  122CHL1  H22B15272   3.321   4.202  14.364 -0.3096  0.0217  0.4795
  122CHL1   C2315273   3.245   4.020  14.428  0.0705  0.9108 -0.8521
  122CHL1  H23A15274   3.152   4.059  14.475  0.2597  1.4389 -0.9006
  122CHL1  H23B15275   3.219   3.917  14.395  0.8867  0.3107  0.3020
  122CHL1   C2415276   3.346   4.008  14.548 -0.3683 -0.1269  0.1319
  122CHL1  H24A15277   3.442   3.976  14.503  0.2709  2.8731 -0.8777
  122CHL1  H24B15278   3.354   4.112  14.586  0.1017  1.0473 -2.9244
  122CHL1   C2515279   3.308   3.911  14.666  0.0476  0.8121  0.4054
  122CHL1   H2515280   3.209   3.941  14.707 -0.7996 -1.1479 -0.1115
  122CHL1   C2615281   3.289   3.764  14.618 -0.6138 -0.5840  0.4525
  122CHL1  H26A15282   3.193   3.753  14.563 -0.1641  0.0214 -0.4772
  122CHL1  H26B15283   3.383   3.742  14.562  1.3606  0.3262  3.2291
  122CHL1  H26C15284   3.295   3.695  14.705  0.5904 -2.0637 -0.7170
  122CHL1   C2715285   3.409   3.918  14.781  0.2330  0.1271 -0.0277
  122CHL1  H27A15286   3.486   3.992  14.751  0.6500 -0.7842 -1.2820
  122CHL1  H27B15287   3.352   3.946  14.873 -1.1995  0.4862 -0.9916
  122CHL1  H27C15288   3.461   3.820  14.793  2.5557  1.4456  1.2764
  123CHL1    C315289   6.220   4.009  13.287 -0.5012 -0.2788 -0.2534
  123CHL1    H315290   6.321   4.002  13.333 -1.1570  2.3546  1.8777
  123CHL1    O315291   6.250   4.020  13.152  0.1674 -0.0934  0.2649
  123CHL1   H3'15292   6.166   4.006  13.107  0.6405  0.7820 -0.9420
  123CHL1    C415293   6.135   3.880  13.309 -0.4138 -0.7920  0.1664
  123CHL1   H4A15294   6.042   3.885  13.248  0.9395  1.0444 -1.9079
  123CHL1   H4B15295   6.187   3.791  13.266  0.7937  0.1367 -0.3494
  123CHL1    C515296   6.111   3.858  13.452  0.0058 -0.2580  0.2251
  123CHL1    C615297   6.138   3.747  13.513 -0.4403  0.2095 -0.4069
  123CHL1    H615298   6.180   3.666  13.452  0.1025 -0.6613  1.0698
  123CHL1    C715299   6.100   3.707  13.657 -0.3236  0.0963  0.1272
  123CHL1   H7A15300   6.029   3.621  13.650  1.1498 -1.1124 -0.7798
  123CHL1   H7B15301   6.192   3.660  13.698 -0.2919  0.9743  1.0747
  123CHL1    C815302   6.026   3.821  13.735 -0.1083  0.5905  0.8390
  123CHL1    H815303   5.917   3.810  13.718  0.6175 -0.4818 -5.3497
  123CHL1   C1415304   6.075   3.810  13.883  0.4613 -0.4145 -0.2418
  123CHL1   H1415305   6.182   3.840  13.885  0.1856  0.6466  1.7798
  123CHL1   C1515306   6.068   3.674  13.952  0.1461  0.3595  0.3045
  123CHL1  H15A15307   5.981   3.624  13.904  0.1582  1.0146 -0.4247
  123CHL1  H15B15308   6.159   3.616  13.928 -0.3318  0.1677 -1.1227
  123CHL1   C1615309   6.045   3.702  14.097  0.0668  0.3592 -1.0529
  123CHL1  H16A15310   5.943   3.681  14.134 -0.0987  1.0158 -1.1212
  123CHL1  H16B15311   6.102   3.636  14.167 -2.3567 -1.5990 -0.8142
  123CHL1   C1715312   6.062   3.856  14.111 -0.2677  0.1551 -0.4492
  123CHL1   H1715313   6.170   3.882  14.113 -0.9367  3.5066  1.9641
  123CHL1   C1315314   6.006   3.913  13.974  0.3645  0.1032  0.7717
  123CHL1   C1815315   5.848   3.907  13.976 -0.0427 -0.4202 -0.1231
  123CHL1  H18A15316   5.818   3.822  14.041  1.6004  0.3192  1.7262
  123CHL1  H18B15317   5.796   3.993  14.023 -0.7187 -0.6406 -0.4652
  123CHL1  H18C15318   5.808   3.877  13.877  0.8236  0.3855 -0.7425
  123CHL1   C1215319   6.056   4.048  13.923 -0.5293  0.6268  0.6231
  123CHL1  H12A15320   6.011   4.134  13.978 -1.2585  1.5603 -1.3576
  123CHL1  H12B15321   6.165   4.066  13.931 -0.9127  2.6549  2.3714
  123CHL1   C1115322   6.014   4.069  13.774 -0.2772  0.8230  0.3381
  123CHL1  H11A15323   5.903   4.069  13.770 -0.2651 -0.2626 -0.4771
  123CHL1  H11B15324   6.052   4.170  13.750  0.2235  0.1454 -1.9900
  123CHL1    C915325   6.066   3.960  13.680 -0.1789 -0.4049 -0.3017
  123CHL1    H915326   6.176   3.957  13.693 -0.0918  1.0697 -0.6117
  123CHL1   C1015327   6.046   3.973  13.529 -0.1909 -0.3907  0.3302
  123CHL1   C1915328   5.888   3.973  13.503 -0.6240 -0.5301  0.3731
  123CHL1  H19A15329   5.826   4.038  13.568 -0.5882 -1.7656  1.7074
  123CHL1  H19B15330   5.876   4.007  13.398 -0.6811  0.6168  0.7372
  123CHL1  H19C15331   5.844   3.871  13.512 -3.2902  0.3542 -1.5630
  123CHL1    C115332   6.110   4.116  13.492 -0.3075 -1.0617  0.4386
  123CHL1   H1A15333   6.046   4.197  13.533 -0.4814 -0.8423 -0.2551
  123CHL1   H1B15334   6.203   4.119  13.551 -1.2165  1.9030  1.9062
  123CHL1    C215335   6.145   4.132  13.343 -0.6388  0.3527  0.7131
  123CHL1   H2A15336   6.217   4.211  13.316  0.3122 -0.6759  0.1530
  123CHL1   H2B15337   6.058   4.140  13.274  1.3657 -0.5629 -2.0857
  123CHL1   C2015338   6.004   3.914  14.242  0.2518 -0.5966 -0.4287
  123CHL1   H2015339   5.894   3.913  14.230  0.1923  0.2320  0.0273
  123CHL1   C2115340   6.052   4.052  14.268 -0.4930 -0.3447 -0.0869
  123CHL1  H21A15341   6.006   4.086  14.364 -1.1899 -1.2261 -0.0905
  123CHL1  H21B15342   6.011   4.122  14.193  1.6935 -0.3265 -1.3337
  123CHL1  H21C15343   6.162   4.064  14.270 -0.5167  0.0788 -1.0139
  123CHL1   C2215344   6.038   3.824  14.360 -0.0200  0.6352 -1.1397
  123CHL1  H22A15345   6.017   3.718  14.336  0.9683  0.2740 -0.4809
  123CHL1  H22B15346   6.147   3.826  14.380 -0.3955  0.2702  1.2626
  123CHL1   C2315347   5.964   3.858  14.490  0.2483  0.6016  0.2554
  123CHL1  H23A15348   5.996   3.957  14.530  0.2919  0.7031 -0.0316
  123CHL1  H23B15349   5.854   3.865  14.476  0.1468  0.7162  1.0669
  123CHL1   C2415350   5.987   3.742  14.590  0.2717  0.5297 -0.2889
  123CHL1  H24A15351   5.980   3.649  14.529  1.1281  0.5801 -0.4759
  123CHL1  H24B15352   6.094   3.737  14.620 -0.1463 -2.3442  1.0075
  123CHL1   C2515353   5.896   3.727  14.715  0.2288  0.2290  1.0084
  123CHL1   H2515354   5.799   3.738  14.663  0.4281  2.1574  0.9956
  123CHL1   C2615355   5.910   3.590  14.785  0.2217 -0.2452 -0.2481
  123CHL1  H26A15356   5.888   3.509  14.712 -1.2888 -0.7885  0.7707
  123CHL1  H26B15357   6.010   3.574  14.832  0.4702 -0.7077 -0.9116
  123CHL1  H26C15358   5.825   3.582  14.855 -0.6714  1.9005 -1.0158
  123CHL1   C2715359   5.923   3.835  14.822  0.0749 -0.0409  0.1052
  123CHL1  H27A15360   5.840   3.840  14.896 -1.2362  1.3073 -1.3800
  123CHL1  H27B15361   6.022   3.810  14.866  1.3532  2.3709 -1.1874
  123CHL1  H27C15362   5.935   3.938  14.781  0.4822 -0.3599 -0.5971
  124CHL1    C315363   4.110   5.217  13.254  0.7870 -0.4877 -0.2939
  124CHL1    H315364   4.005   5.251  13.267  1.0454  0.2410 -0.0739
  124CHL1    O315365   4.142   5.258  13.122  0.6583  0.1996  0.3488
  124CHL1   H3'15366   4.221   5.312  13.125  0.6937  0.1357  0.6153
  124CHL1    C415367   4.194   5.296  13.353  0.3360 -0.0148  0.3918
  124CHL1   H4A15368   4.302   5.280  13.334  0.1259 -0.2076 -0.6993
  124CHL1   H4B15369   4.183   5.404  13.327  0.1363 -0.2089 -0.3719
  124CHL1    C515370   4.146   5.262  13.495 -0.0779 -0.5638 -0.1261
  124CHL1    C615371   4.090   5.355  13.583 -0.3963 -0.7723  0.8936
  124CHL1    H615372   4.084   5.461  13.555 -3.9561 -1.0064  0.1785
  124CHL1    C715373   4.055   5.323  13.727 -0.1833 -0.8646  0.3665
  124CHL1   H7A15374   4.081   5.407  13.795 -1.8630  0.5184 -0.6230
  124CHL1   H7B15375   3.945   5.305  13.733  0.1821 -3.0089  2.3833
  124CHL1    C815376   4.118   5.187  13.768  0.0825  0.9199  0.3701
  124CHL1    H815377   4.229   5.194  13.777  0.4652 -0.3016 -2.3158
  124CHL1   C1415378   4.059   5.144  13.907 -0.1852 -0.0150 -0.1424
  124CHL1   H1415379   3.949   5.139  13.895 -0.2128  1.9242 -1.1940
  124CHL1   C1515380   4.082   5.236  14.023  0.0908  0.2739  0.1705
  124CHL1  H15A15381   4.184   5.280  14.021  0.1311  0.3302  1.6887
  124CHL1  H15B15382   4.001   5.311  14.035 -0.8325 -0.7641  0.6222
  124CHL1   C1615383   4.078   5.148  14.149  0.0225  0.1363 -0.6002
  124CHL1  H16A15384   4.176   5.152  14.202 -0.4419 -0.9440  0.3694
  124CHL1  H16B15385   3.999   5.186  14.218  1.9286  0.3332  1.5953
  124CHL1   C1715386   4.043   5.004  14.091 -0.1355 -0.1781  0.9995
  124CHL1   H1715387   3.936   4.990  14.065  0.0901  0.7196 -0.4893
  124CHL1   C1315388   4.108   5.012  13.953 -0.3812 -0.4790  0.1554
  124CHL1   C1815389   4.264   5.011  13.964  0.5958  0.6432  0.9554
  124CHL1  H18A15390   4.287   4.913  14.010  0.3052  0.3985  0.5862
  124CHL1  H18B15391   4.305   5.029  13.863  0.7067 -0.6617  0.7502
  124CHL1  H18C15392   4.302   5.095  14.026 -1.4804  0.4911  2.5709
  124CHL1   C1215393   4.062   4.906  13.850 -0.2240 -0.0469  0.2563
  124CHL1  H12A15394   4.099   4.804  13.875  1.7867  0.3729 -0.8286
  124CHL1  H12B15395   3.951   4.908  13.850 -0.2723  1.7130 -2.4417
  124CHL1   C1115396   4.107   4.932  13.707  0.1707  0.6640  0.1851
  124CHL1  H11A15397   4.214   4.903  13.704  0.0078  0.0781 -0.0706
  124CHL1  H11B15398   4.045   4.863  13.646 -0.0982  0.8807  0.2113
  124CHL1    C915399   4.096   5.080  13.655  0.7592  0.3572  0.4817
  124CHL1    H915400   3.989   5.104  13.639  1.3818  1.8960 -1.6579
  124CHL1   C1015401   4.167   5.112  13.524 -0.1238  0.4153 -0.3509
  124CHL1   C1915402   4.314   5.083  13.544 -0.2389  0.1905  0.3259
  124CHL1  H19A15403   4.351   5.097  13.648  0.3827 -1.1579  0.3151
  124CHL1  H19B15404   4.341   4.980  13.511  2.2192  0.9463 -0.2240
  124CHL1  H19C15405   4.382   5.143  13.480 -1.9837  2.2385  0.2985
  124CHL1    C115406   4.097   5.029  13.414  0.1013  0.1937  0.0521
  124CHL1   H1A15407   4.123   4.924  13.440 -1.6887  0.1273  1.8916
  124CHL1   H1B15408   3.987   5.044  13.420 -0.1647 -1.0864 -1.1666
  124CHL1    C215409   4.127   5.068  13.267 -1.0994  0.3108  0.3495
  124CHL1   H2A15410   4.066   5.004  13.200 -0.8602  0.4286  0.0163
  124CHL1   H2B15411   4.229   5.033  13.241 -1.1251 -0.5366  1.3419
  124CHL1   C2015412   4.087   4.896  14.190  0.3855 -0.5059  0.0124
  124CHL1   H2015413   4.188   4.927  14.226  0.1439  1.2174 -0.6824
  124CHL1   C2115414   4.094   4.755  14.125 -0.4512  0.5543  0.1909
  124CHL1  H21A15415   4.119   4.677  14.201 -0.6554  0.1993 -0.1037
  124CHL1  H21B15416   4.166   4.734  14.043 -0.0735 -2.3569  1.1471
  124CHL1  H21C15417   3.996   4.725  14.083 -0.0947  2.5863 -2.3286
  124CHL1   C2215418   3.992   4.896  14.311  0.1345  0.6405 -0.4830
  124CHL1  H22A15419   3.983   4.996  14.359 -0.0096 -0.5596  2.1883
  124CHL1  H22B15420   3.891   4.871  14.272 -0.3941  0.3550  0.9887
  124CHL1   C2315421   4.029   4.794  14.424 -0.1758 -0.3368 -0.1174
  124CHL1  H23A15422   4.021   4.692  14.381  0.4292 -1.6764  2.7191
  124CHL1  H23B15423   4.136   4.809  14.449 -0.1344 -2.2825  1.0801
  124CHL1   C2415424   3.937   4.810  14.546  0.2466 -0.6517 -0.2963
  124CHL1  H24A15425   3.949   4.911  14.591 -1.7411 -0.4512 -0.1314
  124CHL1  H24B15426   3.836   4.797  14.501 -0.1366  1.0903 -0.0011
  124CHL1   C2515427   3.950   4.708  14.666 -0.4048  0.4343  0.3440
  124CHL1   H2515428   3.923   4.606  14.632 -2.0813  0.5073  1.3620
  124CHL1   C2615429   4.092   4.711  14.723  0.0740 -0.8345  0.1683
  124CHL1  H26A15430   4.121   4.816  14.745 -2.3512 -0.1029  0.1643
  124CHL1  H26B15431   4.099   4.656  14.819  1.0447 -0.1845  0.4852
  124CHL1  H26C15432   4.161   4.676  14.643 -0.6418 -0.4276 -0.6472
  124CHL1   C2715433   3.847   4.744  14.772  0.1057  0.4640 -0.3525
  124CHL1  H27A15434   3.746   4.722  14.730 -1.6928 -1.0811  4.1317
  124CHL1  H27B15435   3.862   4.670  14.854  1.4548 -0.5865 -1.4986
  124CHL1  H27C15436   3.846   4.848  14.809 -1.2946  0.8124 -1.2740
  125CHL1    C315437   4.712   4.879  13.211  0.2111  1.0310 -0.2973
  125CHL1    H315438   4.692   4.986  13.234  0.9411  1.3303 -0.9679
  125CHL1    O315439   4.720   4.858  13.073  0.2518  0.0699  0.0691
  125CHL1   H3'15440   4.640   4.816  13.041  0.0957  1.3164 -1.3209
  125CHL1    C415441   4.844   4.838  13.284  0.8252  0.5001 -0.6688
  125CHL1   H4A15442   4.861   4.731  13.258  0.4628 -0.0516  1.1970
  125CHL1   H4B15443   4.931   4.890  13.237  1.2220  0.7820  0.3462
  125CHL1    C515444   4.839   4.839  13.438  0.1674 -0.0077 -0.3530
  125CHL1    C615445   4.931   4.894  13.518  0.0974  0.1746  0.3137
  125CHL1    H615446   5.016   4.945  13.470 -1.3021  2.8340  0.4762
  125CHL1    C715447   4.925   4.900  13.665  0.1298 -0.4664  0.4078
  125CHL1   H7A15448   5.020   4.879  13.718  0.1204  0.3294  0.7559
  125CHL1   H7B15449   4.896   5.004  13.690 -0.4122 -0.2180 -1.1328
  125CHL1    C815450   4.807   4.814  13.729 -0.1504  0.1296  0.1169
  125CHL1    H815451   4.843   4.709  13.732  1.6481  0.5629 -2.6450
  125CHL1   C1415452   4.771   4.863  13.869  0.1163 -0.3675  0.1678
  125CHL1   H1415453   4.744   4.967  13.840 -1.2242 -0.6045  0.4717
  125CHL1   C1515454   4.881   4.877  13.969 -0.0587  0.4460 -0.8446
  125CHL1  H15A15455   4.957   4.796  13.967  1.3295  1.7076 -0.6970
  125CHL1  H15B15456   4.939   4.971  13.964  0.7798  0.0328  0.6688
  125CHL1   C1615457   4.807   4.886  14.104  0.2632  0.0527 -0.6373
  125CHL1  H16A15458   4.831   4.791  14.155 -1.9805 -0.7563 -0.9723
  125CHL1  H16B15459   4.839   4.971  14.168 -3.3918  0.8852  0.3278
  125CHL1   C1715460   4.655   4.882  14.070 -0.4905 -0.8225  1.0204
  125CHL1   H1715461   4.622   4.984  14.041  2.2073  0.0450  0.7594
  125CHL1   C1315462   4.650   4.799  13.937 -0.4620  0.7703  0.1265
  125CHL1   C1815463   4.692   4.641  13.958 -0.3170 -1.0667  0.2876
  125CHL1  H18A15464   4.784   4.630  14.020  0.5957 -1.0740 -1.0333
  125CHL1  H18B15465   4.615   4.582  14.012 -0.2076 -0.4143  1.1792
  125CHL1  H18C15466   4.709   4.582  13.865 -1.0292  0.8710 -1.1243
  125CHL1   C1215467   4.529   4.811  13.842 -0.1292  0.0397  0.0340
  125CHL1  H12A15468   4.439   4.773  13.894  0.1749  0.0035  0.5389
  125CHL1  H12B15469   4.514   4.921  13.828 -0.4568 -0.1257 -0.9805
  125CHL1   C1115470   4.558   4.760  13.695  0.0435 -0.2351  0.3130
  125CHL1  H11A15471   4.563   4.650  13.705  1.1003 -0.7096 -3.6139
  125CHL1  H11B15472   4.463   4.792  13.647  0.9444  1.9712 -0.1324
  125CHL1    C915473   4.687   4.821  13.639  0.4795 -0.4518 -0.9057
  125CHL1    H915474   4.671   4.929  13.620  2.0968 -0.1153 -0.4505
  125CHL1   C1015475   4.710   4.774  13.495  0.2176 -0.3124  0.6053
  125CHL1   C1915476   4.731   4.622  13.497 -0.2985  0.1397  0.1732
  125CHL1  H19A15477   4.745   4.581  13.394  1.1307  0.2942  0.2939
  125CHL1  H19B15478   4.823   4.596  13.553  1.0299  0.7118 -1.6349
  125CHL1  H19C15479   4.657   4.549  13.537 -0.0413 -0.5077 -0.5152
  125CHL1    C115480   4.586   4.814  13.415  0.3708 -0.4563  0.0024
  125CHL1   H1A15481   4.501   4.749  13.444 -0.1038  0.5073  0.8270
  125CHL1   H1B15482   4.571   4.918  13.452  2.5686 -1.0221  2.8729
  125CHL1    C215483   4.598   4.794  13.267  0.2181  0.0030  1.3580
  125CHL1   H2A15484   4.496   4.813  13.227  0.4466 -1.1206  0.1971
  125CHL1   H2B15485   4.617   4.687  13.246 -0.7199  0.0695  0.1053
  125CHL1   C2015486   4.561   4.846  14.186  0.0508 -0.7058  0.4539
  125CHL1   H2015487   4.470   4.809  14.133  2.7289 -2.4942 -3.4110
  125CHL1   C2115488   4.537   4.969  14.267 -0.2573  0.0870  0.4789
  125CHL1  H21A15489   4.492   4.955  14.368  1.2727 -0.1144  1.1670
  125CHL1  H21B15490   4.491   5.051  14.207  1.8957  0.1792 -1.1888
  125CHL1  H21C15491   4.636   5.006  14.301 -0.1207 -1.1436  1.4722
  125CHL1   C2215492   4.626   4.734  14.280  0.4387  0.2162  0.3231
  125CHL1  H22A15493   4.644   4.648  14.212  0.6220  0.3896  0.1485
  125CHL1  H22B15494   4.722   4.786  14.303  1.1742 -1.1354  0.3761
  125CHL1   C2315495   4.548   4.695  14.404 -0.0081 -0.7641 -0.6158
  125CHL1  H23A15496   4.516   4.788  14.456 -2.0850 -0.3863 -2.4336
  125CHL1  H23B15497   4.450   4.654  14.372 -0.1565  0.1254 -1.3288
  125CHL1   C2415498   4.614   4.598  14.500  0.3141  0.4966  0.1347
  125CHL1  H24A15499   4.644   4.519  14.429  3.5556  1.2344  0.5048
  125CHL1  H24B15500   4.715   4.636  14.529  1.6646 -0.9049 -2.3475
  125CHL1   C2515501   4.541   4.536  14.618 -0.0412 -0.2140  0.2253
  125CHL1   H2515502   4.451   4.484  14.579 -0.4106  0.8088 -0.3296
  125CHL1   C2615503   4.636   4.440  14.695  0.0685 -0.4879  0.4848
  125CHL1  H26A15504   4.741   4.449  14.657 -0.5823  0.3081 -1.2339
  125CHL1  H26B15505   4.635   4.465  14.803  1.3151  2.5726 -0.0963
  125CHL1  H26C15506   4.601   4.335  14.701  0.3295 -0.6125 -0.0588
  125CHL1   C2715507   4.484   4.637  14.717  0.2045  0.0502  0.0581
  125CHL1  H27A15508   4.431   4.585  14.800 -2.2534  1.8212 -0.2830
  125CHL1  H27B15509   4.566   4.697  14.762 -0.9090  0.5158  1.5788
  125CHL1  H27C15510   4.419   4.720  14.682  0.4023  1.6522  3.1448
  126CHL1    C315511   4.639   5.310  13.292  0.2362  0.2256  1.0352
  126CHL1    H315512   4.560   5.234  13.303  0.7380 -0.5355 -0.3522
  126CHL1    O315513   4.657   5.312  13.152  0.9054  0.3917  0.8843
  126CHL1   H3'15514   4.716   5.386  13.135  0.0279  0.6059 -1.5363
  126CHL1    C415515   4.587   5.442  13.346  0.3349  0.5982 -0.2249
  126CHL1   H4A15516   4.653   5.527  13.320  0.8107  0.5565  0.8213
  126CHL1   H4B15517   4.489   5.458  13.295 -0.0037  0.0647  0.2516
  126CHL1    C515518   4.561   5.433  13.496  0.0418  0.6339  0.1316
  126CHL1    C615519   4.441   5.462  13.552  0.1973 -0.2823  0.4632
  126CHL1    H615520   4.355   5.496  13.492 -1.3075  0.3743  2.8618
  126CHL1    C715521   4.421   5.457  13.698 -0.9444 -0.2179  0.4358
  126CHL1   H7A15522   4.359   5.545  13.726  0.1632  0.1870  1.7535
  126CHL1   H7B15523   4.361   5.367  13.723 -2.2992  0.5268 -0.0276
  126CHL1    C815524   4.543   5.458  13.789 -0.1888  0.6729  0.1668
  126CHL1    H815525   4.592   5.557  13.782  0.6048  0.1446 -3.0601
  126CHL1   C1415526   4.502   5.429  13.928 -0.2281 -0.0710 -0.2100
  126CHL1   H1415527   4.453   5.330  13.933 -2.2761  0.9382  1.9608
  126CHL1   C1515528   4.389   5.510  13.988  0.0641 -0.5390 -0.2195
  126CHL1  H15A15529   4.415   5.616  13.968  0.5265 -0.4326  0.8418
  126CHL1  H15B15530   4.290   5.480  13.949 -0.2312 -0.1449  0.2225
  126CHL1   C1615531   4.395   5.478  14.135 -0.7205  0.2227  0.6231
  126CHL1  H16A15532   4.387   5.575  14.190 -0.4064  0.3814  0.3972
  126CHL1  H16B15533   4.313   5.409  14.162 -0.6302 -0.5206 -0.8660
  126CHL1   C1715534   4.538   5.402  14.160  1.2873 -0.3199 -0.7363
  126CHL1   H1715535   4.517   5.293  14.162  2.5766 -0.5805 -0.0969
  126CHL1   C1315536   4.615   5.422  14.029  0.1033 -0.0133  0.3271
  126CHL1   C1815537   4.689   5.563  14.038  0.2572 -0.0070  0.1496
  126CHL1  H18A15538   4.734   5.587  13.939  2.3933 -2.1535  0.5086
  126CHL1  H18B15539   4.621   5.638  14.085  0.4740 -1.3720  2.8345
  126CHL1  H18C15540   4.776   5.562  14.106  0.3135 -0.4741  0.0691
  126CHL1   C1215541   4.711   5.312  13.984 -0.3685  0.2524  0.1391
  126CHL1  H12A15542   4.804   5.314  14.044  0.4060 -0.4795 -1.0001
  126CHL1  H12B15543   4.660   5.213  13.982 -0.4458  0.3096 -0.9914
  126CHL1   C1115544   4.755   5.325  13.837 -0.3462  0.0208  0.6336
  126CHL1  H11A15545   4.828   5.408  13.846  0.6410 -0.8985  1.3052
  126CHL1  H11B15546   4.806   5.231  13.809 -0.0098  1.0825 -2.8766
  126CHL1    C915547   4.645   5.355  13.736  0.1422  0.1726  0.1212
  126CHL1    H915548   4.582   5.264  13.746 -0.2934  0.2627 -1.4963
  126CHL1   C1015549   4.678   5.373  13.585 -0.5231  0.7676 -0.0985
  126CHL1   C1915550   4.795   5.471  13.585 -0.2341  0.3570  0.1374
  126CHL1  H19A15551   4.809   5.496  13.478  1.2800  0.7257  0.4010
  126CHL1  H19B15552   4.771   5.562  13.643 -0.9177  0.7021 -0.6715
  126CHL1  H19C15553   4.887   5.422  13.626 -0.4878 -0.0118  0.2773
  126CHL1    C115554   4.721   5.238  13.521 -0.8937 -0.3957 -0.1251
  126CHL1   H1A15555   4.812   5.196  13.569  1.1879  0.4246 -3.0784
  126CHL1   H1B15556   4.639   5.164  13.533 -0.1060 -2.4102 -5.0869
  126CHL1    C215557   4.758   5.254  13.370  0.3292 -0.0066 -0.2205
  126CHL1   H2A15558   4.780   5.153  13.329 -0.3380 -1.1666  2.1174
  126CHL1   H2B15559   4.840   5.327  13.356 -0.1771  0.4241 -1.0346
  126CHL1   C2015560   4.600   5.433  14.297 -0.3113 -0.2776  0.0179
  126CHL1   H2015561   4.641   5.537  14.298  0.1354 -0.4531  0.2181
  126CHL1   C2115562   4.707   5.324  14.334  0.3941 -0.8298 -0.3974
  126CHL1  H21A15563   4.744   5.335  14.438 -0.0956  2.2288 -0.4410
  126CHL1  H21B15564   4.796   5.331  14.267  0.6638  0.4150  0.0754
  126CHL1  H21C15565   4.671   5.220  14.321  1.1614 -1.3592  1.3596
  126CHL1   C2215566   4.500   5.439  14.414  0.6783 -0.5854  0.3231
  126CHL1  H22A15567   4.563   5.439  14.505  3.1435 -0.9036 -1.3061
  126CHL1  H22B15568   4.457   5.541  14.416  1.9661 -0.0236  0.1418
  126CHL1   C2315569   4.409   5.322  14.425 -0.6984 -0.0571 -0.2398
  126CHL1  H23A15570   4.321   5.345  14.360  0.1372  1.9499 -0.7382
  126CHL1  H23B15571   4.459   5.227  14.396  2.4446  1.2149  0.6863
  126CHL1   C2415572   4.360   5.302  14.567 -0.0453  0.3248 -0.1341
  126CHL1  H24A15573   4.443   5.268  14.633 -0.0639  0.2507 -0.1498
  126CHL1  H24B15574   4.326   5.399  14.609  0.9251  0.9989 -0.8692
  126CHL1   C2515575   4.229   5.210  14.586 -0.4805  0.0818 -0.6573
  126CHL1   H2515576   4.201   5.207  14.693 -0.3294 -1.7229 -0.6445
  126CHL1   C2615577   4.103   5.256  14.517 -0.2003 -0.0997 -0.1219
  126CHL1  H26A15578   4.018   5.187  14.536 -0.3928 -0.0608 -0.8251
  126CHL1  H26B15579   4.093   5.359  14.559 -0.2091 -0.4299  0.7071
  126CHL1  H26C15580   4.124   5.254  14.408  1.8738 -0.9104  0.2610
  126CHL1   C2715581   4.255   5.065  14.538 -1.1052 -0.2275  0.1127
  126CHL1  H27A15582   4.342   5.022  14.593 -1.1242 -0.8694 -0.3423
  126CHL1  H27B15583   4.164   5.001  14.551 -0.6139 -1.2820 -1.3711
  126CHL1  H27C15584   4.289   5.070  14.433 -0.8924 -0.1339  0.1863
  127CHL1    C315585   3.572   7.272  13.343  0.2555  0.7509  0.4353
  127CHL1    H315586   3.477   7.218  13.362 -0.1166  0.8546 -0.9656
  127CHL1    O315587   3.596   7.289  13.206 -0.2435  0.0784 -0.0601
  127CHL1   H3'15588   3.692   7.291  13.198 -0.1563  1.7921  0.8968
  127CHL1    C415589   3.542   7.413  13.396  0.2260  0.5981  0.0233
  127CHL1   H4A15590   3.629   7.473  13.361 -0.4613  1.5483 -0.0995
  127CHL1   H4B15591   3.450   7.446  13.343 -1.5366 -2.2390  1.0517
  127CHL1    C515592   3.528   7.417  13.549  0.0873  0.3859 -0.4279
  127CHL1    C615593   3.413   7.468  13.600  0.2375 -0.1724 -0.0767
  127CHL1    H615594   3.338   7.512  13.533 -0.4272  0.8818  1.3246
  127CHL1    C715595   3.396   7.477  13.752 -0.6691  0.2789  0.1170
  127CHL1   H7A15596   3.353   7.578  13.767  1.9611  1.4880 -0.0985
  127CHL1   H7B15597   3.323   7.399  13.784  0.2650 -0.6312  0.0861
  127CHL1    C815598   3.524   7.449  13.830 -0.5009  0.3896  0.2482
  127CHL1    H815599   3.589   7.539  13.824  0.0821 -0.0712 -0.6599
  127CHL1   C1415600   3.490   7.426  13.976 -0.1105 -0.1464 -0.0545
  127CHL1   H1415601   3.427   7.335  13.985 -1.0627  0.5092  0.0540
  127CHL1   C1515602   3.420   7.535  14.050  0.1387 -0.1634  0.4799
  127CHL1  H15A15603   3.449   7.635  14.011 -0.9795  1.1012  2.7067
  127CHL1  H15B15604   3.310   7.528  14.035  0.3547 -1.0288 -0.8741
  127CHL1   C1615605   3.459   7.512  14.195 -0.2933 -1.1402 -0.3053
  127CHL1  H16A15606   3.513   7.603  14.227 -2.5929  0.2620 -0.1478
  127CHL1  H16B15607   3.368   7.485  14.252 -0.8380  0.6489 -0.2823
  127CHL1   C1715608   3.547   7.389  14.200 -0.0123 -0.1021 -0.3755
  127CHL1   H1715609   3.485   7.297  14.207 -1.1178  0.6767  0.4646
  127CHL1   C1315610   3.610   7.387  14.060 -0.6687 -0.1192 -0.2319
  127CHL1   C1815611   3.716   7.493  14.060 -0.3250  0.1253 -0.1277
  127CHL1  H18A15612   3.803   7.464  14.124 -0.0181  0.7662 -0.2386
  127CHL1  H18B15613   3.755   7.518  13.959 -0.6277 -0.0843 -0.2964
  127CHL1  H18C15614   3.678   7.589  14.102 -1.8578  0.2196 -1.6460
  127CHL1   C1215615   3.661   7.251  14.011  0.2175  0.0548 -0.1962
  127CHL1  H12A15616   3.742   7.201  14.068 -0.3897 -3.1135 -1.8965
  127CHL1  H12B15617   3.573   7.186  14.030  0.4072 -0.8245 -2.1372
  127CHL1   C1115618   3.703   7.263  13.869  0.9447  0.4080 -0.0377
  127CHL1  H11A15619   3.802   7.312  13.859  0.6724  0.6540 -1.9523
  127CHL1  H11B15620   3.726   7.159  13.837  1.0132  0.8671 -1.5705
  127CHL1    C915621   3.597   7.326  13.779 -0.0232 -0.0989  0.3743
  127CHL1    H915622   3.512   7.255  13.765 -1.3358  1.6573 -1.2247
  127CHL1   C1015623   3.643   7.342  13.630  0.1170 -0.4235  0.0437
  127CHL1   C1915624   3.771   7.433  13.628  0.2102  0.1721 -0.8660
  127CHL1  H19A15625   3.749   7.530  13.676 -0.6396 -1.5083  2.3760
  127CHL1  H19B15626   3.855   7.376  13.674 -1.4033 -0.7459  1.0824
  127CHL1  H19C15627   3.800   7.459  13.523  0.9741 -0.6076 -0.8566
  127CHL1    C115628   3.678   7.206  13.562  0.2269 -0.7440  0.2559
  127CHL1   H1A15629   3.765   7.151  13.604 -0.4646 -3.0512 -1.0991
  127CHL1   H1B15630   3.589   7.142  13.580 -0.9743 -0.0602 -2.7488
  127CHL1    C215631   3.686   7.202  13.406  0.4157 -0.6238 -0.3098
  127CHL1   H2A15632   3.684   7.098  13.365  2.5039 -0.5607 -0.6821
  127CHL1   H2B15633   3.781   7.255  13.382 -0.1376  1.4494  1.8028
  127CHL1   C2015634   3.635   7.388  14.327  0.5980 -0.1183  0.1530
  127CHL1   H2015635   3.713   7.467  14.326  1.0076 -0.4954  1.1091
  127CHL1   C2115636   3.729   7.262  14.337  0.6059  0.5415  0.3002
  127CHL1  H21A15637   3.667   7.170  14.339  1.8034 -0.4126 -2.2646
  127CHL1  H21B15638   3.789   7.272  14.429  1.6751 -0.2264 -0.2950
  127CHL1  H21C15639   3.806   7.265  14.257 -0.6926 -0.4889 -1.0497
  127CHL1   C2215640   3.568   7.412  14.461 -0.0081 -0.4139 -0.1762
  127CHL1  H22A15641   3.646   7.416  14.540 -1.0315 -0.1968  0.8588
  127CHL1  H22B15642   3.521   7.513  14.451  1.1101 -0.0723 -2.8066
  127CHL1   C2315643   3.454   7.314  14.495 -0.4273 -0.0653  0.1348
  127CHL1  H23A15644   3.384   7.289  14.412 -1.2836 -2.3193  1.4589
  127CHL1  H23B15645   3.507   7.216  14.504  0.6688  0.3264 -1.6271
  127CHL1   C2415646   3.379   7.355  14.625 -0.4633  0.7647  0.4920
  127CHL1  H24A15647   3.316   7.265  14.640 -0.0464  0.5039  0.7092
  127CHL1  H24B15648   3.445   7.362  14.714 -1.6542 -0.0986  1.4674
  127CHL1   C2515649   3.274   7.471  14.619  0.1388 -0.0960 -0.5460
  127CHL1   H2515650   3.335   7.558  14.586 -1.9390  0.9296 -1.8808
  127CHL1   C2615651   3.150   7.455  14.526  0.2389 -0.3016 -0.7483
  127CHL1  H26A15652   3.172   7.463  14.417 -1.9350 -1.4757 -1.3211
  127CHL1  H26B15653   3.101   7.356  14.538 -1.6612  0.4397 -1.8906
  127CHL1  H26C15654   3.080   7.537  14.551  2.7142  1.3597  1.2745
  127CHL1   C2715655   3.233   7.513  14.761 -0.1550  0.3458 -0.1000
  127CHL1  H27A15656   3.325   7.554  14.809  1.3809  0.2902 -2.7747
  127CHL1  H27B15657   3.152   7.589  14.761 -1.8937 -1.3641 -2.1511
  127CHL1  H27C15658   3.203   7.424  14.821 -2.1358  0.5569 -0.7046
  128CHL1    C315659   2.168   1.536  13.245  0.4818 -0.0719  0.5380
  128CHL1    H315660   2.136   1.432  13.265  1.0558  0.0719  2.4220
  128CHL1    O315661   2.178   1.555  13.108  0.2544 -0.6429  0.1572
  128CHL1   H3'15662   2.092   1.534  13.071  0.7135  1.0231 -2.1199
  128CHL1    C415663   2.070   1.632  13.311 -0.3205 -0.1593  0.4189
  128CHL1   H4A15664   2.110   1.732  13.286  2.0406 -1.2311 -0.4511
  128CHL1   H4B15665   1.969   1.633  13.266 -0.4046 -1.6801  0.5221
  128CHL1    C515666   2.058   1.615  13.457  0.5383  0.3463 -0.6580
  128CHL1    C615667   1.941   1.584  13.520 -0.5098  0.0055 -0.2373
  128CHL1    H615668   1.851   1.571  13.458 -0.9096  0.3389  0.2732
  128CHL1    C715669   1.926   1.573  13.663  0.0361 -0.7185 -0.9289
  128CHL1   H7A15670   1.831   1.623  13.694 -0.1407 -1.8813  0.4858
  128CHL1   H7B15671   1.921   1.464  13.684 -0.4071 -0.5400 -0.0572
  128CHL1    C815672   2.045   1.642  13.734 -0.1831  0.3334  0.0334
  128CHL1    H815673   2.023   1.750  13.722 -1.2974 -0.1362 -2.9604
  128CHL1   C1415674   2.036   1.612  13.884 -0.3897  0.3977 -0.1161
  128CHL1   H1415675   2.049   1.502  13.891 -0.7043  0.4150  1.0869
  128CHL1   C1515676   1.911   1.650  13.970 -0.2955  0.0541  0.0908
  128CHL1  H15A15677   1.880   1.749  13.932 -2.5560 -1.0592 -1.1677
  128CHL1  H15B15678   1.823   1.584  13.953  0.1168  0.1216 -2.6592
  128CHL1   C1615679   1.966   1.645  14.109 -0.0832  0.0711 -0.1694
  128CHL1  H16A15680   1.943   1.740  14.162 -3.2605 -0.4503 -0.3867
  128CHL1  H16B15681   1.915   1.566  14.167  1.8457 -0.4927  0.8481
  128CHL1   C1715682   2.118   1.607  14.104 -0.4562 -0.0652  0.0876
  128CHL1   H1715683   2.131   1.498  14.085  0.9780 -0.0176  0.6765
  128CHL1   C1315684   2.164   1.651  13.970 -0.2366 -0.4733  0.2501
  128CHL1   C1815685   2.177   1.807  13.955 -0.3680  0.2970  0.3558
  128CHL1  H18A15686   2.280   1.841  13.980 -0.0442 -1.3058  1.3658
  128CHL1  H18B15687   2.152   1.829  13.849 -0.7686 -0.2917  0.3207
  128CHL1  H18C15688   2.108   1.860  14.023 -1.4753 -2.0176  1.1573
  128CHL1   C1215689   2.285   1.580  13.904 -0.3607 -0.3870  0.7766
  128CHL1  H12A15690   2.383   1.609  13.948 -0.5329  0.4779  0.6144
  128CHL1  H12B15691   2.282   1.469  13.907  1.5433 -0.5496 -0.9117
  128CHL1   C1115692   2.303   1.616  13.760 -0.0178  0.2175  0.2574
  128CHL1  H11A15693   2.330   1.724  13.760  1.1930 -0.0680  0.7780
  128CHL1  H11B15694   2.382   1.553  13.715 -0.9462 -0.3658 -0.5828
  128CHL1    C915695   2.178   1.591  13.675 -0.2784  0.3543 -0.6620
  128CHL1    H915696   2.163   1.481  13.667 -0.1828  0.4042 -1.7746
  128CHL1   C1015697   2.198   1.640  13.532 -0.6181 -0.4821 -0.9798
  128CHL1   C1915698   2.250   1.786  13.533  0.1401 -0.2906  0.0678
  128CHL1  H19A15699   2.205   1.850  13.612 -1.5121 -0.3172 -0.7979
  128CHL1  H19B15700   2.359   1.783  13.553 -0.2194  0.9505  2.6558
  128CHL1  H19C15701   2.239   1.838  13.436 -0.4501 -0.8752 -0.1868
  128CHL1    C115702   2.298   1.543  13.462 -0.2098  0.0570 -0.4355
  128CHL1   H1A15703   2.399   1.552  13.509 -0.2229  1.5865 -0.6536
  128CHL1   H1B15704   2.265   1.438  13.479 -3.4099  1.0271  0.0670
  128CHL1    C215705   2.308   1.567  13.307  0.6172  0.3727  0.5477
  128CHL1   H2A15706   2.369   1.482  13.269 -0.4852  0.1933 -0.8811
  128CHL1   H2B15707   2.348   1.667  13.280  0.9444 -0.2441 -1.3404
  128CHL1   C2015708   2.203   1.645  14.227  0.4344  0.2914  0.0529
  128CHL1   H2015709   2.304   1.671  14.190  0.1048 -0.5439 -1.5018
  128CHL1   C2115710   2.207   1.520  14.325  0.1377 -0.0391  0.3097
  128CHL1  H21A15711   2.106   1.500  14.368 -0.4447  0.0959 -0.9426
  128CHL1  H21B15712   2.265   1.529  14.419  1.6124 -1.3348 -0.4357
  128CHL1  H21C15713   2.251   1.428  14.282 -0.0549 -0.7132  1.5094
  128CHL1   C2215714   2.151   1.770  14.304  0.0198 -0.2777 -0.0097
  128CHL1  H22A15715   2.120   1.841  14.224  2.0066 -0.2930 -0.8577
  128CHL1  H22B15716   2.064   1.748  14.369 -0.2793  0.6364 -0.0807
  128CHL1   C2315717   2.269   1.833  14.385 -0.0222  0.1212 -0.1549
  128CHL1  H23A15718   2.305   1.750  14.450  0.4884 -0.4638 -1.1715
  128CHL1  H23B15719   2.349   1.859  14.313  0.1416 -1.6261 -0.6457
  128CHL1   C2415720   2.216   1.945  14.473  0.5893 -0.1085  0.1091
  128CHL1  H24A15721   2.207   2.039  14.415  0.0583  0.5801  1.2911
  128CHL1  H24B15722   2.113   1.927  14.510  1.0498 -0.9812  1.0072
  128CHL1   C2515723   2.297   1.971  14.604 -0.4625  0.5838  0.8366
  128CHL1   H2515724   2.292   1.877  14.662  1.4280  0.7629  1.3693
  128CHL1   C2615725   2.446   2.000  14.571 -1.1431 -0.0232  0.0356
  128CHL1  H26A15726   2.497   1.919  14.515  0.8009 -0.2181  1.9840
  128CHL1  H26B15727   2.450   2.094  14.511  1.8927  1.6790  2.5675
  128CHL1  H26C15728   2.510   2.023  14.658 -0.5975  2.0765 -0.8393
  128CHL1   C2715729   2.235   2.084  14.681  0.2748 -0.2257  0.6455
  128CHL1  H27A15730   2.144   2.057  14.738 -1.0597  0.6074 -1.0104
  128CHL1  H27B15731   2.302   2.131  14.756 -0.2186 -0.0297  0.9675
  128CHL1  H27C15732   2.214   2.162  14.604  1.1570 -1.3227 -0.7632
  129CHL1    C315733   5.443   7.589  13.306 -0.2997  0.9514  0.5481
  129CHL1    H315734   5.336   7.567  13.328 -0.0681 -1.3322 -0.2473
  129CHL1    O315735   5.451   7.668  13.189  0.5683 -0.1641 -0.3447
  129CHL1   H3'15736   5.411   7.615  13.120  1.6188  1.0823 -2.0060
  129CHL1    C415737   5.499   7.664  13.429 -0.2028 -0.5889 -0.2732
  129CHL1   H4A15738   5.595   7.703  13.390 -0.3849  0.9415  0.7378
  129CHL1   H4B15739   5.427   7.747  13.443 -0.6355 -0.8321 -1.0311
  129CHL1    C515740   5.513   7.576  13.555 -0.4805  0.2112 -0.7957
  129CHL1    C615741   5.456   7.610  13.671 -0.5115  0.0721 -0.6672
  129CHL1    H615742   5.406   7.708  13.679 -0.6638 -0.1648  4.1460
  129CHL1    C715743   5.456   7.532  13.801 -0.2990 -0.1587 -0.2682
  129CHL1   H7A15744   5.466   7.594  13.893 -1.7794  0.7604 -0.6917
  129CHL1   H7B15745   5.360   7.480  13.818 -1.6075  2.2579  0.1880
  129CHL1    C815746   5.563   7.424  13.796  0.2186 -0.3460  0.7607
  129CHL1    H815747   5.658   7.481  13.806 -0.4395  1.0203 -0.4657
  129CHL1   C1415748   5.533   7.327  13.906 -0.7353  0.0174 -0.0763
  129CHL1   H1415749   5.430   7.289  13.892 -0.4477 -0.7872 -0.0696
  129CHL1   C1515750   5.533   7.376  14.057 -0.0349 -0.0350  0.1913
  129CHL1  H15A15751   5.627   7.432  14.075 -0.0353 -0.2219  0.7818
  129CHL1  H15B15752   5.437   7.426  14.082 -1.4675 -2.9641  1.0382
  129CHL1   C1615753   5.541   7.245  14.131  0.3176 -0.4654 -0.9085
  129CHL1  H16A15754   5.610   7.266  14.216  0.3812  1.2674 -1.3495
  129CHL1  H16B15755   5.446   7.221  14.183  1.7822 -2.5867  0.9587
  129CHL1   C1715756   5.579   7.125  14.037  0.8827 -0.3225  0.4637
  129CHL1   H1715757   5.487   7.067  14.016  1.0322 -0.1473 -0.7257
  129CHL1   C1315758   5.615   7.200  13.905  0.0236 -0.3412  0.5930
  129CHL1   C1815759   5.764   7.235  13.906  0.0968 -0.3720  0.0180
  129CHL1  H18A15760   5.806   7.302  13.828  0.4730  0.3889  0.8559
  129CHL1  H18B15761   5.790   7.279  14.005 -0.3839  1.3054 -0.5672
  129CHL1  H18C15762   5.815   7.137  13.895 -0.0770 -0.8292  2.6305
  129CHL1   C1215763   5.583   7.131  13.776 -0.8006 -1.0435  0.3340
  129CHL1  H12A15764   5.615   7.024  13.778 -0.4230 -1.0522 -2.3005
  129CHL1  H12B15765   5.474   7.112  13.768 -1.1931  1.0726  0.1494
  129CHL1   C1115766   5.621   7.211  13.656  0.0783 -0.4928 -0.6001
  129CHL1  H11A15767   5.732   7.216  13.649  0.1175  0.1192  0.3328
  129CHL1  H11B15768   5.581   7.159  13.566  0.1529  0.2130 -1.0532
  129CHL1    C915769   5.554   7.353  13.657 -0.8137  0.0242  0.6685
  129CHL1    H915770   5.447   7.326  13.664 -0.5877 -0.8949  0.7950
  129CHL1   C1015771   5.577   7.437  13.531 -0.3098 -0.4167  0.3378
  129CHL1   C1915772   5.729   7.457  13.515  0.3304 -0.1611 -0.1029
  129CHL1  H19A15773   5.788   7.471  13.608  2.3436 -0.2379 -1.2962
  129CHL1  H19B15774   5.770   7.362  13.474  0.3429 -0.7052  1.1241
  129CHL1  H19C15775   5.747   7.544  13.448 -0.9505  0.3015  0.1347
  129CHL1    C115776   5.519   7.373  13.404 -0.6967 -0.7106 -0.6347
  129CHL1   H1A15777   5.582   7.285  13.379  0.7264 -0.5981  2.1753
  129CHL1   H1B15778   5.418   7.330  13.422 -0.5996 -0.7130 -0.0530
  129CHL1    C215779   5.514   7.456  13.275 -0.0423 -0.4422 -0.0406
  129CHL1   H2A15780   5.463   7.406  13.189 -0.2460  0.2955 -0.3569
  129CHL1   H2B15781   5.620   7.474  13.247  0.0749  0.5868  0.9793
  129CHL1   C2015782   5.685   7.029  14.096  0.5276  0.0800  0.0525
  129CHL1   H2015783   5.786   7.074  14.109  0.5892 -0.5324  1.9409
  129CHL1   C2115784   5.693   6.900  14.013 -0.2027 -1.0523 -0.5639
  129CHL1  H21A15785   5.594   6.853  13.997 -1.7060  1.4407  0.6809
  129CHL1  H21B15786   5.749   6.824  14.071  0.8753 -1.2901 -1.8814
  129CHL1  H21C15787   5.739   6.920  13.914  1.5853  3.0473  0.8664
  129CHL1   C2215788   5.637   6.994  14.239  0.8597  0.7965 -0.8691
  129CHL1  H22A15789   5.610   7.087  14.294 -0.4772 -0.5376  0.8699
  129CHL1  H22B15790   5.554   6.920  14.237  3.2199 -2.0347 -0.5364
  129CHL1   C2315791   5.746   6.931  14.328 -0.6383  0.2109 -0.1965
  129CHL1  H23A15792   5.780   6.835  14.285 -2.0469  0.1469 -1.2104
  129CHL1  H23B15793   5.832   7.002  14.329  0.3150 -0.9252  0.1051
  129CHL1   C2415794   5.706   6.892  14.468 -0.4110 -0.3176  0.7511
  129CHL1  H24A15795   5.656   6.981  14.511 -1.6913 -0.4873 -0.2995
  129CHL1  H24B15796   5.622   6.818  14.466 -1.0763  0.3923  1.5975
  129CHL1   C2515797   5.827   6.851  14.563  0.3489  0.1564  0.0707
  129CHL1   H2515798   5.880   6.759  14.529 -0.6996 -0.1959 -0.6832
  129CHL1   C2615799   5.913   6.973  14.595 -0.2376  0.9713 -0.2347
  129CHL1  H26A15800   5.996   6.925  14.651  0.4279  0.3679 -1.7021
  129CHL1  H26B15801   5.960   7.019  14.506 -0.8319  0.0219 -1.0560
  129CHL1  H26C15802   5.850   7.042  14.656  0.7171 -1.8446  4.4044
  129CHL1   C2715803   5.760   6.820  14.704 -0.6763 -0.3225 -0.3560
  129CHL1  H27A15804   5.826   6.757  14.767 -1.0027 -3.1760 -2.6398
  129CHL1  H27B15805   5.730   6.909  14.763 -1.5960 -0.9984  0.2121
  129CHL1  H27C15806   5.669   6.758  14.687 -0.3420 -1.6039  2.1162
  130CHL1    C315807   3.470   6.878  13.303  0.0326  0.0267  0.0203
  130CHL1    H315808   3.528   6.973  13.301 -1.0896  0.8740  2.7821
  130CHL1    O315809   3.450   6.842  13.170  0.5615 -0.4344  0.1513
  130CHL1   H3'15810   3.399   6.762  13.183 -0.8030  0.2244 -0.8816
  130CHL1    C415811   3.552   6.769  13.368  0.4466  0.3628 -0.7213
  130CHL1   H4A15812   3.496   6.673  13.357  1.6844 -0.5342  0.4184
  130CHL1   H4B15813   3.645   6.766  13.308  0.4050  1.9159 -0.8917
  130CHL1    C515814   3.570   6.805  13.512 -0.5669  0.4980 -0.4028
  130CHL1    C615815   3.692   6.821  13.551 -0.1270  0.0194 -0.4327
  130CHL1    H615816   3.782   6.808  13.489  0.0672  1.3809 -0.4773
  130CHL1    C715817   3.722   6.842  13.695 -0.2024  0.6894  0.3769
  130CHL1   H7A15818   3.800   6.768  13.722  0.3545  0.3597 -1.9158
  130CHL1   H7B15819   3.766   6.943  13.700 -0.8327  1.1941 -2.5503
  130CHL1    C815820   3.608   6.810  13.792  0.3719 -0.4973 -0.4756
  130CHL1    H815821   3.596   6.700  13.803  1.6034 -0.7118 -1.1372
  130CHL1   C1415822   3.631   6.865  13.928 -0.4258  0.5446 -0.0581
  130CHL1   H1415823   3.648   6.975  13.922  2.4023  0.3218  2.0795
  130CHL1   C1515824   3.758   6.826  13.999 -0.2495 -0.2890 -0.2566
  130CHL1  H15A15825   3.776   6.720  13.972 -2.1779 -0.2780 -1.8475
  130CHL1  H15B15826   3.841   6.879  13.946  0.3698  0.2926  1.2398
  130CHL1   C1615827   3.738   6.862  14.147  0.2126  0.9656  0.1561
  130CHL1  H16A15828   3.755   6.769  14.205 -1.6423 -0.4994 -1.5056
  130CHL1  H16B15829   3.813   6.942  14.167  1.6830 -0.0137 -1.1220
  130CHL1   C1715830   3.592   6.903  14.158 -0.1272  0.0750 -0.0061
  130CHL1   H1715831   3.591   7.014  14.147 -3.6692  0.1385 -0.2975
  130CHL1   C1315832   3.513   6.841  14.030 -0.4853 -0.4656 -0.3044
  130CHL1   C1815833   3.492   6.689  14.052 -0.0698 -0.2320  0.2728
  130CHL1  H18A15834   3.593   6.648  14.074  1.0734  2.1531 -0.1771
  130CHL1  H18B15835   3.425   6.668  14.138 -0.8445  1.2243  0.0680
  130CHL1  H18C15836   3.449   6.632  13.967 -1.6009 -1.9109  2.0847
  130CHL1   C1215837   3.391   6.911  13.980  0.4435 -0.0238  0.1759
  130CHL1  H12A15838   3.305   6.886  14.045  0.8149  1.2322  1.1976
  130CHL1  H12B15839   3.408   7.021  13.974  1.1453 -0.1370 -0.0181
  130CHL1   C1115840   3.359   6.872  13.835 -0.0739  0.3030 -0.5148
  130CHL1  H11A15841   3.319   6.771  13.854  0.2791  0.5866  1.9787
  130CHL1  H11B15842   3.268   6.920  13.792  0.1847  0.9494 -0.3573
  130CHL1    C915843   3.474   6.875  13.741 -0.7901  0.3885  0.3174
  130CHL1    H915844   3.494   6.983  13.726 -0.1647 -0.0199 -2.2096
  130CHL1   C1015845   3.440   6.820  13.604 -0.0117 -0.0196 -0.1295
  130CHL1   C1915846   3.356   6.689  13.614 -0.2909 -0.1674 -0.0771
  130CHL1  H19A15847   3.407   6.597  13.650  0.5563 -0.3762 -1.7289
  130CHL1  H19B15848   3.259   6.706  13.666  0.1103 -0.5622  0.8300
  130CHL1  H19C15849   3.328   6.652  13.513 -0.6980 -1.3204  0.4391
  130CHL1    C115850   3.359   6.930  13.526  0.3480  0.2668  0.3614
  130CHL1   H1A15851   3.263   6.931  13.581 -0.5830 -0.2028 -1.1957
  130CHL1   H1B15852   3.402   7.033  13.531 -0.7650  0.9900 -2.6427
  130CHL1    C215853   3.339   6.898  13.369 -0.1347 -0.7753 -0.8616
  130CHL1   H2A15854   3.292   6.992  13.332 -2.2918 -2.0059 -1.4274
  130CHL1   H2B15855   3.262   6.818  13.373 -1.4591  0.4243 -1.3453
  130CHL1   C2015856   3.526   6.874  14.295 -0.0392  0.7035  0.8649
  130CHL1   H2015857   3.494   6.768  14.301  1.5984  0.0745 -0.6146
  130CHL1   C2115858   3.394   6.952  14.301 -0.4709  0.5193  0.4835
  130CHL1  H21A15859   3.310   6.888  14.335  0.6069 -0.4064  1.4989
  130CHL1  H21B15860   3.376   7.014  14.210  1.1430  0.0939 -0.1603
  130CHL1  H21C15861   3.420   7.028  14.378 -0.4544  1.3516 -0.3186
  130CHL1   C2215862   3.620   6.896  14.416  0.5134  0.0054  0.4690
  130CHL1  H22A15863   3.722   6.853  14.414 -0.4241 -2.4072  0.8790
  130CHL1  H22B15864   3.629   7.005  14.436 -2.5459 -0.0167  2.6829
  130CHL1   C2315865   3.564   6.844  14.548 -0.2757 -0.1063  0.3261
  130CHL1  H23A15866   3.612   6.895  14.635  1.3081 -3.9717  1.9727
  130CHL1  H23B15867   3.454   6.860  14.556 -0.5650 -1.6065 -0.4322
  130CHL1   C2415868   3.585   6.700  14.574 -0.6445  0.2402 -0.2108
  130CHL1  H24A15869   3.504   6.650  14.518 -1.5629  0.0437  1.2391
  130CHL1  H24B15870   3.676   6.652  14.532 -0.9147  1.0516 -1.7932
  130CHL1   C2515871   3.580   6.663  14.723  0.2781 -0.1640 -0.0163
  130CHL1   H2515872   3.648   6.736  14.773 -1.4889  1.1274  0.6013
  130CHL1   C2615873   3.447   6.695  14.788 -0.7305  0.4794  0.1354
  130CHL1  H26A15874   3.462   6.682  14.897 -0.9821  0.4023  0.1612
  130CHL1  H26B15875   3.397   6.784  14.747  0.6386  0.2149 -2.3280
  130CHL1  H26C15876   3.379   6.613  14.756  1.0778 -1.2879  0.5924
  130CHL1   C2715877   3.635   6.520  14.741 -0.2017 -0.1160  0.6977
  130CHL1  H27A15878   3.737   6.506  14.702 -0.2249 -0.0688  0.6195
  130CHL1  H27B15879   3.634   6.492  14.849 -0.8405 -0.7057  0.5448
  130CHL1  H27C15880   3.562   6.455  14.688  0.9156  0.3125 -1.4487
  131CHL1    C315881   1.270   4.835  13.302 -0.1491  0.3831  0.4462
  131CHL1    H315882   1.356   4.902  13.323  0.3728 -0.4401  1.0308
  131CHL1    O315883   1.259   4.799  13.165 -0.0254 -0.2149 -0.7100
  131CHL1   H3'15884   1.276   4.883  13.122 -1.1403 -0.1282 -1.0033
  131CHL1    C415885   1.281   4.702  13.379  0.4907 -0.2463  0.5701
  131CHL1   H4A15886   1.200   4.630  13.357 -0.1180  0.6338 -0.1300
  131CHL1   H4B15887   1.374   4.652  13.344  1.5839  1.6415  0.6319
  131CHL1    C515888   1.254   4.721  13.524  0.1784 -0.0858  0.2045
  131CHL1    C615889   1.351   4.679  13.613  0.1350  0.4018 -0.0648
  131CHL1    H615890   1.432   4.620  13.566 -0.2427 -0.0682 -0.1358
  131CHL1    C715891   1.328   4.683  13.764 -0.5125 -0.1943 -0.1046
  131CHL1   H7A15892   1.370   4.591  13.809 -1.6134 -1.6587 -1.9327
  131CHL1   H7B15893   1.365   4.774  13.816 -2.1069 -0.1030  0.9292
  131CHL1    C815894   1.168   4.688  13.800  0.4737 -0.9549 -0.0495
  131CHL1    H815895   1.119   4.595  13.765 -1.5386  0.2418 -0.5702
  131CHL1   C1415896   1.144   4.701  13.954 -0.2324 -0.6172 -0.1030
  131CHL1   H1415897   1.193   4.799  13.971 -1.2430 -0.4638  2.1728
  131CHL1   C1515898   1.205   4.590  14.036  0.2398 -0.2949 -0.1439
  131CHL1  H15A15899   1.186   4.487  13.998 -0.2869 -0.1564 -0.2604
  131CHL1  H15B15900   1.308   4.612  14.071 -0.0805  0.2634  0.4836
  131CHL1   C1615901   1.118   4.608  14.163  0.0598  0.4274 -0.8416
  131CHL1  H16A15902   1.063   4.512  14.175 -1.2527  1.1583 -0.7319
  131CHL1  H16B15903   1.178   4.627  14.255 -0.4605  0.1980 -0.4454
  131CHL1   C1715904   1.022   4.725  14.143  0.3742 -1.0626 -0.4012
  131CHL1   H1715905   1.077   4.821  14.153 -2.7341  0.7987  0.0385
  131CHL1   C1315906   0.994   4.724  13.988  0.0360 -0.6205  0.3908
  131CHL1   C1815907   0.904   4.600  13.948  0.4669  0.2657  1.0319
  131CHL1  H18A15908   0.916   4.576  13.840 -0.0602 -1.3636  1.2964
  131CHL1  H18B15909   0.918   4.508  14.009 -1.9545 -0.4039  0.6835
  131CHL1  H18C15910   0.798   4.631  13.944  0.3920 -0.0544  0.3052
  131CHL1   C1215911   0.944   4.861  13.922 -0.1135  0.1556 -0.4021
  131CHL1  H12A15912   0.837   4.877  13.945 -1.4371 -3.0463 -3.3064
  131CHL1  H12B15913   1.013   4.941  13.956  1.6121 -1.7972  0.9486
  131CHL1   C1115914   0.960   4.849  13.772  0.5094 -0.2692 -0.4724
  131CHL1  H11A15915   0.874   4.796  13.724  1.5844 -0.7876 -1.9037
  131CHL1  H11B15916   0.941   4.948  13.727 -2.8732 -1.9354 -3.2351
  131CHL1    C915917   1.103   4.807  13.720 -0.6815  0.0556  0.1784
  131CHL1    H915918   1.165   4.892  13.755 -0.1970 -0.7217  1.2503
  131CHL1   C1015919   1.123   4.789  13.565  0.2102  0.5940  0.2919
  131CHL1   C1915920   0.996   4.702  13.517  1.3365  0.6360 -0.3518
  131CHL1  H19A15921   0.898   4.753  13.510  0.7913 -0.3857 -0.3595
  131CHL1  H19B15922   1.016   4.678  13.410  2.3002  4.2221 -1.1086
  131CHL1  H19C15923   0.987   4.611  13.579  0.1595  0.1078 -1.2540
  131CHL1    C115924   1.119   4.928  13.490  0.6512 -0.3044  0.2412
  131CHL1   H1A15925   1.029   4.988  13.512  0.6090 -0.3584  0.2148
  131CHL1   H1B15926   1.201   4.993  13.526  0.1902 -0.3638  1.4414
  131CHL1    C215927   1.147   4.919  13.337  0.7998 -0.1508 -0.0246
  131CHL1   H2A15928   1.147   5.021  13.292 -1.9199 -0.0539 -0.0127
  131CHL1   H2B15929   1.065   4.870  13.280  0.1620  0.7638  0.0702
  131CHL1   C2015930   0.915   4.731  14.256  0.5729  0.3517 -0.0893
  131CHL1   H2015931   0.881   4.628  14.280 -1.1180  1.3930  2.3412
  131CHL1   C2115932   0.786   4.800  14.216  0.1136  0.2778  0.0823
  131CHL1  H21A15933   0.736   4.750  14.130 -0.1262  0.2119  0.2596
  131CHL1  H21B15934   0.814   4.902  14.182  2.0445  0.0550  0.8843
  131CHL1  H21C15935   0.713   4.804  14.299  3.1378 -0.8367  3.0106
  131CHL1   C2215936   0.967   4.781  14.391  0.4765 -0.2231 -0.0298
  131CHL1  H22A15937   1.076   4.767  14.402  0.6342  0.1009 -1.1450
  131CHL1  H22B15938   0.949   4.890  14.392 -0.1167 -0.2517 -2.2403
  131CHL1   C2315939   0.900   4.704  14.513 -0.5068  0.3085 -0.6033
  131CHL1  H23A15940   0.791   4.693  14.496 -0.6334  2.7089 -1.7253
  131CHL1  H23B15941   0.951   4.605  14.510  1.1251  1.1392 -1.0427
  131CHL1   C2415942   0.922   4.770  14.651 -0.3325 -0.9065 -0.3453
  131CHL1  H24A15943   1.026   4.756  14.687  0.2535  0.2135 -1.5390
  131CHL1  H24B15944   0.906   4.879  14.638 -1.6159 -1.1196 -0.6968
  131CHL1   C2515945   0.832   4.734  14.764  0.2121  0.5218 -0.4244
  131CHL1   H2515946   0.725   4.751  14.739 -0.2511 -2.2528 -0.5572
  131CHL1   C2615947   0.846   4.580  14.808 -0.0385 -0.0874 -0.1287
  131CHL1  H26A15948   0.953   4.560  14.831  0.8884  1.1109 -2.9721
  131CHL1  H26B15949   0.784   4.556  14.897  0.8960 -2.4615 -0.0230
  131CHL1  H26C15950   0.830   4.507  14.726  1.2536 -0.5122 -0.0230
  131CHL1   C2715951   0.866   4.811  14.893 -0.2885  0.0420 -0.5171
  131CHL1  H27A15952   0.971   4.787  14.924  0.0450  1.2925 -0.6285
  131CHL1  H27B15953   0.872   4.920  14.873 -0.1525 -0.0578 -1.0322
  131CHL1  H27C15954   0.812   4.784  14.986 -1.4975  0.8778 -0.9600
  132CHL1    C315955   3.538   0.227  13.291  0.1045 -0.0067 -0.9216
  132CHL1    H315956   3.636   0.277  13.277 -0.8885  2.3964  0.0749
  132CHL1    O315957   3.496   0.175  13.170 -0.4839  0.3774  1.1019
  132CHL1   H3'15958   3.407   0.142  13.188 -0.4666 -0.0609  0.4456
  132CHL1    C415959   3.549   0.118  13.397  1.4273  0.0039  0.7379
  132CHL1   H4A15960   3.449   0.071  13.392  1.3403  0.3057 -0.7402
  132CHL1   H4B15961   3.626   0.045  13.365  1.1404  0.3283 -0.7499
  132CHL1    C515962   3.567   0.181  13.532  0.2739  0.3283  0.2712
  132CHL1    C615963   3.675   0.146  13.602 -0.0730 -0.3856  0.1809
  132CHL1    H615964   3.752   0.080  13.559  1.2840  0.8277  0.6760
  132CHL1    C715965   3.688   0.193  13.747  0.5055  0.4891  0.5259
  132CHL1   H7A15966   3.717   0.110  13.814  1.3392  1.3921  1.3190
  132CHL1   H7B15967   3.777   0.261  13.752  0.9370 -0.1353  1.7869
  132CHL1    C815968   3.575   0.276  13.804 -0.4769  0.9843 -0.1286
  132CHL1    H815969   3.507   0.194  13.835 -0.0018  0.1608 -1.2308
  132CHL1   C1415970   3.622   0.354  13.924 -0.2193  0.8919  0.5700
  132CHL1   H1415971   3.707   0.420  13.895 -1.2426  1.5901 -0.9543
  132CHL1   C1515972   3.678   0.263  14.041 -0.8359 -0.6551 -0.4021
  132CHL1  H15A15973   3.615   0.172  14.044 -0.4968 -0.8758  0.2458
  132CHL1  H15B15974   3.784   0.237  14.019 -1.3376 -2.1035 -1.2269
  132CHL1   C1615975   3.659   0.347  14.171 -0.0913  0.1080  0.4226
  132CHL1  H16A15976   3.621   0.285  14.255  2.2592 -1.2984  0.5482
  132CHL1  H16B15977   3.761   0.384  14.196  0.8099 -1.9554  0.0136
  132CHL1   C1715978   3.574   0.470  14.121 -0.2051 -0.7642  0.0045
  132CHL1   H1715979   3.645   0.552  14.099 -0.0877 -1.3528 -1.9537
  132CHL1   C1315980   3.504   0.431  13.991 -0.0234 -0.2435  0.7310
  132CHL1   C1815981   3.372   0.345  14.022  0.4700  0.0381  0.0373
  132CHL1  H18A15982   3.390   0.268  14.100 -3.5053 -0.9386  0.1860
  132CHL1  H18B15983   3.296   0.416  14.060 -0.7451 -2.0648  1.7705
  132CHL1  H18C15984   3.327   0.298  13.933  0.5482  0.6129 -0.3137
  132CHL1   C1215985   3.470   0.544  13.888  0.2608  0.5585  0.5322
  132CHL1  H12A15986   3.391   0.614  13.922 -1.3230 -2.0707  2.6000
  132CHL1  H12B15987   3.560   0.599  13.851  1.6365 -2.2165 -0.5242
  132CHL1   C1115988   3.422   0.477  13.752  0.2102 -0.1143 -0.2813
  132CHL1  H11A15989   3.327   0.427  13.782 -1.3172  2.0447 -1.2267
  132CHL1  H11B15990   3.396   0.557  13.679 -1.0076 -0.2547 -0.0370
  132CHL1    C915991   3.515   0.365  13.699  0.5922 -0.2066 -0.3973
  132CHL1    H915992   3.604   0.418  13.659  0.5519  1.0220  1.0246
  132CHL1   C1015993   3.464   0.288  13.575  0.3895  0.5815 -0.0710
  132CHL1   C1915994   3.326   0.228  13.616 -0.4825  0.4739 -0.0203
  132CHL1  H19A15995   3.253   0.307  13.643  0.4809  0.8861  1.4672
  132CHL1  H19B15996   3.275   0.172  13.534  0.4087  0.9415 -0.9209
  132CHL1  H19C15997   3.332   0.151  13.696 -1.8024  0.4866  0.1227
  132CHL1    C115998   3.457   0.391  13.459 -0.3756 -1.5231  0.3281
  132CHL1   H1A15999   3.377   0.464  13.482  2.2256  1.3885  0.6974
  132CHL1   H1B16000   3.551   0.449  13.468  0.4467 -2.9068  0.9408
  132CHL1    C216001   3.444   0.335  13.312 -0.0188 -0.4476  0.1048
  132CHL1   H2A16002   3.471   0.421  13.247  0.0811  1.0593  2.0101
  132CHL1   H2B16003   3.340   0.304  13.289 -0.4175  2.5333 -2.7498
  132CHL1   C2016004   3.490   0.530  14.242 -0.3892 -0.3631 -0.6602
  132CHL1   H2016005   3.406   0.460  14.264  0.0629 -0.4000  1.0954
  132CHL1   C2116006   3.434   0.663  14.194 -0.2077  0.2899  0.4201
  132CHL1  H21A16007   3.358   0.645  14.116 -0.9908 -0.8933  1.4078
  132CHL1  H21B16008   3.509   0.735  14.154 -2.4548  1.4221 -2.0587
  132CHL1  H21C16009   3.371   0.709  14.273 -0.9089 -0.4745  0.3125
  132CHL1   C2216010   3.571   0.541  14.373  0.2585 -0.3098 -0.3738
  132CHL1  H22A16011   3.492   0.559  14.449  0.3120  0.5705 -0.5235
  132CHL1  H22B16012   3.611   0.441  14.401 -1.2712 -0.6384  0.7761
  132CHL1   C2316013   3.679   0.649  14.378 -0.0791 -0.2814  0.4796
  132CHL1  H23A16014   3.735   0.645  14.282  1.5933  0.3107  1.3791
  132CHL1  H23B16015   3.646   0.754  14.391  1.4772  0.2333  0.5707
  132CHL1   C2416016   3.793   0.621  14.485 -0.5962  0.1064  0.3930
  132CHL1  H24A16017   3.825   0.516  14.464 -0.2010  0.4801 -1.0036
  132CHL1  H24B16018   3.880   0.688  14.467 -1.1619  0.3083 -1.9289
  132CHL1   C2516019   3.743   0.632  14.628  0.2184 -0.0276  0.1013
  132CHL1   H2516020   3.638   0.597  14.633  0.7071 -1.4852  0.7044
  132CHL1   C2616021   3.824   0.556  14.739 -0.8056  0.2407  0.1085
  132CHL1  H26A16022   3.859   0.458  14.699 -3.4987 -0.1184 -1.6903
  132CHL1  H26B16023   3.901   0.632  14.764  0.0096 -0.6212  0.2656
  132CHL1  H26C16024   3.761   0.528  14.826 -3.0924  0.0405 -1.5266
  132CHL1   C2716025   3.739   0.778  14.676  0.5173 -0.2062  0.5710
  132CHL1  H27A16026   3.824   0.846  14.657  1.1747 -0.9073  0.9785
  132CHL1  H27B16027   3.655   0.833  14.628  0.6760  1.6942  2.3314
  132CHL1  H27C16028   3.711   0.779  14.784 -0.6711 -2.1468  0.3380
  133CHL1    C316029   1.547   1.736  13.215 -0.4401  0.6936  0.0931
  133CHL1    H316030   1.558   1.625  13.220 -0.7665  0.6587  0.0756
  133CHL1    O316031   1.552   1.763  13.072 -0.2722 -0.3539  0.2579
  133CHL1   H3'16032   1.541   1.858  13.086 -0.4725 -0.4058  0.4515
  133CHL1    C416033   1.412   1.786  13.270 -0.3009 -0.2018 -0.0321
  133CHL1   H4A16034   1.394   1.894  13.248  1.8227  0.3201  0.5596
  133CHL1   H4B16035   1.330   1.737  13.215 -3.0554  1.7864  2.0225
  133CHL1    C516036   1.405   1.773  13.422  0.2565  0.0913  0.2135
  133CHL1    C616037   1.301   1.709  13.480 -0.0223 -0.2547 -0.1075
  133CHL1    H616038   1.216   1.677  13.418 -0.2928 -1.5893  0.8945
  133CHL1    C716039   1.281   1.693  13.627  0.0386 -0.2833 -0.4584
  133CHL1   H7A16040   1.178   1.731  13.646  0.7895  1.1972  0.9010
  133CHL1   H7B16041   1.296   1.587  13.658  0.4998  0.0589  0.5487
  133CHL1    C816042   1.381   1.769  13.712  0.6163 -0.4784 -1.0490
  133CHL1    H816043   1.345   1.874  13.705  0.2417 -0.6410 -1.6291
  133CHL1   C1416044   1.371   1.725  13.859 -0.0160  0.0401  0.6321
  133CHL1   H1416045   1.416   1.624  13.853 -0.1695  0.0266 -0.4364
  133CHL1   C1516046   1.228   1.719  13.923  0.7611  0.1454  0.8221
  133CHL1  H15A16047   1.156   1.797  13.889  1.5101 -0.5828 -2.9001
  133CHL1  H15B16048   1.177   1.623  13.899 -1.3652  1.3833  0.0730
  133CHL1   C1616049   1.257   1.745  14.075 -0.7130  0.8807  0.8229
  133CHL1  H16A16050   1.204   1.834  14.115 -0.6487  0.8639  0.9468
  133CHL1  H16B16051   1.220   1.659  14.134  0.3641  0.7389  1.3118
  133CHL1   C1716052   1.414   1.761  14.091  0.3525 -0.1233 -0.1719
  133CHL1   H1716053   1.452   1.657  14.102 -0.3989 -0.1775  2.6265
  133CHL1   C1316054   1.455   1.805  13.952 -0.2517 -0.5882  0.3954
  133CHL1   C1816055   1.406   1.956  13.941  0.4460  0.5377 -0.3308
  133CHL1  H18A16056   1.450   2.025  14.017 -0.4038  1.9786 -1.1162
  133CHL1  H18B16057   1.429   2.002  13.843  0.0123  0.7095 -0.3521
  133CHL1  H18C16058   1.296   1.964  13.947  0.2958 -0.8595 -0.7700
  133CHL1   C1216059   1.605   1.795  13.898 -0.2657  0.0999 -0.6241
  133CHL1  H12A16060   1.670   1.854  13.966  0.0316 -1.9816  1.0016
  133CHL1  H12B16061   1.633   1.689  13.916 -1.7886 -0.4938 -1.6248
  133CHL1   C1116062   1.621   1.843  13.757 -0.1030 -0.2746  0.0452
  133CHL1  H11A16063   1.601   1.952  13.750 -1.3761 -0.3503  1.7530
  133CHL1  H11B16064   1.725   1.838  13.718 -0.8253 -0.9251 -1.9074
  133CHL1    C916065   1.524   1.772  13.657 -0.5777 -0.2790 -0.1076
  133CHL1    H916066   1.559   1.668  13.646  1.5134  0.2798  0.8556
  133CHL1   C1016067   1.524   1.824  13.504  0.4686  0.4960 -0.3752
  133CHL1   C1916068   1.517   1.975  13.489  0.1185 -0.3269 -0.1671
  133CHL1  H19A16069   1.604   2.023  13.539 -0.3228  0.9191 -0.5858
  133CHL1  H19B16070   1.527   2.007  13.384 -0.3991 -0.4677 -0.2647
  133CHL1  H19C16071   1.423   2.013  13.533  1.9773  0.3337  3.6804
  133CHL1    C116072   1.655   1.776  13.435  0.2586  0.1931  0.2042
  133CHL1   H1A16073   1.733   1.836  13.487  0.3345 -0.2650  0.6333
  133CHL1   H1B16074   1.675   1.670  13.463  1.5519  0.3619 -0.0272
  133CHL1    C216075   1.667   1.798  13.282 -0.1392 -0.0041 -0.5787
  133CHL1   H2A16076   1.757   1.753  13.236  1.2352  1.8261  0.2105
  133CHL1   H2B16077   1.672   1.905  13.255  1.1992  0.2965  0.7369
  133CHL1   C2016078   1.455   1.833  14.222  0.9164  0.0171  0.3287
  133CHL1   H2016079   1.423   1.938  14.202  1.3628 -0.0199 -0.6314
  133CHL1   C2116080   1.609   1.823  14.240  0.4404 -0.3782 -0.0249
  133CHL1  H21A16081   1.640   1.718  14.218 -1.8227 -0.8976 -1.0203
  133CHL1  H21B16082   1.641   1.851  14.342  0.5073 -0.3613 -0.0501
  133CHL1  H21C16083   1.662   1.878  14.159 -3.2126  1.7588 -1.1810
  133CHL1   C2216084   1.383   1.765  14.348 -0.1170 -0.4053  1.2829
  133CHL1  H22A16085   1.285   1.719  14.322  0.3492 -1.0474  0.6296
  133CHL1  H22B16086   1.443   1.687  14.400  1.1295  0.1755  0.7532
  133CHL1   C2316087   1.337   1.868  14.454  0.3264  0.0816  0.2811
  133CHL1  H23A16088   1.432   1.902  14.500  0.1489 -1.2073  1.6922
  133CHL1  H23B16089   1.296   1.954  14.396  0.1212  0.1052  0.4576
  133CHL1   C2416090   1.249   1.808  14.571 -0.3532 -0.0230 -0.0768
  133CHL1  H24A16091   1.149   1.775  14.535 -1.2396  0.1139  2.1385
  133CHL1  H24B16092   1.309   1.719  14.602  1.8037  1.8840  1.5151
  133CHL1   C2516093   1.236   1.902  14.692  0.0622  0.7644 -0.2469
  133CHL1   H2516094   1.204   2.002  14.656  2.2648  1.2402 -1.0414
  133CHL1   C2616095   1.139   1.841  14.795  0.0055  0.2593  0.6097
  133CHL1  H26A16096   1.129   1.917  14.875  1.8823  0.9636  0.2213
  133CHL1  H26B16097   1.042   1.828  14.743  0.2746 -0.9737  0.3947
  133CHL1  H26C16098   1.161   1.748  14.852 -2.7910 -1.9816 -1.6191
  133CHL1   C2716099   1.373   1.923  14.762 -0.2755 -0.3887  0.4112
  133CHL1  H27A16100   1.410   1.823  14.793  2.4672 -0.0424 -1.4045
  133CHL1  H27B16101   1.445   1.964  14.689 -1.4079 -1.5273 -1.4046
  133CHL1  H27C16102   1.362   1.992  14.849 -1.9892  1.7027 -1.3361
  134CHL1    C316103   7.357   1.556  13.241  0.1158 -0.0708 -0.1242
  134CHL1    H316104   7.274   1.630  13.234 -0.3314 -0.3138  1.9303
  134CHL1    O316105   7.352   1.459  13.142 -0.0026 -0.4579 -0.2608
  134CHL1   H3'16106   7.429   1.403  13.157  0.7684  0.5446 -0.4355
  134CHL1    C416107   7.497   1.628  13.236 -0.1341 -0.1386  0.2729
  134CHL1   H4A16108   7.581   1.555  13.225 -0.4993 -0.9042  2.1689
  134CHL1   H4B16109   7.491   1.691  13.145 -2.5298 -2.3837 -1.2434
  134CHL1    C516110   7.524   1.719  13.352 -0.5969 -0.1137 -0.0319
  134CHL1    C616111   7.534   1.854  13.330  0.3413 -0.1385 -0.2024
  134CHL1    H616112   7.528   1.893  13.228 -2.9927  1.0390  0.3071
  134CHL1    C716113   7.557   1.949  13.440 -0.4418 -0.3937  0.0472
  134CHL1   H7A16114   7.632   2.027  13.413  1.5868 -1.0744  3.1823
  134CHL1   H7B16115   7.468   2.013  13.459  0.4141  0.9089 -0.2075
  134CHL1    C816116   7.600   1.885  13.573 -0.6417 -0.4047  0.8040
  134CHL1    H816117   7.702   1.842  13.564  0.2711  2.0517 -2.5254
  134CHL1   C1416118   7.595   1.995  13.683 -0.4941  0.0516 -0.1316
  134CHL1   H1416119   7.490   2.015  13.712 -0.9327 -2.7239  0.5145
  134CHL1   C1516120   7.681   2.125  13.664  0.1409  0.3077  0.7621
  134CHL1  H15A16121   7.771   2.087  13.612  1.6408  0.8998  2.8318
  134CHL1  H15B16122   7.621   2.192  13.598 -3.3372 -0.2732  3.0624
  134CHL1   C1616123   7.713   2.176  13.809  0.2105  0.6847  0.4578
  134CHL1  H16A16124   7.823   2.168  13.817  0.2466 -1.1213 -1.1949
  134CHL1  H16B16125   7.677   2.280  13.823 -0.5809  0.9904 -2.9699
  134CHL1   C1716126   7.646   2.071  13.909  0.1783 -0.5223 -0.0898
  134CHL1   H1716127   7.540   2.103  13.917  0.7375  1.0297  1.9800
  134CHL1   C1316128   7.643   1.938  13.821 -0.1950 -0.0083 -0.5655
  134CHL1   C1816129   7.786   1.874  13.815  0.2919 -0.8595  0.5303
  134CHL1  H18A16130   7.799   1.783  13.754  0.3211 -0.1648 -0.5358
  134CHL1  H18B16131   7.859   1.954  13.789 -0.5780 -0.6620 -1.5262
  134CHL1  H18C16132   7.814   1.840  13.917 -0.9231 -1.1088  0.7919
  134CHL1   C1216133   7.541   1.832  13.863  0.3576 -0.3776  0.0627
  134CHL1  H12A16134   7.575   1.792  13.961  1.5375  2.0884  0.7356
  134CHL1  H12B16135   7.445   1.887  13.874 -1.0388 -2.1705 -2.2911
  134CHL1   C1116136   7.528   1.717  13.755  0.2780 -0.2379 -0.3614
  134CHL1  H11A16137   7.623   1.658  13.755 -0.4314 -1.4227  0.2727
  134CHL1  H11B16138   7.449   1.645  13.785 -0.9217  0.8667 -0.7653
  134CHL1    C916139   7.506   1.763  13.605 -0.0135  0.3506  0.3583
  134CHL1    H916140   7.403   1.803  13.593 -0.2087 -0.2632 -0.1195
  134CHL1   C1016141   7.510   1.654  13.495 -0.3043  0.8500  0.2968
  134CHL1   C1916142   7.626   1.550  13.515  0.8437 -0.1875  0.7126
  134CHL1  H19A16143   7.609   1.498  13.612  0.8694  0.7746  1.2507
  134CHL1  H19B16144   7.625   1.490  13.422  0.5970  0.8397  0.0421
  134CHL1  H19C16145   7.728   1.593  13.512  0.5083  0.5950 -2.1620
  134CHL1    C116146   7.376   1.569  13.491 -0.4689 -0.2888 -0.0536
  134CHL1   H1A16147   7.376   1.506  13.583  1.3416 -0.3059 -0.0334
  134CHL1   H1B16148   7.299   1.649  13.496  0.9445  1.2903 -1.9939
  134CHL1    C216149   7.338   1.477  13.374  0.3586  0.7565  0.2246
  134CHL1   H2A16150   7.230   1.452  13.383  0.2579  1.3921  0.9892
  134CHL1   H2B16151   7.401   1.386  13.381  0.7861  1.0388  0.0817
  134CHL1   C2016152   7.713   2.067  14.045 -0.3248  0.4102  0.2938
  134CHL1   H2016153   7.822   2.056  14.029 -0.0567  0.9261  1.6226
  134CHL1   C2116154   7.665   1.953  14.131 -0.1001  0.7299  0.3376
  134CHL1  H21A16155   7.698   1.956  14.236 -2.5021 -2.0240  1.3105
  134CHL1  H21B16156   7.703   1.857  14.089 -0.0679 -0.0257  2.0314
  134CHL1  H21C16157   7.554   1.950  14.121 -0.0711  0.6351  0.0386
  134CHL1   C2216158   7.686   2.196  14.129 -0.5099  0.2586  0.4090
  134CHL1  H22A16159   7.684   2.288  14.068 -1.3290 -0.0309 -0.0235
  134CHL1  H22B16160   7.587   2.177  14.175  0.0748 -0.0982  1.5635
  134CHL1   C2316161   7.794   2.235  14.242  0.7830  0.6366  0.3550
  134CHL1  H23A16162   7.820   2.138  14.288 -0.4695 -0.5970 -1.4203
  134CHL1  H23B16163   7.887   2.275  14.196  0.3539 -1.0283 -2.1301
  134CHL1   C2416164   7.741   2.343  14.329 -1.1402  0.0282  0.2943
  134CHL1  H24A16165   7.743   2.444  14.283 -0.2634  0.8396  2.0133
  134CHL1  H24B16166   7.636   2.334  14.365 -0.6972  1.4363  2.0677
  134CHL1   C2516167   7.819   2.367  14.463  0.5545  0.4654 -0.3006
  134CHL1   H2516168   7.817   2.264  14.504  0.3108  0.4758 -0.2808
  134CHL1   C2616169   7.960   2.426  14.445  0.5304  0.2765  0.1032
  134CHL1  H26A16170   8.026   2.357  14.389  3.0680  1.8973  0.9385
  134CHL1  H26B16171   7.953   2.519  14.383 -0.3913 -0.9209 -1.6785
  134CHL1  H26C16172   8.023   2.448  14.533  0.3057 -0.1450  0.3718
  134CHL1   C2716173   7.741   2.468  14.562  0.0317 -0.1799 -0.3525
  134CHL1  H27A16174   7.806   2.454  14.651  0.8730 -0.2224 -0.9682
  134CHL1  H27B16175   7.734   2.571  14.521  0.4355 -0.4023 -0.9762
  134CHL1  H27C16176   7.640   2.424  14.581 -1.2969  1.8259 -2.1996
  135CHL1    C316177   7.287   2.408  13.208  0.6242  0.1442  0.4273
  135CHL1    H316178   7.299   2.518  13.197 -0.0392  0.0717 -1.3735
  135CHL1    O316179   7.268   2.344  13.084  0.3259 -0.2363 -0.4937
  135CHL1   H3'16180   7.242   2.252  13.096  0.2930  0.0221  1.9775
  135CHL1    C416181   7.412   2.354  13.281  0.0240  0.0258 -0.0148
  135CHL1   H4A16182   7.398   2.245  13.298  1.0072 -0.1831 -0.4927
  135CHL1   H4B16183   7.498   2.381  13.216  0.5615 -0.4813  0.4825
  135CHL1    C516184   7.431   2.424  13.416  0.4435 -0.4463  0.6106
  135CHL1    C616185   7.540   2.492  13.446  0.0738  0.1717 -0.2743
  135CHL1    H616186   7.627   2.498  13.379 -1.0369  2.9013 -1.6503
  135CHL1    C716187   7.563   2.546  13.586 -0.6464 -0.3731  0.3825
  135CHL1   H7A16188   7.666   2.526  13.622 -0.6560 -0.4600  0.3625
  135CHL1   H7B16189   7.548   2.655  13.575  0.7820 -0.3044 -1.6106
  135CHL1    C816190   7.463   2.503  13.696 -0.3069  0.1106  0.2639
  135CHL1    H816191   7.500   2.403  13.724  0.6028  0.8312  1.7717
  135CHL1   C1416192   7.481   2.585  13.822 -0.0603  0.8731 -0.0340
  135CHL1   H1416193   7.466   2.689  13.787 -3.7555  0.6420  0.4434
  135CHL1   C1516194   7.613   2.578  13.896  0.2474 -0.3580  0.2220
  135CHL1  H15A16195   7.659   2.477  13.904  3.7190  1.1341  0.7286
  135CHL1  H15B16196   7.684   2.641  13.839  0.1813 -0.4486  0.0388
  135CHL1   C1616197   7.580   2.623  14.036 -0.7724  0.4456  0.6834
  135CHL1  H16A16198   7.598   2.541  14.109  0.9443  0.6492  0.5294
  135CHL1  H16B16199   7.650   2.702  14.072 -0.1533  0.3018 -0.1616
  135CHL1   C1716200   7.429   2.639  14.047  0.3250 -0.0775  0.7693
  135CHL1   H1716201   7.421   2.742  14.006  0.0242 -0.9346 -1.5013
  135CHL1   C1316202   7.377   2.555  13.928  0.5787  0.0110  0.2027
  135CHL1   C1816203   7.383   2.404  13.974  0.0365 -0.5471  0.2235
  135CHL1  H18A16204   7.304   2.388  14.050 -1.2697 -3.5814 -1.6059
  135CHL1  H18B16205   7.358   2.327  13.898  0.9556  0.4738 -1.1870
  135CHL1  H18C16206   7.485   2.378  14.010  0.3623 -0.4005 -0.5721
  135CHL1   C1216207   7.247   2.589  13.865  0.3450  0.4795  0.2784
  135CHL1  H12A16208   7.161   2.583  13.934 -0.1171  0.0235 -0.3212
  135CHL1  H12B16209   7.250   2.693  13.825  0.5494  1.2738  2.2513
  135CHL1   C1116210   7.216   2.488  13.745  0.0940  0.1880 -0.3398
  135CHL1  H11A16211   7.203   2.380  13.769  0.4611  0.1084 -0.4924
  135CHL1  H11B16212   7.121   2.519  13.696 -0.7546 -0.8794  0.5549
  135CHL1    C916213   7.327   2.499  13.637  0.9221  0.5883 -0.1974
  135CHL1    H916214   7.320   2.601  13.593 -1.0102  0.8896  0.7338
  135CHL1   C1016215   7.315   2.408  13.513  0.4242 -0.0575 -0.2134
  135CHL1   C1916216   7.317   2.262  13.558  0.3830 -0.2512  0.3041
  135CHL1  H19A16217   7.249   2.254  13.646  0.0528  2.2521  0.3749
  135CHL1  H19B16218   7.294   2.184  13.483  0.4043  1.1176 -1.1762
  135CHL1  H19C16219   7.416   2.227  13.594  0.4028 -0.4456  0.0565
  135CHL1    C116220   7.185   2.451  13.438  0.2630  0.0507  0.4360
  135CHL1   H1A16221   7.093   2.416  13.491  0.1610  0.5210  0.5717
  135CHL1   H1B16222   7.177   2.561  13.431 -1.0017 -0.0930 -1.1017
  135CHL1    C216223   7.158   2.390  13.299 -0.3889 -0.1755  0.3091
  135CHL1   H2A16224   7.074   2.438  13.244 -1.0231 -1.2493  0.3178
  135CHL1   H2B16225   7.137   2.281  13.300 -1.0500 -0.0509  0.7535
  135CHL1   C2016226   7.375   2.635  14.189 -0.5113 -0.0622  0.5622
  135CHL1   H2016227   7.371   2.526  14.211  3.4969 -0.5373 -0.2826
  135CHL1   C2116228   7.232   2.686  14.188 -0.3064 -0.2106  0.4148
  135CHL1  H21A16229   7.173   2.599  14.155  0.2628 -0.9798  1.3720
  135CHL1  H21B16230   7.233   2.773  14.117  1.8611  1.1634  1.9947
  135CHL1  H21C16231   7.201   2.729  14.286 -4.2101  2.2567 -1.6284
  135CHL1   C2216232   7.464   2.715  14.289 -1.0325  0.8645 -0.1879
  135CHL1  H22A16233   7.564   2.668  14.292 -1.2600  0.3916  0.0543
  135CHL1  H22B16234   7.461   2.820  14.252 -0.9439  0.8372 -0.2716
  135CHL1   C2316235   7.420   2.711  14.431  0.3728  1.1296  0.0383
  135CHL1  H23A16236   7.314   2.729  14.459  0.1695  0.0893 -0.0389
  135CHL1  H23B16237   7.442   2.605  14.453  1.8945  1.3948 -0.1224
  135CHL1   C2416238   7.516   2.786  14.525  0.3640 -0.3357  0.1934
  135CHL1  H24A16239   7.620   2.757  14.495 -0.1916 -0.8527 -1.3730
  135CHL1  H24B16240   7.503   2.892  14.495 -1.2992 -0.4627  0.3894
  135CHL1   C2516241   7.485   2.762  14.673  0.0887  0.0801 -0.1308
  135CHL1   H2516242   7.472   2.653  14.688 -1.1803  0.0715 -1.1618
  135CHL1   C2616243   7.594   2.828  14.763 -0.5761 -0.4166 -0.1181
  135CHL1  H26A16244   7.608   2.938  14.752 -2.8119 -0.2188 -1.6573
  135CHL1  H26B16245   7.575   2.812  14.871 -0.2067 -0.4474 -0.0586
  135CHL1  H26C16246   7.693   2.787  14.737 -0.2405  1.2994 -1.7230
  135CHL1   C2716247   7.347   2.823  14.719  0.0998  0.4208 -0.2629
  135CHL1  H27A16248   7.263   2.775  14.665  1.1683 -0.8126 -0.8658
  135CHL1  H27B16249   7.343   2.800  14.828  0.0125 -0.4166 -0.4368
  135CHL1  H27C16250   7.336   2.932  14.700  1.5333  0.8226  1.0255
  136CHL1    C316251   5.668   2.269  13.198 -0.7425  0.8671 -0.4007
  136CHL1    H316252   5.605   2.356  13.226 -0.5404  1.0526 -0.5213
  136CHL1    O316253   5.666   2.258  13.062  0.6302  0.3273  0.1646
  136CHL1   H3'16254   5.679   2.345  13.024  0.5795  0.4296  0.3766
  136CHL1    C416255   5.810   2.292  13.245 -1.2881 -0.4126  1.0117
  136CHL1   H4A16256   5.876   2.210  13.211  1.4299  1.8158  0.6139
  136CHL1   H4B16257   5.860   2.375  13.190 -0.0980 -1.6060  0.2430
  136CHL1    C516258   5.820   2.305  13.398  0.3040 -0.1731  0.1460
  136CHL1    C616259   5.866   2.420  13.456  0.4393 -0.6268  0.1435
  136CHL1    H616260   5.905   2.506  13.399  1.9481 -0.0977  1.8812
  136CHL1    C716261   5.877   2.431  13.606 -0.4787 -0.2889  0.8418
  136CHL1   H7A16262   5.984   2.450  13.631 -0.3977  0.5280 -0.0490
  136CHL1   H7B16263   5.816   2.514  13.648 -0.4573  0.6749 -0.8906
  136CHL1    C816264   5.851   2.296  13.688  0.0221  0.4607  0.5360
  136CHL1    H816265   5.951   2.249  13.686  0.7339  1.9448 -1.3820
  136CHL1   C1416266   5.819   2.325  13.830  0.1556  0.1510 -0.1119
  136CHL1   H1416267   5.725   2.384  13.827  1.0629  2.0343  3.0055
  136CHL1   C1516268   5.913   2.428  13.904  0.1791 -0.7961  0.3582
  136CHL1  H15A16269   6.018   2.401  13.881  0.7033  0.8682  0.7025
  136CHL1  H15B16270   5.886   2.533  13.881 -1.3135 -0.9015  1.4766
  136CHL1   C1616271   5.874   2.400  14.049 -0.0203  0.6315 -0.2987
  136CHL1  H16A16272   5.959   2.368  14.114  1.6474 -0.7401 -2.9365
  136CHL1  H16B16273   5.826   2.492  14.089  0.0792 -0.7257  3.2551
  136CHL1   C1716274   5.771   2.280  14.054  0.2589  0.4260 -0.3099
  136CHL1   H1716275   5.669   2.324  14.050  0.1557  0.2415  0.2372
  136CHL1   C1316276   5.792   2.204  13.924 -0.1997  0.0140  0.4944
  136CHL1   C1816277   5.918   2.116  13.934 -0.5022  0.1928  0.1602
  136CHL1  H18A16278   5.923   2.030  14.005  0.8558  0.8239  0.8836
  136CHL1  H18B16279   5.948   2.080  13.833  1.2267 -0.4779  0.8744
  136CHL1  H18C16280   6.006   2.179  13.962  0.7168 -0.0673 -2.6757
  136CHL1   C1216281   5.676   2.126  13.862 -0.1014 -0.5262 -0.3251
  136CHL1  H12A16282   5.666   2.037  13.928  0.2556 -0.7505 -0.5695
  136CHL1  H12B16283   5.580   2.181  13.873  0.0310 -0.4647  0.5930
  136CHL1   C1116284   5.694   2.086  13.712 -0.1418 -0.1157 -0.3643
  136CHL1  H11A16285   5.779   2.015  13.704  1.6925  2.0779 -1.5267
  136CHL1  H11B16286   5.599   2.050  13.666 -0.6633  0.7945 -0.0479
  136CHL1    C916287   5.745   2.209  13.627  0.0563 -0.1160 -0.7150
  136CHL1    H916288   5.665   2.286  13.627  0.8437  0.7422  0.4740
  136CHL1   C1016289   5.769   2.178  13.474 -0.0754  0.3099 -0.4761
  136CHL1   C1916290   5.872   2.060  13.452  0.2393 -0.7783  0.3261
  136CHL1  H19A16291   5.847   2.008  13.356 -2.2335 -1.5864  1.3170
  136CHL1  H19B16292   5.977   2.090  13.434  0.0700 -0.3756 -0.0184
  136CHL1  H19C16293   5.868   1.985  13.534 -1.3491 -0.8461  0.2254
  136CHL1    C116294   5.630   2.133  13.412  0.0987 -0.9139 -0.4420
  136CHL1   H1A16295   5.600   2.037  13.459  0.7267 -0.6549  0.5173
  136CHL1   H1B16296   5.550   2.203  13.446  0.5536 -0.0289 -1.1443
  136CHL1    C216297   5.622   2.133  13.262  0.3961  0.3997  0.1441
  136CHL1   H2A16298   5.518   2.106  13.233  1.6951 -4.9600 -0.7807
  136CHL1   H2B16299   5.683   2.053  13.215 -1.6168 -1.5129  0.5930
  136CHL1   C2016300   5.781   2.202  14.186 -0.4441  0.1933 -0.0444
  136CHL1   H2016301   5.877   2.147  14.193  0.1366  1.4132  3.5405
  136CHL1   C2116302   5.664   2.103  14.188 -1.0819 -0.0875 -0.2127
  136CHL1  H21A16303   5.566   2.143  14.155 -2.6858  0.9716  4.9419
  136CHL1  H21B16304   5.661   2.049  14.285  0.1287  0.9462  0.4363
  136CHL1  H21C16305   5.687   2.014  14.126  0.0527  0.3918 -0.4951
  136CHL1   C2216306   5.777   2.292  14.306  0.2009 -1.1522 -0.1190
  136CHL1  H22A16307   5.806   2.240  14.399  1.3623  2.7058  1.8627
  136CHL1  H22B16308   5.842   2.382  14.302  0.2293 -1.1602  0.1727
  136CHL1   C2316309   5.635   2.354  14.339  0.0575 -0.2978 -0.0518
  136CHL1  H23A16310   5.573   2.397  14.257 -2.4016  1.0190  2.3035
  136CHL1  H23B16311   5.574   2.271  14.382  1.4183 -0.6645  1.2680
  136CHL1   C2416312   5.655   2.454  14.454  0.0662  0.2973  0.2099
  136CHL1  H24A16313   5.713   2.402  14.533  1.9419 -0.4367 -1.5514
  136CHL1  H24B16314   5.715   2.542  14.423 -0.5402  0.6281 -0.0343
  136CHL1   C2516315   5.519   2.527  14.494 -0.5036  0.0578  0.2319
  136CHL1   H2516316   5.461   2.537  14.399  2.7524 -2.5735 -2.2511
  136CHL1   C2616317   5.454   2.435  14.597 -0.0884 -0.1521 -0.0024
  136CHL1  H26A16318   5.402   2.357  14.537  0.4616 -0.0098 -0.6789
  136CHL1  H26B16319   5.537   2.378  14.646  0.3000 -1.9640 -2.5469
  136CHL1  H26C16320   5.390   2.499  14.661 -1.2678  0.5881 -1.8208
  136CHL1   C2716321   5.539   2.666  14.542  0.0449  0.0438  0.3832
  136CHL1  H27A16322   5.593   2.677  14.638  0.3893  0.6935  0.1244
  136CHL1  H27B16323   5.585   2.729  14.463 -1.9196  0.8228 -0.2146
  136CHL1  H27C16324   5.439   2.716  14.549 -0.8433 -1.3527 -1.5158
  137CHL1    C316325   1.106   1.296  13.317  0.2113  0.1698  0.7472
  137CHL1    H316326   1.143   1.399  13.299 -0.2770  0.0679 -0.9722
  137CHL1    O316327   1.041   1.249  13.197  0.0952  0.6104 -0.2499
  137CHL1   H3'16328   1.069   1.159  13.179 -3.2604 -0.7929  0.6819
  137CHL1    C416329   1.228   1.193  13.340  0.5309 -0.2720 -0.2284
  137CHL1   H4A16330   1.188   1.090  13.350  1.1486 -0.4510  0.4395
  137CHL1   H4B16331   1.296   1.208  13.253 -0.1876  4.3453 -0.2231
  137CHL1    C516332   1.296   1.213  13.474 -0.5813 -0.8109 -0.2685
  137CHL1    C616333   1.429   1.227  13.482 -0.3833  0.4865 -0.3406
  137CHL1    H616334   1.482   1.209  13.387 -1.5041  3.7130 -1.7055
  137CHL1    C716335   1.501   1.244  13.615  0.0992 -0.2443 -0.0777
  137CHL1   H7A16336   1.583   1.169  13.611 -1.4378 -1.9883 -0.3717
  137CHL1   H7B16337   1.537   1.349  13.614  0.6699 -0.4228  0.7068
  137CHL1    C816338   1.417   1.211  13.744  0.7435  0.2609  0.3146
  137CHL1    H816339   1.407   1.101  13.747  0.0673  0.3191  0.2230
  137CHL1   C1416340   1.491   1.255  13.868 -0.4030  0.4736 -0.2523
  137CHL1   H1416341   1.502   1.365  13.856  2.7407  0.1471 -1.4061
  137CHL1   C1516342   1.634   1.216  13.892  0.4225  0.0184  0.2883
  137CHL1  H15A16343   1.639   1.107  13.872 -0.8477 -0.0426  0.1997
  137CHL1  H15B16344   1.713   1.257  13.825  0.2793  0.3015  0.2893
  137CHL1   C1616345   1.663   1.263  14.039 -0.4905  0.4160  0.2940
  137CHL1  H16A16346   1.701   1.175  14.096  1.9600  0.0078 -1.7841
  137CHL1  H16B16347   1.741   1.341  14.054 -0.5623 -0.0654  4.0833
  137CHL1   C1716348   1.530   1.301  14.097  0.7194 -0.0720  0.7030
  137CHL1   H1716349   1.527   1.408  14.066  1.5450 -0.2095  0.1117
  137CHL1   C1316350   1.415   1.244  14.003 -0.5894 -0.2563 -0.5442
  137CHL1   C1816351   1.386   1.091  14.025 -0.1877 -1.1992  0.2550
  137CHL1  H18A16352   1.485   1.043  14.042 -0.6804 -1.8442  1.4179
  137CHL1  H18B16353   1.316   1.083  14.111 -1.4532  1.4966 -0.3957
  137CHL1  H18C16354   1.342   1.038  13.939  2.9570 -1.6986 -1.1858
  137CHL1   C1216355   1.285   1.323  13.985 -0.3299 -0.7666  0.4774
  137CHL1  H12A16356   1.224   1.341  14.076  0.5902 -0.5308  1.0550
  137CHL1  H12B16357   1.307   1.426  13.949  0.6514 -0.9176  0.6114
  137CHL1   C1116358   1.201   1.269  13.863  0.8091 -0.0736  0.3218
  137CHL1  H11A16359   1.163   1.167  13.880 -3.1232  1.1585 -0.0485
  137CHL1  H11B16360   1.111   1.334  13.865 -0.2463 -1.4969  1.9094
  137CHL1    C916361   1.274   1.277  13.730 -0.2653 -0.1890 -0.0345
  137CHL1    H916362   1.306   1.383  13.722 -0.3606 -0.2245 -0.9081
  137CHL1   C1016363   1.202   1.235  13.597  0.4155 -0.2757 -0.5622
  137CHL1   C1916364   1.147   1.098  13.628  0.1784 -0.2604 -0.5818
  137CHL1  H19A16365   1.106   1.044  13.540  0.1403  0.8235 -1.2488
  137CHL1  H19B16366   1.231   1.036  13.666  1.0595  0.7831 -0.7517
  137CHL1  H19C16367   1.068   1.118  13.703 -1.5219 -0.3869 -2.2586
  137CHL1    C116368   1.097   1.345  13.561 -0.1904 -0.0530 -0.5953
  137CHL1   H1A16369   1.018   1.359  13.637  0.1213  2.2408 -0.6411
  137CHL1   H1B16370   1.152   1.438  13.535 -0.6230  0.2859 -0.3000
  137CHL1    C216371   1.015   1.303  13.438 -0.0737  0.3502  0.4880
  137CHL1   H2A16372   0.935   1.381  13.432 -0.2178  0.2308  0.8399
  137CHL1   H2B16373   0.956   1.211  13.457 -0.1643 -0.0252 -1.3974
  137CHL1   C2016374   1.528   1.292  14.248 -0.1192  0.7703 -0.0346
  137CHL1   H2016375   1.551   1.187  14.275 -1.8883  0.0624 -1.0642
  137CHL1   C2116376   1.384   1.301  14.293  0.6345  0.0846 -0.5174
  137CHL1  H21A16377   1.346   1.403  14.274 -3.2181 -0.2966  3.4849
  137CHL1  H21B16378   1.368   1.291  14.403  0.9458  1.7581 -0.2902
  137CHL1  H21C16379   1.307   1.230  14.256 -2.2580  2.1076  1.2173
  137CHL1   C2216380   1.617   1.398  14.320  0.1548 -0.3469  0.1635
  137CHL1  H22A16381   1.722   1.373  14.294  0.6016  0.3606  1.2089
  137CHL1  H22B16382   1.591   1.497  14.279 -0.6641  0.6126  2.7564
  137CHL1   C2316383   1.605   1.404  14.475 -0.3044  0.9832 -0.7215
  137CHL1  H23A16384   1.501   1.424  14.507 -0.2910  3.2663 -1.8957
  137CHL1  H23B16385   1.633   1.298  14.498 -0.0276  1.1715 -0.1589
  137CHL1   C2416386   1.704   1.500  14.534 -0.0032 -0.8369  0.2796
  137CHL1  H24A16387   1.800   1.444  14.537 -0.0398 -0.9118  0.0470
  137CHL1  H24B16388   1.716   1.589  14.468 -1.1337 -0.2136  0.8852
  137CHL1   C2516389   1.674   1.551  14.677 -0.0129 -0.3108  0.2894
  137CHL1   H2516390   1.581   1.612  14.679 -0.8328 -1.5438  1.3660
  137CHL1   C2616391   1.646   1.428  14.767  0.1317 -0.4575  0.1856
  137CHL1  H26A16392   1.643   1.458  14.873 -2.2076 -0.8174  0.2822
  137CHL1  H26B16393   1.551   1.382  14.732  0.1302 -0.6530  0.4435
  137CHL1  H26C16394   1.731   1.358  14.754  0.0804 -0.3409 -0.9529
  137CHL1   C2716395   1.794   1.639  14.734 -0.0569  0.0029 -0.5353
  137CHL1  H27A16396   1.766   1.669  14.837 -0.3063 -3.3370  0.4685
  137CHL1  H27B16397   1.887   1.581  14.749 -1.0465 -0.8194  3.6532
  137CHL1  H27C16398   1.836   1.726  14.679  0.6601  0.7510  1.1068
  138CHL1    C316399   7.569   0.501  13.172  0.6296 -0.2624  0.0054
  138CHL1    H316400   7.613   0.603  13.182 -1.3686  0.6116  0.6396
  138CHL1    O316401   7.553   0.457  13.043  0.1255  0.8357 -0.2150
  138CHL1   H3'16402   7.467   0.490  13.015 -0.4084 -0.7204 -0.5139
  138CHL1    C416403   7.646   0.399  13.255  0.0639 -0.3943 -0.3337
  138CHL1   H4A16404   7.583   0.309  13.277  2.6493 -1.9292  1.2972
  138CHL1   H4B16405   7.740   0.369  13.205 -0.5552 -0.1911 -1.6607
  138CHL1    C516406   7.667   0.474  13.388 -0.6438 -0.1086  0.1789
  138CHL1    C616407   7.795   0.486  13.431  0.1923 -0.0015 -0.1159
  138CHL1    H616408   7.883   0.445  13.379  1.2066  1.8952 -0.0018
  138CHL1    C716409   7.823   0.546  13.570 -0.3801 -0.0637  0.4453
  138CHL1   H7A16410   7.911   0.493  13.612  0.2839 -0.4909 -1.3850
  138CHL1   H7B16411   7.856   0.652  13.564 -0.0710 -0.0993  1.4166
  138CHL1    C816412   7.700   0.538  13.661 -0.3135  0.4338 -0.3389
  138CHL1    H816413   7.685   0.430  13.685 -2.7045  0.8008  0.0836
  138CHL1   C1416414   7.726   0.610  13.794 -0.2930 -0.5965  0.0868
  138CHL1   H1416415   7.749   0.717  13.774  0.6692 -0.4872  1.6131
  138CHL1   C1516416   7.852   0.575  13.880  0.5153  0.4443 -0.4536
  138CHL1  H15A16417   7.859   0.464  13.879 -2.5518  0.1553 -1.6266
  138CHL1  H15B16418   7.940   0.627  13.837 -0.7051  2.7289 -0.3321
  138CHL1   C1616419   7.810   0.618  14.024  0.1286 -0.4198  0.0554
  138CHL1  H16A16420   7.791   0.535  14.095  2.9168 -1.0884  0.1499
  138CHL1  H16B16421   7.892   0.673  14.075 -0.7129  0.6510  0.2871
  138CHL1   C1716422   7.683   0.704  14.005 -0.2920  0.4695  0.2342
  138CHL1   H1716423   7.716   0.800  13.960 -1.1389  0.8375  0.3764
  138CHL1   C1316424   7.606   0.637  13.888  0.6360 -0.3432 -0.9726
  138CHL1   C1816425   7.558   0.496  13.935  0.2094  1.1348  0.5419
  138CHL1  H18A16426   7.495   0.513  14.024  0.8698  2.3085  0.8095
  138CHL1  H18B16427   7.496   0.460  13.850  0.4430  3.0612 -0.5035
  138CHL1  H18C16428   7.642   0.425  13.949 -0.2455 -0.1022 -2.1812
  138CHL1   C1216429   7.503   0.719  13.809  0.0737  0.1224 -0.7145
  138CHL1  H12A16430   7.415   0.743  13.873  0.9677  0.6883  0.3564
  138CHL1  H12B16431   7.540   0.817  13.774 -0.3214  0.1435 -1.0728
  138CHL1   C1116432   7.465   0.644  13.683  0.3903  0.1091 -0.0700
  138CHL1  H11A16433   7.395   0.567  13.720  0.0409  1.5121  2.4125
  138CHL1  H11B16434   7.393   0.709  13.628 -2.2904 -2.5352  0.0851
  138CHL1    C916435   7.577   0.599  13.586 -0.3148  0.7103  0.0878
  138CHL1    H916436   7.620   0.694  13.547 -1.0980  0.8894 -0.3726
  138CHL1   C1016437   7.540   0.521  13.460  0.0291  0.1787  0.8474
  138CHL1   C1916438   7.465   0.396  13.503  0.0278  0.3138 -0.9439
  138CHL1  H19A16439   7.410   0.340  13.424  0.2767 -2.9376  1.0171
  138CHL1  H19B16440   7.530   0.328  13.561  0.2564  0.5773 -0.8903
  138CHL1  H19C16441   7.382   0.427  13.570  1.2814  2.0419 -0.1364
  138CHL1    C116442   7.447   0.595  13.365 -0.2226  0.2816  0.5581
  138CHL1   H1A16443   7.345   0.608  13.407 -0.1740  0.3848  0.6437
  138CHL1   H1B16444   7.491   0.696  13.349  0.4541 -0.1127 -0.1518
  138CHL1    C216445   7.437   0.529  13.225  0.5130  0.3403  0.8444
  138CHL1   H2A16446   7.380   0.595  13.156  1.2694 -1.4861 -1.6732
  138CHL1   H2B16447   7.373   0.438  13.223  0.7437  0.0977  2.7515
  138CHL1   C2016448   7.618   0.738  14.142  0.2894 -0.3959 -0.3313
  138CHL1   H2016449   7.582   0.641  14.184 -2.5273  0.5593 -0.3123
  138CHL1   C2116450   7.504   0.832  14.123  0.4834  0.1019  0.3010
  138CHL1  H21A16451   7.473   0.865  14.224  1.1570  2.5362 -0.2276
  138CHL1  H21B16452   7.415   0.783  14.078  0.3830 -0.2770  0.8909
  138CHL1  H21C16453   7.535   0.926  14.072 -0.5230 -0.4027 -1.3250
  138CHL1   C2216454   7.714   0.804  14.245 -0.7874  0.1688  0.4439
  138CHL1  H22A16455   7.822   0.798  14.223 -0.3490 -1.2454  2.6838
  138CHL1  H22B16456   7.688   0.912  14.253  0.5107  0.5822 -0.5445
  138CHL1   C2316457   7.685   0.744  14.379  0.0397 -0.1896 -0.2731
  138CHL1  H23A16458   7.581   0.762  14.413  0.1374  1.3528 -0.6874
  138CHL1  H23B16459   7.713   0.637  14.369  1.4390  0.2869 -2.0749
  138CHL1   C2416460   7.775   0.802  14.487  0.6617 -0.2662 -0.0986
  138CHL1  H24A16461   7.878   0.768  14.460  0.4550  0.0803 -1.3662
  138CHL1  H24B16462   7.756   0.911  14.489 -0.7570 -0.5057  0.9342
  138CHL1   C2516463   7.751   0.758  14.636 -0.6702 -0.1692 -0.0706
  138CHL1   H2516464   7.850   0.770  14.685 -0.0427  1.7901 -1.6800
  138CHL1   C2616465   7.651   0.848  14.705 -0.1631 -0.5633 -0.6742
  138CHL1  H26A16466   7.553   0.839  14.653  0.2334  1.1010 -1.7776
  138CHL1  H26B16467   7.631   0.816  14.810  0.5404 -0.8138 -0.6145
  138CHL1  H26C16468   7.676   0.955  14.700 -1.6220 -0.2215 -1.3917
  138CHL1   C2716469   7.699   0.620  14.639 -0.0479 -0.2141 -0.5013
  138CHL1  H27A16470   7.597   0.610  14.597  0.2618  1.0662 -1.6411
  138CHL1  H27B16471   7.768   0.557  14.579  1.9944  0.5482  0.9020
  138CHL1  H27C16472   7.698   0.594  14.747  1.0998 -1.7415 -0.8285
  139CHL1    C316473   7.474   6.287  13.341 -0.1841  0.7166  0.4111
  139CHL1    H316474   7.380   6.259  13.392 -1.4474 -0.0991 -2.1766
  139CHL1    O316475   7.467   6.205  13.225  0.3113 -0.8283 -0.3413
  139CHL1   H3'16476   7.536   6.139  13.229 -0.4273 -1.5887  0.0534
  139CHL1    C416477   7.494   6.431  13.307  0.0966 -0.1300  0.1609
  139CHL1   H4A16478   7.591   6.439  13.253 -0.5029  0.8890 -0.8045
  139CHL1   H4B16479   7.415   6.472  13.240 -0.5494 -0.7903  0.5070
  139CHL1    C516480   7.501   6.516  13.435  0.0300 -0.5696  0.8775
  139CHL1    C616481   7.406   6.603  13.466 -0.3535  0.2371 -0.4896
  139CHL1    H616482   7.325   6.621  13.394 -0.8880 -0.0324  0.0337
  139CHL1    C716483   7.409   6.690  13.588 -0.3034  0.1448 -0.6435
  139CHL1   H7A16484   7.379   6.796  13.573  0.1267  0.3924  0.2131
  139CHL1   H7B16485   7.347   6.647  13.669 -1.0437  2.2438 -0.0184
  139CHL1    C816486   7.554   6.692  13.653 -0.2354 -0.0533 -0.1858
  139CHL1    H816487   7.613   6.755  13.583 -1.2081  0.7307 -0.3233
  139CHL1   C1416488   7.558   6.753  13.796  0.3618 -0.0732  0.0536
  139CHL1   H1416489   7.486   6.687  13.849  0.7881  0.2128  1.0198
  139CHL1   C1516490   7.504   6.893  13.819  0.2372 -0.5149 -0.7117
  139CHL1  H15A16491   7.546   6.959  13.740 -1.8524 -2.5544 -3.7650
  139CHL1  H15B16492   7.394   6.902  13.810  0.2330 -1.2244 -1.5733
  139CHL1   C1616493   7.551   6.936  13.961 -0.0766  0.3945 -0.3623
  139CHL1  H16A16494   7.612   7.029  13.954  0.1626  0.1393 -1.9447
  139CHL1  H16B16495   7.472   6.966  14.033  0.7879  1.5776  0.1315
  139CHL1   C1716496   7.643   6.815  14.011 -0.1963 -0.0358  0.3245
  139CHL1   H1716497   7.581   6.737  14.060 -0.1028  1.9030  3.8732
  139CHL1   C1316498   7.688   6.747  13.879  0.3019  0.4089 -0.3454
  139CHL1   C1816499   7.802   6.822  13.817 -0.4524  0.6299 -0.0140
  139CHL1  H18A16500   7.823   6.792  13.712  0.7290  4.9653 -1.2261
  139CHL1  H18B16501   7.796   6.933  13.811  1.3180  0.7742  0.2330
  139CHL1  H18C16502   7.894   6.814  13.879 -0.7634 -2.2421  0.1873
  139CHL1   C1216503   7.728   6.600  13.887  0.3248  0.1746 -0.4719
  139CHL1  H12A16504   7.827   6.593  13.938  0.5111  2.9494 -0.2875
  139CHL1  H12B16505   7.654   6.536  13.940  0.0258 -0.0228 -1.1283
  139CHL1   C1116506   7.743   6.538  13.749  0.1380  0.2370  0.6113
  139CHL1  H11A16507   7.834   6.571  13.695 -1.0070  1.4277 -0.6516
  139CHL1  H11B16508   7.760   6.428  13.754 -2.3248 -0.1477  2.7393
  139CHL1    C916509   7.612   6.543  13.665 -0.4458 -0.6115 -0.0740
  139CHL1    H916510   7.537   6.499  13.734 -2.1922  2.7994  0.4016
  139CHL1   C1016511   7.618   6.473  13.529  0.0155  0.0905  0.4299
  139CHL1   C1916512   7.757   6.507  13.457  0.2074  0.3408  0.2802
  139CHL1  H19A16513   7.837   6.442  13.499  0.5114  0.9872  0.7121
  139CHL1  H19B16514   7.758   6.481  13.349  2.8304  0.6127  0.1696
  139CHL1  H19C16515   7.771   6.617  13.467  0.3447  0.1985  1.9759
  139CHL1    C116516   7.600   6.323  13.558 -0.0890  0.8752  0.9116
  139CHL1   H1A16517   7.680   6.281  13.622 -1.1876 -0.1805  1.6536
  139CHL1   H1B16518   7.506   6.310  13.616 -0.3661 -1.1118  0.0976
  139CHL1    C216519   7.585   6.236  13.431 -0.0950 -0.3487 -1.0937
  139CHL1   H2A16520   7.576   6.131  13.466  2.6008  0.5593  3.0739
  139CHL1   H2B16521   7.688   6.234  13.387  0.7674 -0.7906  0.8495
  139CHL1   C2016522   7.753   6.842  14.119 -0.8200 -0.9337  0.7499
  139CHL1   H2016523   7.836   6.768  14.111 -0.5841 -1.0086  3.1278
  139CHL1   C2116524   7.686   6.842  14.258  0.0971  0.0273 -0.8576
  139CHL1  H21A16525   7.760   6.878  14.333  0.0036  0.1052 -0.8034
  139CHL1  H21B16526   7.676   6.733  14.278  0.8520 -0.1272 -1.2994
  139CHL1  H21C16527   7.594   6.904  14.258  2.0284  3.0724 -0.7491
  139CHL1   C2216528   7.827   6.987  14.110 -0.6593  0.0604  0.7310
  139CHL1  H22A16529   7.860   7.014  14.007 -0.8226  0.9389  0.8999
  139CHL1  H22B16530   7.753   7.062  14.145 -0.7412  0.6805 -0.7182
  139CHL1   C2316531   7.963   7.003  14.183  0.0873 -0.4956  0.5038
  139CHL1  H23A16532   7.950   7.017  14.293 -0.0175 -0.4595  0.4852
  139CHL1  H23B16533   8.015   6.908  14.159 -0.1533  0.0451 -2.5292
  139CHL1   C2416534   8.035   7.133  14.135  0.3072 -0.4271 -0.7237
  139CHL1  H24A16535   8.055   7.119  14.027 -0.6452 -0.7239 -0.8760
  139CHL1  H24B16536   7.956   7.211  14.145  1.6633  0.8597  0.4646
  139CHL1   C2516537   8.149   7.170  14.239 -0.0652  0.5606  0.2895
  139CHL1   H2516538   8.121   7.151  14.344  3.6760  2.0083  1.7268
  139CHL1   C2616539   8.265   7.073  14.207 -0.6876 -0.3941 -0.1236
  139CHL1  H26A16540   8.245   6.968  14.235  0.1313 -0.2511  1.1231
  139CHL1  H26B16541   8.287   7.084  14.099 -1.7872 -1.5928 -0.4896
  139CHL1  H26C16542   8.352   7.108  14.268 -0.2829 -1.5459 -0.0202
  139CHL1   C2716543   8.191   7.310  14.212  0.8888  0.0065 -0.0697
  139CHL1  H27A16544   8.210   7.332  14.105 -0.0811  0.1948 -0.2095
  139CHL1  H27B16545   8.120   7.385  14.253 -0.4459 -1.5007  0.4683
  139CHL1  H27C16546   8.284   7.333  14.269 -0.1194  0.5371  1.4308
  140CHL1    C316547   6.959   0.297  13.209  0.6565 -0.7121 -0.4212
  140CHL1    H316548   6.996   0.194  13.228  2.2470 -0.2904 -1.0980
  140CHL1    O316549   6.931   0.308  13.074 -0.4367 -0.0276 -0.0432
  140CHL1   H3'16550   7.008   0.277  13.026  0.2206  0.7179  0.4883
  140CHL1    C416551   6.830   0.320  13.293  0.2269  0.4365  0.2740
  140CHL1   H4A16552   6.781   0.415  13.264 -0.1572  0.0195 -0.4823
  140CHL1   H4B16553   6.757   0.239  13.270  1.5186 -0.8217  0.4989
  140CHL1    C516554   6.860   0.314  13.442 -0.2529  1.0823 -0.3045
  140CHL1    C616555   6.801   0.217  13.520  0.3188  0.7390  0.3545
  140CHL1    H616556   6.739   0.143  13.468 -1.2164  3.7879 -2.5503
  140CHL1    C716557   6.818   0.210  13.669 -0.8345  1.1368  0.3375
  140CHL1   H7A16558   6.731   0.176  13.730 -1.8580 -0.5934 -1.9201
  140CHL1   H7B16559   6.894   0.130  13.680 -2.1482 -0.3509 -0.7570
  140CHL1    C816560   6.886   0.340  13.729 -0.2279  0.2004 -0.0309
  140CHL1    H816561   6.806   0.417  13.719 -0.7624 -0.4674 -0.9880
  140CHL1   C1416562   6.928   0.327  13.874  0.0808  0.1774  0.5137
  140CHL1   H1416563   7.011   0.253  13.876 -0.7890 -0.8234  2.3882
  140CHL1   C1516564   6.829   0.260  13.976 -0.4331  0.4160 -0.6477
  140CHL1  H15A16565   6.730   0.308  13.959 -0.1806  0.6489 -1.4716
  140CHL1  H15B16566   6.820   0.151  13.956 -1.0966 -0.2001  2.4205
  140CHL1   C1616567   6.894   0.304  14.108  0.5302 -0.3397 -0.5591
  140CHL1  H16A16568   6.824   0.366  14.167  2.3880  0.8422  0.5004
  140CHL1  H16B16569   6.923   0.215  14.167  2.2304  1.5799  1.7166
  140CHL1   C1716570   7.019   0.392  14.085 -0.3829 -1.5559 -0.1843
  140CHL1   H1716571   7.111   0.330  14.087  1.3379  0.8600 -0.4390
  140CHL1   C1316572   7.001   0.443  13.938 -0.0402  0.0585 -0.3697
  140CHL1   C1816573   6.903   0.564  13.951  0.0076  0.2210 -0.0945
  140CHL1  H18A16574   6.874   0.599  13.850 -0.9636  1.0439  0.4474
  140CHL1  H18B16575   6.804   0.532  13.991 -0.5371  0.0791 -1.4943
  140CHL1  H18C16576   6.945   0.656  13.997 -0.6344  0.9928 -1.0308
  140CHL1   C1216577   7.128   0.486  13.860  0.1547 -0.1544 -0.6039
  140CHL1  H12A16578   7.165   0.587  13.888 -0.4169  0.0789 -0.6754
  140CHL1  H12B16579   7.211   0.412  13.861  0.3289  0.0418 -0.5679
  140CHL1   C1116580   7.096   0.498  13.709 -0.1453 -0.4246  1.0095
  140CHL1  H11A16581   7.049   0.598  13.700  2.8933  1.0171 -0.3806
  140CHL1  H11B16582   7.188   0.490  13.647 -1.8963 -3.3717 -1.4470
  140CHL1    C916583   7.003   0.388  13.647  0.0930 -0.1384 -0.5522
  140CHL1    H916584   7.063   0.295  13.647 -1.1439 -0.9484 -0.9836
  140CHL1   C1016585   6.960   0.409  13.496  0.3817 -0.0482 -0.6505
  140CHL1   C1916586   6.902   0.555  13.482 -0.0400  0.0115 -0.3488
  140CHL1  H19A16587   6.837   0.579  13.569  1.6344 -2.5010  1.7818
  140CHL1  H19B16588   6.986   0.627  13.488  0.9985 -1.2875  1.8181
  140CHL1  H19C16589   6.857   0.567  13.381 -1.5834 -1.2083  0.1479
  140CHL1    C116590   7.091   0.401  13.406  0.4323  0.4144 -0.2542
  140CHL1   H1A16591   7.161   0.482  13.437 -1.3920  1.9673 -0.0676
  140CHL1   H1B16592   7.123   0.301  13.443 -2.5185 -0.1520  0.9788
  140CHL1    C216593   7.067   0.398  13.251 -0.2293 -0.1293 -0.5548
  140CHL1   H2A16594   7.163   0.371  13.200  0.9485  1.0046  0.9701
  140CHL1   H2B16595   7.047   0.497  13.206 -0.8157 -0.3762 -0.8501
  140CHL1   C2016596   7.039   0.501  14.196  0.8394 -0.2345  0.0727
  140CHL1   H2016597   6.951   0.565  14.216  0.0783 -1.1017 -0.3934
  140CHL1   C2116598   7.156   0.601  14.170 -0.5892  0.1544  0.6769
  140CHL1  H21A16599   7.255   0.551  14.158  0.1467  1.7464 -0.2804
  140CHL1  H21B16600   7.180   0.659  14.262 -1.6559  1.0144  0.4315
  140CHL1  H21C16601   7.133   0.664  14.081  0.3447  1.1596  1.1235
  140CHL1   C2216602   7.039   0.432  14.338 -0.0089 -0.6435  0.0641
  140CHL1  H22A16603   7.051   0.515  14.410  2.5870 -2.3648  1.8160
  140CHL1  H22B16604   6.955   0.373  14.380  1.6469 -1.6807  2.0876
  140CHL1   C2316605   7.144   0.327  14.359 -0.4934 -0.1713 -0.0147
  140CHL1  H23A16606   7.125   0.231  14.306  1.5014 -0.2585 -0.6486
  140CHL1  H23B16607   7.230   0.366  14.300 -0.4323  0.7604  0.6706
  140CHL1   C2416608   7.173   0.302  14.506 -0.6201 -0.5521 -0.3114
  140CHL1  H24A16609   7.259   0.232  14.501  0.1393  0.2752  0.6235
  140CHL1  H24B16610   7.210   0.393  14.559 -2.4829  0.0697  0.0196
  140CHL1   C2516611   7.056   0.249  14.588  0.2345  0.1218  0.5901
  140CHL1   H2516612   6.962   0.307  14.586 -1.9484 -3.2182 -0.5924
  140CHL1   C2616613   7.095   0.226  14.737 -0.0609  0.4919 -0.1267
  140CHL1  H26A16614   7.170   0.148  14.762 -2.8955 -2.6986 -0.7645
  140CHL1  H26B16615   7.121   0.325  14.780  0.7870  1.7816 -3.3618
  140CHL1  H26C16616   7.003   0.181  14.782 -0.1276  0.7335 -0.0197
  140CHL1   C2716617   7.008   0.115  14.533 -0.4062  0.7723 -0.4404
  140CHL1  H27A16618   7.101   0.055  14.522 -0.8312  0.2645 -1.2926
  140CHL1  H27B16619   6.935   0.069  14.602  1.0090 -0.8859  0.0253
  140CHL1  H27C16620   6.951   0.125  14.438 -4.0481 -3.0166  1.0585
  141DOPC     N16621   4.212   2.718  17.125 -0.8079 -0.3351  0.1072
  141DOPC   C1216622   4.160   2.794  17.002 -0.3824  0.1632 -0.8349
  141DOPC  H12A16623   4.196   2.896  17.005 -0.0853  0.0650  1.7633
  141DOPC  H12B16624   4.054   2.811  17.007 -0.3895 -0.0321 -0.2495
  141DOPC   C1316625   4.165   2.769  17.258  0.5107  0.3751 -0.2490
  141DOPC  H13A16626   4.209   2.714  17.340 -1.8260 -1.2645 -0.0015
  141DOPC  H13B16627   4.193   2.872  17.277 -0.9615  0.3575  2.5353
  141DOPC  H13C16628   4.058   2.770  17.263  0.4487  0.5427 -1.4053
  141DOPC   C1416629   4.365   2.721  17.120  0.0832 -0.0457  0.0767
  141DOPC  H14A16630   4.398   2.695  17.021  0.8500 -2.7925  0.9464
  141DOPC  H14B16631   4.399   2.822  17.136 -0.9627  0.7292 -2.1958
  141DOPC  H14C16632   4.414   2.652  17.187 -2.6545 -0.5825  1.6736
  141DOPC   C1516633   4.173   2.571  17.125 -1.0010 -0.0472  0.1934
  141DOPC  H15A16634   4.224   2.521  17.207 -1.5789 -1.4939 -0.2931
  141DOPC  H15B16635   4.211   2.525  17.035 -0.1176  1.4721 -0.2389
  141DOPC  H15C16636   4.066   2.557  17.126 -0.8991 -0.8820  0.5556
  141DOPC   C1116637   4.195   2.728  16.869 -0.1084 -0.0636  0.9562
  141DOPC  H11A16638   4.157   2.623  16.863 -0.4074  0.1170 -0.6701
  141DOPC  H11B16639   4.146   2.784  16.788  0.2981 -0.6951  0.2635
  141DOPC     P16640   4.423   2.841  16.785  0.3308  0.1914  0.5437
  141DOPC   O1316641   4.564   2.799  16.800 -0.6486  0.7787  0.0875
  141DOPC   O1416642   4.389   2.961  16.859 -0.1197 -0.3056  0.5328
  141DOPC   O1216643   4.333   2.720  16.839 -0.2557 -0.4196  0.8135
  141DOPC   O1116644   4.367   2.853  16.641  0.2280 -0.1506  0.2643
  141DOPC    C116645   4.387   2.753  16.538 -0.4422  0.6590 -0.1572
  141DOPC    HA16646   4.294   2.710  16.496  0.4027  0.9212 -2.4362
  141DOPC    HB16647   4.441   2.662  16.574 -0.0546  1.3762  1.1241
  141DOPC    C216648   4.467   2.819  16.417 -0.3481  0.2951  0.1309
  141DOPC    HS16649   4.558   2.866  16.461 -0.2008 -1.0662  1.3568
  141DOPC   O2116650   4.381   2.919  16.347 -0.1061  0.0038  0.4855
  141DOPC   C2116651   4.442   2.999  16.267 -0.4440  0.0321  0.6930
  141DOPC   O2216652   4.565   3.013  16.258  0.1444  0.1906 -0.3009
  141DOPC   C2216653   4.345   3.072  16.183  0.1875 -0.2186  0.5690
  141DOPC   H2R16654   4.308   3.150  16.253  0.6625  0.0817  0.4823
  141DOPC   H2S16655   4.267   3.002  16.145  2.0334 -1.3105 -1.4630
  141DOPC    C316656   4.518   2.709  16.318 -0.4176  0.0255  0.5855
  141DOPC    HX16657   4.614   2.681  16.367 -0.1113 -0.4896 -0.2961
  141DOPC    HY16658   4.550   2.745  16.218 -3.1476 -0.6616 -0.6281
  141DOPC   O3116659   4.429   2.595  16.312  0.3810 -0.2441  0.2382
  141DOPC   C3116660   4.490   2.486  16.290  0.1931  0.1553  0.7161
  141DOPC   O3216661   4.607   2.473  16.263 -0.1998  0.4165 -0.5870
  141DOPC   C3216662   4.390   2.377  16.316  0.0667  0.0375 -0.1281
  141DOPC   H2X16663   4.365   2.408  16.420 -1.7714  3.4552 -1.4163
  141DOPC   H2Y16664   4.301   2.395  16.251  0.1057  1.9904  0.2780
  141DOPC   C2316665   4.422   3.139  16.065  0.4615  0.1825 -0.2425
  141DOPC   H3R16666   4.512   3.082  16.033 -0.3082 -0.3648 -1.5017
  141DOPC   H3S16667   4.462   3.231  16.113  0.4279 -0.3324  0.8045
  141DOPC   C2416668   4.333   3.176  15.945 -0.2977  0.1202 -0.1005
  141DOPC   H4R16669   4.286   3.088  15.897 -1.2896 -0.2562  1.4883
  141DOPC   H4S16670   4.388   3.231  15.866 -2.6389  0.4540 -1.5838
  141DOPC   C2516671   4.217   3.268  15.980  0.0580 -0.1040  0.1939
  141DOPC   H5R16672   4.158   3.218  16.060 -0.6249 -1.6676 -1.2296
  141DOPC   H5S16673   4.147   3.281  15.894  1.0297 -1.3169 -0.8154
  141DOPC   C2616674   4.247   3.411  16.033 -0.3338  0.0255 -0.0363
  141DOPC   H6R16675   4.307   3.397  16.125 -1.8412 -1.1226  0.8124
  141DOPC   H6S16676   4.155   3.466  16.062  0.1444  0.0314  1.5704
  141DOPC   C2716677   4.331   3.504  15.939  0.4156  0.2905  0.8288
  141DOPC   H7R16678   4.435   3.471  15.919 -0.5026 -0.8172 -2.7233
  141DOPC   H7S16679   4.357   3.591  16.003 -0.0820 -0.2265  1.7594
  141DOPC   C2816680   4.260   3.540  15.808 -0.2317  0.6210  0.3836
  141DOPC   H8R16681   4.167   3.584  15.850  0.3244  0.9145  1.3332
  141DOPC   H8S16682   4.225   3.445  15.762 -0.0636  0.2676  0.9683
  141DOPC   C2916683   4.318   3.633  15.705 -0.8129  0.1767 -0.3398
  141DOPC   H9R16684   4.428   3.630  15.700 -0.7274  2.6166 -0.9666
  141DOPC  C21016685   4.255   3.700  15.606  0.4400 -0.2861  0.3112
  141DOPC  H10R16686   4.312   3.745  15.523 -0.4281 -0.5638 -0.4638
  141DOPC  C21116687   4.110   3.698  15.585  0.2457 -0.1591 -0.0474
  141DOPC  H11R16688   4.059   3.796  15.598 -2.1002 -1.1714 -1.1066
  141DOPC  H11S16689   4.067   3.635  15.665  0.0790  0.5624  0.4359
  141DOPC  C21216690   4.061   3.643  15.437 -0.0357 -0.9834 -0.4756
  141DOPC  H12R16691   4.115   3.701  15.360  0.9671 -1.6580 -0.2976
  141DOPC  H12S16692   3.954   3.667  15.421  0.1900  0.7250  0.4086
  141DOPC  C21316693   4.083   3.495  15.403  0.2116 -0.2981 -0.4577
  141DOPC  H13R16694   4.048   3.429  15.485  2.3905 -2.6398 -1.2674
  141DOPC  H13S16695   4.192   3.476  15.387  0.2533  0.6369 -1.4304
  141DOPC  C21416696   3.995   3.448  15.284  0.3285 -0.2195  0.4513
  141DOPC  H14R16697   4.036   3.506  15.199 -0.5727 -2.2833 -1.5004
  141DOPC  H14S16698   3.887   3.468  15.302 -0.1582  0.0751 -2.3979
  141DOPC  C21516699   4.006   3.292  15.261  0.2982 -0.0639  0.2366
  141DOPC  H15R16700   4.010   3.230  15.354 -1.5833 -0.9082 -0.1851
  141DOPC  H15S16701   4.108   3.276  15.221 -0.0910 -1.4230 -0.2940
  141DOPC  C21616702   3.884   3.238  15.182  0.1801 -0.4160  0.3773
  141DOPC  H16R16703   3.887   3.284  15.081  0.4274 -1.4339 -0.0873
  141DOPC  H16S16704   3.787   3.274  15.224  1.1259 -0.4352  2.7383
  141DOPC  C21716705   3.884   3.082  15.155 -0.0891 -0.9992 -0.3582
  141DOPC  H17R16706   3.865   3.045  15.258  0.2725 -1.0451 -0.3061
  141DOPC  H17S16707   3.988   3.054  15.130  0.0885 -1.0275  0.3933
  141DOPC  C21816708   3.774   3.036  15.053 -0.4757  0.8350  0.2047
  141DOPC  H18R16709   3.791   3.102  14.966  0.6615  1.9708  1.2506
  141DOPC  H18S16710   3.676   3.066  15.094 -0.1939  0.5693  1.0887
  141DOPC  H18T16711   3.778   2.925  15.044 -2.0043  0.4772  2.8315
  141DOPC   C3316712   4.449   2.236  16.299  0.1074 -0.0134  0.0276
  141DOPC   H3X16713   4.379   2.153  16.324  0.1439 -1.1336 -3.1822
  141DOPC   H3Y16714   4.544   2.224  16.355  0.5001 -1.3020 -0.8712
  141DOPC   C3416715   4.468   2.202  16.151 -0.0115 -0.1299  0.4803
  141DOPC   H4X16716   4.500   2.097  16.131 -1.5143 -0.3091 -1.2879
  141DOPC   H4Y16717   4.553   2.264  16.114  1.8655 -1.9315  1.5348
  141DOPC   C3516718   4.338   2.207  16.073  0.5100  0.0977 -0.7815
  141DOPC   H5X16719   4.306   2.310  16.043 -0.9672 -0.2962 -0.6693
  141DOPC   H5Y16720   4.252   2.168  16.132  1.1499 -0.2838 -0.0853
  141DOPC   C3616721   4.347   2.113  15.954  0.6288 -0.2889  0.0493
  141DOPC   H6X16722   4.341   2.007  15.988 -0.2793  0.1373  1.2843
  141DOPC   H6Y16723   4.263   2.120  15.883  2.9054 -0.1784 -2.8180
  141DOPC   C3716724   4.461   2.149  15.858  0.3661  0.1740 -0.7634
  141DOPC   H7X16725   4.471   2.259  15.845 -1.4683  0.3031 -1.3779
  141DOPC   H7Y16726   4.555   2.115  15.906 -0.1945  0.4159  0.5551
  141DOPC   C3816727   4.456   2.070  15.728  0.0116 -0.4575  0.2098
  141DOPC   H8X16728   4.442   1.963  15.751  0.6075 -0.4438  0.6797
  141DOPC   H8Y16729   4.558   2.095  15.693 -0.0866 -1.2858 -0.7087
  141DOPC   C3916730   4.348   2.119  15.636  0.2635 -0.7304  0.3408
  141DOPC   H9X16731   4.251   2.075  15.663  0.6003 -1.4344  0.4197
  141DOPC  C31016732   4.362   2.189  15.523  0.0585  0.4477 -0.6672
  141DOPC  H10X16733   4.272   2.205  15.462 -1.1033  1.6426  1.2609
  141DOPC  C31116734   4.493   2.237  15.462 -0.5899  0.2881  0.0984
  141DOPC  H11X16735   4.577   2.222  15.534 -1.2081  1.4273  1.0828
  141DOPC  H11Y16736   4.499   2.344  15.436 -0.3422  0.2612  0.0417
  141DOPC  C31216737   4.530   2.158  15.338  0.2050 -0.4496 -0.1038
  141DOPC  H12X16738   4.539   2.049  15.355  0.6771 -0.1451  1.7434
  141DOPC  H12Y16739   4.628   2.195  15.302  0.2998 -0.5636  0.0393
  141DOPC  C31316740   4.438   2.176  15.219 -0.3461 -0.2425  0.4616
  141DOPC  H13X16741   4.457   2.100  15.140  1.7354 -0.7823  1.4156
  141DOPC  H13Y16742   4.329   2.181  15.239 -0.7801  2.8873 -1.8341
  141DOPC  C31416743   4.475   2.304  15.141  0.0877 -0.0979 -0.1759
  141DOPC  H14X16744   4.496   2.393  15.205  0.4974 -0.2137 -0.1515
  141DOPC  H14Y16745   4.564   2.282  15.078  0.7143  1.8518 -0.0449
  141DOPC  C31516746   4.352   2.343  15.057  0.2688  0.3581 -0.5049
  141DOPC  H15X16747   4.271   2.385  15.121  0.0301  1.5211 -1.5326
  141DOPC  H15Y16748   4.305   2.255  15.008 -1.6354 -0.4956  2.5887
  141DOPC  C31616749   4.385   2.449  14.953 -0.1883 -0.1406 -0.7716
  141DOPC  H16X16750   4.425   2.532  15.015  3.2326 -0.7143 -1.9881
  141DOPC  H16Y16751   4.472   2.401  14.904 -1.0942 -1.3160 -1.3021
  141DOPC  C31716752   4.267   2.467  14.863 -0.0912  1.2656  0.1750
  141DOPC  H17X16753   4.272   2.380  14.794 -0.0619  1.6131 -0.2688
  141DOPC  H17Y16754   4.174   2.459  14.922  0.5029 -2.0505  0.8349
  141DOPC  C31816755   4.283   2.586  14.771  0.6234 -0.0648  0.1528
  141DOPC  H18X16756   4.275   2.681  14.829  2.8858  0.5677 -0.4534
  141DOPC  H18Y16757   4.382   2.589  14.720  0.0597  2.9807 -0.9536
  141DOPC  H18Z16758   4.205   2.599  14.693  0.0618 -0.9060  0.5554
  142DOPC     N16759   5.204   3.731  17.037  0.2386  0.2602 -0.7195
  142DOPC   C1216760   5.173   3.595  16.984 -0.1112  1.0875 -0.1849
  142DOPC  H12A16761   5.120   3.539  17.060  0.1037  2.0761  0.7203
  142DOPC  H12B16762   5.272   3.552  16.981 -0.5682 -0.7824  4.1567
  142DOPC   C1316763   5.275   3.717  17.168  0.0326  0.5556  0.0957
  142DOPC  H13A16764   5.227   3.647  17.235  1.3463  0.1324  0.6401
  142DOPC  H13B16765   5.375   3.681  17.150  0.2280 -1.1766  3.7241
  142DOPC  H13C16766   5.287   3.814  17.216  2.6877  0.9223 -1.1263
  142DOPC   C1416767   5.082   3.812  17.072  0.1023  0.5204 -0.4304
  142DOPC  H14A16768   5.114   3.898  17.130  0.7054  1.4645 -2.1039
  142DOPC  H14B16769   5.020   3.851  16.993 -0.5830 -0.9884 -0.6551
  142DOPC  H14C16770   5.010   3.757  17.131 -0.3241  0.9491 -0.5372
  142DOPC   C1516771   5.286   3.809  16.939  0.4666 -0.3355  0.6592
  142DOPC  H15A16772   5.319   3.906  16.973  0.1180  0.6608 -1.6833
  142DOPC  H15B16773   5.215   3.826  16.860 -0.0939  2.2798  1.6146
  142DOPC  H15C16774   5.376   3.750  16.926 -0.5359 -2.2695  2.0594
  142DOPC   C1116775   5.111   3.575  16.842 -0.0622 -0.0190 -0.8100
  142DOPC  H11A16776   5.191   3.595  16.767  1.3648 -2.3377 -0.0007
  142DOPC  H11B16777   5.093   3.468  16.820 -0.0558 -0.0534 -0.6455
  142DOPC     P16778   4.856   3.609  16.884  0.2347 -0.2836 -0.0779
  142DOPC   O1316779   4.784   3.725  16.934 -0.3163 -0.4782 -0.4241
  142DOPC   O1416780   4.873   3.489  16.969 -0.0984 -0.2847  0.1333
  142DOPC   O1216781   4.998   3.664  16.824  0.1683 -0.0613 -0.6594
  142DOPC   O1116782   4.794   3.567  16.748 -0.0756  0.2931  0.2415
  142DOPC    C116783   4.857   3.497  16.637 -0.2865  0.1496  0.2336
  142DOPC    HA16784   4.782   3.428  16.592 -0.0979 -0.6166  1.0557
  142DOPC    HB16785   4.949   3.443  16.668  1.0013  3.0906  1.8941
  142DOPC    C216786   4.908   3.583  16.516  0.1436  0.2107  0.6382
  142DOPC    HS16787   4.988   3.648  16.555  0.1099  1.0488 -0.6192
  142DOPC   O2116788   4.797   3.652  16.469 -0.7947 -0.2655  0.6164
  142DOPC   C2116789   4.800   3.793  16.485  0.0541 -0.0181 -0.2320
  142DOPC   O2216790   4.886   3.858  16.544  0.0916 -0.5340 -0.6282
  142DOPC   C2216791   4.672   3.841  16.420 -0.2123  0.2054  0.4707
  142DOPC   H2R16792   4.672   3.950  16.400  1.7811 -0.0003 -1.0784
  142DOPC   H2S16793   4.598   3.829  16.502 -0.0056 -0.0465  0.6231
  142DOPC    C316794   4.957   3.508  16.395 -0.1561  0.0521  0.3812
  142DOPC    HX16795   4.871   3.446  16.360  0.6086  0.1235 -1.7600
  142DOPC    HY16796   5.033   3.432  16.422 -1.2941 -0.7780  1.3449
  142DOPC   O3116797   5.004   3.589  16.278  1.0372 -0.1688  0.7415
  142DOPC   C3116798   5.130   3.608  16.257 -0.7598  0.0550  0.4061
  142DOPC   O3216799   5.220   3.562  16.320 -0.6563  0.0112 -0.2445
  142DOPC   C3216800   5.146   3.684  16.130  0.3064  0.6001 -0.1301
  142DOPC   H2X16801   5.133   3.609  16.049  1.0510 -0.0303  0.3236
  142DOPC   H2Y16802   5.062   3.755  16.116 -0.1521 -0.1522 -1.2964
  142DOPC   C2316803   4.632   3.762  16.294 -1.2685 -0.3314 -0.6515
  142DOPC   H3R16804   4.534   3.804  16.264 -0.6459  0.8647 -1.0419
  142DOPC   H3S16805   4.614   3.653  16.312 -0.4095 -0.8494 -2.7019
  142DOPC   C2416806   4.725   3.780  16.179 -0.3114 -0.3474  0.3500
  142DOPC   H4R16807   4.831   3.772  16.213 -0.3381  3.0672  1.6122
  142DOPC   H4S16808   4.707   3.888  16.157  1.3089  0.7392  3.6146
  142DOPC   C2516809   4.681   3.696  16.059  0.1860  0.4207  0.0231
  142DOPC   H5R16810   4.583   3.733  16.021  0.5655 -1.3038 -2.9190
  142DOPC   H5S16811   4.674   3.593  16.102 -0.9680  1.3140  2.1358
  142DOPC   C2616812   4.784   3.702  15.945 -0.3579  1.2331  0.2656
  142DOPC   H6R16813   4.759   3.627  15.867  0.6734  0.6964  0.4359
  142DOPC   H6S16814   4.886   3.681  15.984 -1.0734 -1.3711  0.8946
  142DOPC   C2716815   4.778   3.841  15.871 -0.3642  0.3337  0.0422
  142DOPC   H7R16816   4.793   3.922  15.946 -2.9993 -0.3934  1.4963
  142DOPC   H7S16817   4.679   3.862  15.825  0.2563  1.5234 -0.8113
  142DOPC   C2816818   4.887   3.862  15.769 -0.5061  0.0855 -0.0578
  142DOPC   H8R16819   4.990   3.842  15.805 -1.4737 -1.0642  2.2453
  142DOPC   H8S16820   4.906   3.968  15.740  1.4964 -0.1134  0.4154
  142DOPC   C2916821   4.863   3.772  15.652  0.4488 -0.1821  0.6419
  142DOPC   H9R16822   4.910   3.672  15.657  2.3529  0.7083  1.9653
  142DOPC  C21016823   4.788   3.803  15.545  0.2030  0.5144  0.0435
  142DOPC  H10R16824   4.772   3.723  15.472  0.3744  1.0975 -0.6441
  142DOPC  C21116825   4.703   3.924  15.509 -0.6289 -0.2972 -0.3612
  142DOPC  H11R16826   4.760   3.995  15.444 -1.7691  1.1804  0.2012
  142DOPC  H11S16827   4.678   3.980  15.601  1.2989  0.3761 -0.1901
  142DOPC  C21216828   4.571   3.897  15.437  0.3822  0.6829  0.8616
  142DOPC  H12R16829   4.508   3.837  15.505 -1.3882 -0.5785 -1.7168
  142DOPC  H12S16830   4.585   3.841  15.341 -0.9044  0.8684  0.5549
  142DOPC  C21316831   4.487   4.022  15.404 -0.1999  0.7888 -0.3728
  142DOPC  H13R16832   4.490   4.086  15.494  4.6390  0.5668 -0.1537
  142DOPC  H13S16833   4.377   4.006  15.392 -0.2039 -0.0768  0.6913
  142DOPC  C21416834   4.552   4.100  15.292  0.4248 -0.2385 -0.2532
  142DOPC  H14R16835   4.538   4.050  15.193  1.0674 -2.9996  0.9322
  142DOPC  H14S16836   4.662   4.112  15.305  0.3665 -0.1898  0.2031
  142DOPC  C21516837   4.503   4.246  15.274 -0.1629  0.4223  0.1516
  142DOPC  H15R16838   4.553   4.294  15.187  0.6472  0.1222  0.4359
  142DOPC  H15S16839   4.528   4.303  15.366  2.8153  1.4743 -1.1479
  142DOPC  C21616840   4.363   4.254  15.221 -0.5572 -0.2377  0.4076
  142DOPC  H16R16841   4.308   4.339  15.267  0.3026 -0.3198  1.6282
  142DOPC  H16S16842   4.306   4.165  15.254  0.5811 -1.1661 -0.0477
  142DOPC  C21716843   4.356   4.255  15.074 -0.6112  0.4586  0.5625
  142DOPC  H17R16844   4.423   4.171  15.044 -2.0837 -0.1663 -1.1306
  142DOPC  H17S16845   4.395   4.350  15.030  1.2347 -0.9272 -1.0288
  142DOPC  C21816846   4.212   4.235  15.007 -0.6559  1.0232 -0.0763
  142DOPC  H18R16847   4.163   4.142  15.044 -1.3252  1.2135 -0.4748
  142DOPC  H18S16848   4.230   4.233  14.898  0.3793 -1.8049  0.0487
  142DOPC  H18T16849   4.133   4.306  15.039 -0.2648  0.8225  1.4232
  142DOPC   C3316850   5.291   3.745  16.109  0.2556  0.3111 -0.1272
  142DOPC   H3X16851   5.370   3.682  16.155  1.4378  0.0394 -2.3630
  142DOPC   H3Y16852   5.294   3.849  16.149  0.4680  1.1034 -2.0490
  142DOPC   C3416853   5.321   3.752  15.957  0.9166 -0.6408 -0.4343
  142DOPC   H4X16854   5.267   3.833  15.902  0.9913 -0.8472 -0.8202
  142DOPC   H4Y16855   5.296   3.654  15.911 -6.1238  1.0207 -1.3511
  142DOPC   C3516856   5.472   3.767  15.917 -0.1834  0.1722 -0.4556
  142DOPC   H5X16857   5.477   3.773  15.807  0.2508 -0.7340 -0.4890
  142DOPC   H5Y16858   5.524   3.675  15.951 -2.3993 -1.3198 -0.8562
  142DOPC   C3616859   5.522   3.897  15.972 -0.5974  0.2576 -0.1555
  142DOPC   H6X16860   5.452   3.983  15.964 -0.0685  0.5365 -3.0820
  142DOPC   H6Y16861   5.547   3.866  16.076  1.8488  1.1320 -0.4086
  142DOPC   C3716862   5.663   3.935  15.900  0.2047 -0.0769  0.3587
  142DOPC   H7X16863   5.740   3.927  15.979  1.3755 -0.7135 -0.8109
  142DOPC   H7Y16864   5.697   3.847  15.841  1.3328 -1.9241  3.5041
  142DOPC   C3816865   5.652   4.061  15.812 -0.0110  0.3294 -0.5285
  142DOPC   H8X16866   5.615   4.151  15.866 -1.3858  0.1847 -1.1810
  142DOPC   H8Y16867   5.566   4.040  15.745 -1.3162 -0.5454  1.3285
  142DOPC   C3916868   5.773   4.077  15.721 -0.1414 -0.0454  0.6667
  142DOPC   H9X16869   5.855   4.114  15.784  0.0512  0.5416  0.0895
  142DOPC  C31016870   5.787   4.045  15.587 -0.3537 -0.2809 -0.1199
  142DOPC  H10X16871   5.884   4.062  15.538  0.2645 -1.4488  0.6497
  142DOPC  C31116872   5.688   3.996  15.491  0.5174  0.3380  0.3008
  142DOPC  H11X16873   5.679   4.071  15.410  0.5327  1.4761  1.3358
  142DOPC  H11Y16874   5.590   3.982  15.541  0.2336  1.9698  0.2446
  142DOPC  C31216875   5.729   3.868  15.409  0.0886 -0.0094 -0.9571
  142DOPC  H12X16876   5.699   3.779  15.468 -0.8435  2.2213  2.1655
  142DOPC  H12Y16877   5.840   3.865  15.405  0.1071  0.7393 -1.2430
  142DOPC  C31316878   5.682   3.881  15.266 -0.1686  0.4658  0.0383
  142DOPC  H13X16879   5.696   3.983  15.224  0.9339  0.4458  0.3429
  142DOPC  H13Y16880   5.728   3.805  15.199 -2.6777  0.1969 -1.5362
  142DOPC  C31416881   5.530   3.860  15.263  0.4323 -0.2416 -0.5563
  142DOPC  H14X16882   5.514   3.764  15.318 -0.6691  0.9156  1.2339
  142DOPC  H14Y16883   5.482   3.929  15.335 -2.3120 -1.2128 -1.3062
  142DOPC  C31516884   5.458   3.861  15.130  0.3301  0.2193  0.1443
  142DOPC  H15X16885   5.460   3.965  15.090  0.7041 -0.4593 -1.7008
  142DOPC  H15Y16886   5.350   3.844  15.153  0.8659 -3.4788  0.4635
  142DOPC  C31616887   5.509   3.762  15.025  0.0882  0.2490 -0.0721
  142DOPC  H16X16888   5.604   3.801  14.984 -0.9498  3.5954  0.4408
  142DOPC  H16Y16889   5.520   3.662  15.073 -1.7962  1.2009  2.5513
  142DOPC  C31716890   5.411   3.745  14.907 -0.4574 -0.7793 -0.1492
  142DOPC  H17X16891   5.444   3.661  14.842 -1.9577 -1.3162 -0.2487
  142DOPC  H17Y16892   5.308   3.723  14.942 -1.1242  0.6139 -1.1427
  142DOPC  C31816893   5.413   3.864  14.805 -0.2777  0.2916 -0.8258
  142DOPC  H18X16894   5.350   3.826  14.722 -0.4087  0.6717 -0.9001
  142DOPC  H18Y16895   5.370   3.960  14.841 -0.4090 -0.6754  1.8487
  142DOPC  H18Z16896   5.516   3.889  14.771  1.0161 -2.1084  0.9735
  143DOPC     N16897   1.989   2.523  16.499  0.5608  0.4700  0.2892
  143DOPC   C1216898   2.136   2.509  16.467 -0.0661 -0.3999  0.3458
  143DOPC  H12A16899   2.144   2.452  16.375  1.0353  1.3632 -0.7228
  143DOPC  H12B16900   2.179   2.446  16.543 -1.3149 -0.7535  0.7751
  143DOPC   C1316901   1.979   2.585  16.641  0.5100  0.1628  0.6639
  143DOPC  H13A16902   2.032   2.678  16.653  2.3926 -0.5631 -1.3733
  143DOPC  H13B16903   1.874   2.604  16.661  0.6589 -0.6372  2.3363
  143DOPC  H13C16904   2.005   2.511  16.715  1.2620  0.7045  0.9628
  143DOPC   C1416905   1.922   2.392  16.512 -0.1309 -0.4360 -0.1599
  143DOPC  H14A16906   1.828   2.409  16.563  0.6392  0.1456  1.1345
  143DOPC  H14B16907   1.888   2.364  16.414 -1.0500  2.0030 -0.5998
  143DOPC  H14C16908   1.988   2.316  16.552  0.7070 -0.5641 -1.7394
  143DOPC   C1516909   1.917   2.613  16.395  0.6492 -0.1577 -0.6148
  143DOPC  H15A16910   1.957   2.712  16.384  0.1016  0.1066 -0.2744
  143DOPC  H15B16911   1.818   2.641  16.426  0.6155 -0.9978  0.0794
  143DOPC  H15C16912   1.911   2.572  16.296 -3.2631 -2.3560  0.3394
  143DOPC   C1116913   2.224   2.637  16.461  0.1242 -0.1360  0.4181
  143DOPC  H11A16914   2.318   2.613  16.408 -1.8275  0.3060 -3.5924
  143DOPC  H11B16915   2.176   2.710  16.393  0.2857  0.9086  1.3831
  143DOPC     P16916   2.345   2.610  16.684 -0.1739 -0.3628  0.1339
  143DOPC   O1316917   2.299   2.476  16.718 -0.9683  0.3637  0.2926
  143DOPC   O1416918   2.344   2.688  16.812 -0.4653 -0.4294  0.5548
  143DOPC   O1216919   2.244   2.691  16.588  0.6778  0.0486  0.1864
  143DOPC   O1116920   2.489   2.612  16.631 -0.4657  0.2437 -0.1655
  143DOPC    C116921   2.569   2.728  16.638 -0.0739 -0.1377  0.2051
  143DOPC    HA16922   2.672   2.692  16.614 -0.5368 -0.0011 -2.2178
  143DOPC    HB16923   2.567   2.781  16.736  0.6016 -0.9711  0.6901
  143DOPC    C216924   2.533   2.840  16.527  0.6662 -0.2113 -0.5710
  143DOPC    HS16925   2.427   2.874  16.538  0.3190 -1.1192 -1.0311
  143DOPC   O2116926   2.549   2.775  16.400 -0.4049 -0.2587  0.0746
  143DOPC   C2116927   2.470   2.818  16.305 -0.3396  0.6896 -0.0909
  143DOPC   O2216928   2.382   2.899  16.313  0.0501 -0.1695 -0.4477
  143DOPC   C2216929   2.507   2.745  16.178 -0.5625 -0.5300 -0.5376
  143DOPC   H2R16930   2.499   2.635  16.197 -1.6581 -0.4380 -0.3807
  143DOPC   H2S16931   2.606   2.783  16.146  0.7131 -0.5114  2.9578
  143DOPC    C316932   2.620   2.971  16.540 -0.5644  0.0619  0.0433
  143DOPC    HX16933   2.726   2.943  16.521 -0.1502  0.7277  1.3051
  143DOPC    HY16934   2.605   3.008  16.643 -0.9917 -1.6808  0.6349
  143DOPC   O3116935   2.584   3.066  16.439 -0.2304  0.5060 -0.3529
  143DOPC   C3116936   2.497   3.167  16.469 -0.6862  0.9950 -0.4788
  143DOPC   O3216937   2.462   3.189  16.585  0.4495 -0.1563  0.0471
  143DOPC   C3216938   2.445   3.242  16.344 -0.5149  0.5806  0.4473
  143DOPC   H2X16939   2.335   3.228  16.349 -0.3066 -1.0498  4.0092
  143DOPC   H2Y16940   2.468   3.349  16.359 -0.3839  0.8166 -1.2316
  143DOPC   C2316941   2.412   2.769  16.060  0.1633  0.2849  0.0295
  143DOPC   H3R16942   2.369   2.871  16.071  1.4716  0.6489  2.3161
  143DOPC   H3S16943   2.323   2.705  16.079 -0.3537  0.4869 -1.5129
  143DOPC   C2416944   2.480   2.737  15.923 -1.0778 -0.0230  0.0269
  143DOPC   H4R16945   2.499   2.629  15.907  0.6249  0.5553 -2.4095
  143DOPC   H4S16946   2.578   2.785  15.906 -0.5363 -1.5334 -1.3431
  143DOPC   C2516947   2.389   2.788  15.808 -0.3143  0.8133 -0.1589
  143DOPC   H5R16948   2.439   2.780  15.709 -0.4267  0.8942 -0.2214
  143DOPC   H5S16949   2.362   2.893  15.829  1.0966  1.5820 -1.8914
  143DOPC   C2616950   2.257   2.709  15.804 -0.0806  0.7924 -0.4544
  143DOPC   H6R16951   2.192   2.740  15.889 -0.6380  0.2669 -0.6842
  143DOPC   H6S16952   2.286   2.602  15.804 -1.3742  0.4316  0.2239
  143DOPC   C2716953   2.177   2.748  15.676 -0.2641  1.0596 -0.0150
  143DOPC   H7R16954   2.238   2.760  15.584 -0.2562 -1.1539 -0.3585
  143DOPC   H7S16955   2.133   2.848  15.690 -0.8625  1.2455 -2.6362
  143DOPC   C2816956   2.057   2.660  15.657 -0.1006  0.1331  0.7244
  143DOPC   H8R16957   1.993   2.671  15.747 -3.0330  1.6497 -1.3580
  143DOPC   H8S16958   2.079   2.551  15.657 -0.9866 -0.0569  1.1563
  143DOPC   C2916959   1.985   2.707  15.529 -0.4600  0.5739 -0.4467
  143DOPC   H9R16960   2.021   2.665  15.433 -0.4137 -1.6686  0.4973
  143DOPC  C21016961   1.893   2.803  15.511  0.1458 -0.2703  0.4823
  143DOPC  H10R16962   1.855   2.824  15.410 -2.4851 -0.4751  1.3553
  143DOPC  C21116963   1.827   2.888  15.622  0.1489 -0.1965 -0.2642
  143DOPC  H11R16964   1.860   2.863  15.725  0.2512 -2.6873 -0.8397
  143DOPC  H11S16965   1.719   2.867  15.627  0.3337 -1.4188 -0.9951
  143DOPC  C21216966   1.847   3.042  15.623 -0.4072 -0.1798  0.4856
  143DOPC  H12R16967   1.840   3.078  15.518  0.6023  1.1031  0.8331
  143DOPC  H12S16968   1.953   3.051  15.656  0.6882 -3.2970 -1.6731
  143DOPC  C21316969   1.758   3.118  15.721  0.1869  0.4976 -0.1089
  143DOPC  H13R16970   1.742   3.065  15.817 -1.4880  2.1630  0.5935
  143DOPC  H13S16971   1.656   3.113  15.679 -0.3168  1.3407  0.9645
  143DOPC  C21416972   1.802   3.255  15.769 -0.4495  0.8593  0.5092
  143DOPC  H14R16973   1.723   3.315  15.820 -0.6905 -1.2534  2.8661
  143DOPC  H14S16974   1.833   3.313  15.680 -0.1091  0.8717  0.6355
  143DOPC  C21516975   1.929   3.247  15.856 -0.3275  0.1783  0.2351
  143DOPC  H15R16976   2.006   3.319  15.823  1.4746 -1.3473  0.8750
  143DOPC  H15S16977   1.977   3.147  15.847 -0.6695  0.0531 -0.2085
  143DOPC  C21616978   1.907   3.269  16.005 -0.1809 -0.9169 -0.0627
  143DOPC  H16R16979   1.908   3.376  16.035  2.1922 -1.3098  1.5038
  143DOPC  H16S16980   2.001   3.231  16.048  0.7040  2.7188  1.6166
  143DOPC  C21716981   1.783   3.202  16.062 -0.7719 -0.9012  0.1751
  143DOPC  H17R16982   1.796   3.093  16.046  3.0422 -0.4359 -1.1502
  143DOPC  H17S16983   1.699   3.244  16.002 -1.6743  0.2818  2.1842
  143DOPC  C21816984   1.751   3.229  16.209  0.6752  0.1088 -0.7919
  143DOPC  H18R16985   1.739   3.339  16.218 -0.8608 -0.0908 -0.1737
  143DOPC  H18S16986   1.842   3.203  16.268  0.2265 -1.6355 -0.8053
  143DOPC  H18T16987   1.661   3.175  16.244 -0.7430  0.9847 -2.8837
  143DOPC   C3316988   2.500   3.190  16.212  0.2987  0.2531  0.4698
  143DOPC   H3X16989   2.509   3.080  16.203 -2.6239 -0.1865  1.7703
  143DOPC   H3Y16990   2.604   3.226  16.195 -0.0788  2.2512  2.0473
  143DOPC   C3416991   2.416   3.251  16.091 -0.7518  0.9495 -1.0486
  143DOPC   H4X16992   2.433   3.361  16.091  3.1815  0.6596  2.9743
  143DOPC   H4Y16993   2.308   3.232  16.107 -0.3680 -0.3392  0.2810
  143DOPC   C3516994   2.459   3.184  15.963  0.4467 -0.2093 -0.0463
  143DOPC   H5X16995   2.436   3.076  15.969  1.6913 -0.4113  3.1034
  143DOPC   H5Y16996   2.570   3.195  15.961  0.3721  0.5813 -2.9621
  143DOPC   C3616997   2.394   3.234  15.830 -0.6363  0.2332  0.1220
  143DOPC   H6X16998   2.283   3.223  15.836 -0.6353 -1.4113 -1.8044
  143DOPC   H6Y16999   2.411   3.343  15.817  1.3167  0.1417  1.3841
  143DOPC   C3717000   2.453   3.149  15.710 -0.3092 -0.4241  0.5063
  143DOPC   H7X17001   2.561   3.175  15.705 -0.4013 -0.0398  0.4316
  143DOPC   H7Y17002   2.452   3.039  15.722 -0.4931 -0.2317  2.6025
  143DOPC   C3817003   2.385   3.190  15.578 -0.6026 -0.1675  0.1510
  143DOPC   H8X17004   2.431   3.146  15.487 -1.7749  0.9579 -1.0386
  143DOPC   H8Y17005   2.399   3.300  15.568 -0.9185  0.0028  1.4478
  143DOPC   C3917006   2.232   3.161  15.578 -0.2604 -0.3622 -0.0772
  143DOPC   H9X17007   2.196   3.057  15.589 -0.2303 -0.6974 -2.5825
  143DOPC  C31017008   2.141   3.252  15.549 -0.1356 -0.5647 -0.0143
  143DOPC  H10X17009   2.033   3.230  15.549 -0.0697 -0.9227  0.8417
  143DOPC  C31117010   2.169   3.392  15.503 -0.0074  0.3186 -0.0757
  143DOPC  H11X17011   2.275   3.402  15.473  0.9137 -2.3552  1.8913
  143DOPC  H11Y17012   2.151   3.467  15.583  0.9331  0.2958  0.1620
  143DOPC  C31217013   2.083   3.426  15.383 -0.0865  0.1321 -0.3950
  143DOPC  H12X17014   1.975   3.428  15.407 -0.5242  0.6211 -2.2266
  143DOPC  H12Y17015   2.096   3.352  15.302 -0.6454 -1.5025  0.9624
  143DOPC  C31317016   2.114   3.564  15.319  1.0027 -0.4233 -0.8971
  143DOPC  H13X17017   2.041   3.580  15.237  0.6001 -1.4267 -0.7557
  143DOPC  H13Y17018   2.119   3.641  15.399  0.9463 -1.8020  0.5012
  143DOPC  C31417019   2.259   3.580  15.274 -0.4593  0.4032  0.9745
  143DOPC  H14X17020   2.340   3.560  15.348 -0.7249  0.8501  1.3877
  143DOPC  H14Y17021   2.273   3.493  15.206  0.1626  0.9935  0.3392
  143DOPC  C31517022   2.276   3.710  15.193  1.1014  0.1761 -0.7632
  143DOPC  H15X17023   2.220   3.791  15.247 -3.7918 -2.9489 -0.5108
  143DOPC  H15Y17024   2.219   3.689  15.100 -0.8367 -0.6995  0.5433
  143DOPC  C31617025   2.414   3.752  15.162 -0.0652 -0.0471  0.0551
  143DOPC  H16X17026   2.446   3.819  15.245  1.4931 -1.9034  1.0153
  143DOPC  H16Y17027   2.487   3.669  15.170  1.3394  0.9022 -2.0305
  143DOPC  C31717028   2.421   3.828  15.034  0.1591 -0.2319  0.7883
  143DOPC  H17X17029   2.397   3.773  14.940  2.0779  1.4816 -0.8090
  143DOPC  H17Y17030   2.344   3.907  15.041 -1.0432 -1.2847 -0.0181
  143DOPC  C31817031   2.563   3.895  15.006 -1.0494 -1.2397 -0.1524
  143DOPC  H18X17032   2.643   3.818  15.018  0.6506  0.5116  0.1836
  143DOPC  H18Y17033   2.561   3.925  14.900 -1.1114 -0.5597  0.0362
  143DOPC  H18Z17034   2.574   3.981  15.075 -0.4882 -2.1854  0.9756
  144DOPC     N17035   3.796   1.774  17.124 -0.5988  0.2317 -0.2883
  144DOPC   C1217036   3.711   1.782  16.993  0.4232 -0.2262  0.4461
  144DOPC  H12A17037   3.683   1.682  16.962 -1.8408  1.1078 -2.2601
  144DOPC  H12B17038   3.775   1.820  16.915  2.5642 -2.9771  0.7237
  144DOPC   C1317039   3.864   1.910  17.144 -0.6688  0.2008  0.3349
  144DOPC  H13A17040   3.907   1.905  17.243 -1.5687  1.3058  0.7994
  144DOPC  H13B17041   3.941   1.916  17.069 -2.4639 -1.3332 -1.7908
  144DOPC  H13C17042   3.790   1.988  17.135 -0.4756  0.2257 -1.4523
  144DOPC   C1417043   3.894   1.664  17.107 -0.7731 -0.3917  0.3711
  144DOPC  H14A17044   3.959   1.666  17.020 -0.1312 -2.9352  0.6969
  144DOPC  H14B17045   3.963   1.666  17.190  1.8602  1.3438 -1.6745
  144DOPC  H14C17046   3.850   1.567  17.089 -1.7006  0.1135 -0.1470
  144DOPC   C1517047   3.703   1.750  17.242  0.0346  0.2272 -0.4711
  144DOPC  H15A17048   3.658   1.653  17.254 -0.0641  0.0854 -1.8278
  144DOPC  H15B17049   3.618   1.815  17.233 -0.7204 -0.6460  0.1786
  144DOPC  H15C17050   3.756   1.773  17.333  0.2384 -1.0170 -0.2563
  144DOPC   C1117051   3.591   1.873  16.992  0.2490  0.1786 -0.2318
  144DOPC  H11A17052   3.546   1.868  16.891 -0.5472 -0.2667  0.1405
  144DOPC  H11B17053   3.513   1.830  17.058 -1.9479  2.7203 -0.9694
  144DOPC     P17054   3.587   2.136  16.954 -0.2502 -0.4665  0.4719
  144DOPC   O1317055   3.658   2.249  17.022  0.1672 -0.4566  0.3302
  144DOPC   O1417056   3.441   2.138  16.952  0.3038  0.3243 -0.7363
  144DOPC   O1217057   3.623   2.006  17.033  0.2288 -0.2644  0.2773
  144DOPC   O1117058   3.654   2.111  16.812 -0.1166  0.2418 -0.3275
  144DOPC    C117059   3.786   2.063  16.800 -0.1476  0.1390  0.4362
  144DOPC    HA17060   3.788   1.955  16.828 -1.1859  0.1473  0.6014
  144DOPC    HB17061   3.859   2.115  16.865  0.4456  0.3127 -0.3567
  144DOPC    C217062   3.814   2.076  16.649 -0.5257 -0.6041 -0.2526
  144DOPC    HS17063   3.742   2.018  16.588  0.1958 -2.8920  0.9633
  144DOPC   O2117064   3.948   2.028  16.611  0.1560 -0.1075  0.5274
  144DOPC   C2117065   3.971   1.902  16.630 -0.3848  0.7588  0.3052
  144DOPC   O2217066   3.892   1.817  16.673  0.3756  0.0596 -0.1976
  144DOPC   C2217067   4.118   1.866  16.607 -0.6688  0.3896  0.7321
  144DOPC   H2R17068   4.157   1.818  16.699 -3.9903 -2.1052  1.0465
  144DOPC   H2S17069   4.166   1.965  16.592 -1.0952  0.4383 -0.4268
  144DOPC    C317070   3.801   2.225  16.607 -0.4040  0.2331  0.0486
  144DOPC    HX17071   3.888   2.287  16.638 -0.7182 -0.5839  2.8004
  144DOPC    HY17072   3.707   2.260  16.655 -1.2595  0.1916 -1.5146
  144DOPC   O3117073   3.790   2.235  16.464  0.1491  0.4989 -0.2230
  144DOPC   C3117074   3.902   2.251  16.396  0.0777  0.2770  0.6693
  144DOPC   O3217075   4.014   2.255  16.442  0.1441  0.2744 -0.1004
  144DOPC   C3217076   3.876   2.265  16.249  0.3440 -0.8277  0.5989
  144DOPC   H2X17077   3.774   2.306  16.236  0.7163 -0.1900 -0.4261
  144DOPC   H2Y17078   3.943   2.342  16.205 -0.1551 -1.5359 -1.5461
  144DOPC   C2317079   4.144   1.773  16.486  0.3091 -0.8791 -0.5522
  144DOPC   H3R17080   4.101   1.674  16.510  1.5445 -1.9059 -2.3341
  144DOPC   H3S17081   4.255   1.770  16.475  0.5152  2.3022 -0.4554
  144DOPC   C2417082   4.094   1.821  16.354 -0.1860  0.7736 -0.8633
  144DOPC   H4R17083   4.149   1.913  16.322  1.7893 -0.9765 -2.8544
  144DOPC   H4S17084   3.990   1.857  16.361  0.1725  1.5347  1.4399
  144DOPC   C2517085   4.125   1.717  16.240 -0.7084  0.1883 -0.4347
  144DOPC   H5R17086   4.046   1.639  16.249 -0.4775 -0.1733 -1.4250
  144DOPC   H5S17087   4.222   1.669  16.264 -1.8813 -1.3935  1.5214
  144DOPC   C2617088   4.126   1.768  16.096  0.4176  0.0434  0.1186
  144DOPC   H6R17089   4.188   1.859  16.088 -2.3005  1.9334 -1.4224
  144DOPC   H6S17090   4.020   1.798  16.082  0.6140  1.2308  1.0967
  144DOPC   C2717091   4.155   1.668  15.988  0.8765  0.4939 -0.3604
  144DOPC   H7R17092   4.075   1.591  15.991  0.4340  0.9540 -0.1278
  144DOPC   H7S17093   4.238   1.603  16.024 -1.4210 -2.0231  0.7876
  144DOPC   C2817094   4.178   1.729  15.849  0.1786  0.0519  0.1585
  144DOPC   H8R17095   4.213   1.647  15.783  0.7320  1.5608 -1.5308
  144DOPC   H8S17096   4.268   1.795  15.855 -0.2662  0.5687  1.2246
  144DOPC   C2917097   4.064   1.809  15.793 -0.4583  0.6398 -0.1825
  144DOPC   H9R17098   4.048   1.893  15.861  1.6875  1.7943 -1.0212
  144DOPC  C21017099   3.994   1.777  15.681  0.4441  0.2574 -0.3648
  144DOPC  H10R17100   3.899   1.828  15.660  0.4961  0.0360 -1.1821
  144DOPC  C21117101   4.018   1.655  15.601 -0.1350  0.3967 -0.2002
  144DOPC  H11R17102   3.918   1.616  15.573 -0.5887  0.0907  1.7467
  144DOPC  H11S17103   4.063   1.571  15.660 -1.5420  0.3527  0.8461
  144DOPC  C21217104   4.102   1.674  15.471 -0.0985  0.3799 -0.0469
  144DOPC  H12R17105   4.072   1.757  15.403  0.7850 -0.2361 -1.2391
  144DOPC  H12S17106   4.097   1.572  15.426  1.6169 -0.9008  2.4686
  144DOPC  C21317107   4.248   1.701  15.500 -0.1825 -0.4473  0.0395
  144DOPC  H13R17108   4.287   1.640  15.584  3.2117  0.4621 -0.6961
  144DOPC  H13S17109   4.259   1.807  15.532 -1.1147 -0.5835  0.8434
  144DOPC  C21417110   4.343   1.685  15.381  0.0406 -0.9438  0.1486
  144DOPC  H14R17111   4.429   1.753  15.397 -1.4350  0.9915  0.3023
  144DOPC  H14S17112   4.291   1.706  15.284 -0.9191  0.9723  1.0231
  144DOPC  C21517113   4.391   1.544  15.359  0.0646 -0.7345 -0.7524
  144DOPC  H15R17114   4.296   1.485  15.363 -1.1225  1.1471  0.3954
  144DOPC  H15S17115   4.453   1.516  15.447 -1.6294  0.7124  1.0079
  144DOPC  C21617116   4.463   1.529  15.227 -0.1165  0.0081  0.2177
  144DOPC  H16R17117   4.571   1.517  15.246 -0.2015  0.6904  1.1665
  144DOPC  H16S17118   4.455   1.623  15.169  1.8268  1.3220  1.9440
  144DOPC  C21717119   4.424   1.405  15.140 -0.0977 -0.1509 -0.1573
  144DOPC  H17R17120   4.313   1.407  15.137 -0.1617 -0.8156  0.9497
  144DOPC  H17S17121   4.440   1.308  15.193  1.6704 -0.1905 -0.7102
  144DOPC  C21817122   4.481   1.412  14.998 -0.3441  0.5546 -0.4238
  144DOPC  H18R17123   4.438   1.336  14.929 -0.0591  2.0918 -2.3634
  144DOPC  H18S17124   4.592   1.407  14.996 -0.1731  2.6329  0.9917
  144DOPC  H18T17125   4.458   1.513  14.958  0.0568  0.9639  0.3547
  144DOPC   C3317126   3.911   2.127  16.179  0.3259 -0.4341  0.6542
  144DOPC   H3X17127   3.855   2.054  16.241  1.5467 -0.2553  2.0056
  144DOPC   H3Y17128   4.019   2.110  16.198 -0.0783 -1.3462  2.2866
  144DOPC   C3417129   3.861   2.127  16.027  0.0705 -0.6874  0.2021
  144DOPC   H4X17130   3.753   2.148  16.014  0.1683  0.7835  1.4123
  144DOPC   H4Y17131   3.879   2.025  15.988 -0.3162 -0.3768 -0.8083
  144DOPC   C3517132   3.941   2.235  15.946 -0.0200 -0.9788 -0.5656
  144DOPC   H5X17133   4.037   2.253  16.000 -1.0703  0.3222  0.9530
  144DOPC   H5Y17134   3.882   2.328  15.956 -0.7902 -1.6205  1.5711
  144DOPC   C3617135   3.964   2.207  15.805  0.3502 -0.2017  0.4559
  144DOPC   H6X17136   4.056   2.145  15.793  0.8815  0.6265  0.1185
  144DOPC   H6Y17137   3.875   2.163  15.756  0.1005  0.9925 -0.2235
  144DOPC   C3717138   3.996   2.347  15.741 -0.2105  0.2162  0.1923
  144DOPC   H7X17139   3.926   2.429  15.767 -0.1354  0.5616 -0.6640
  144DOPC   H7Y17140   4.086   2.390  15.790  0.0470 -0.3439  0.2141
  144DOPC   C3817141   4.001   2.348  15.582  0.2128  0.0472 -0.0321
  144DOPC   H8X17142   4.071   2.267  15.554 -0.4768  0.1727 -2.3373
  144DOPC   H8Y17143   4.043   2.445  15.547 -0.9234 -0.0319 -1.7459
  144DOPC   C3917144   3.872   2.328  15.510  0.0661 -0.4349  0.1760
  144DOPC   H9X17145   3.790   2.391  15.549  1.3065  0.8059  0.8694
  144DOPC  C31017146   3.839   2.232  15.416 -0.1026 -0.3919  0.2793
  144DOPC  H10X17147   3.732   2.234  15.391 -0.2499 -0.6493  0.8729
  144DOPC  C31117148   3.935   2.126  15.371  0.7412 -0.3423  0.2238
  144DOPC  H11X17149   3.881   2.029  15.378  1.6885 -0.8109  1.3928
  144DOPC  H11Y17150   4.033   2.130  15.423  0.8270  2.6409  0.0562
  144DOPC  C31217151   3.976   2.134  15.223  0.4981  0.4423  0.1411
  144DOPC  H12X17152   4.014   2.233  15.193  1.1971  0.1063 -0.1072
  144DOPC  H12Y17153   3.891   2.109  15.155  1.8671  0.9134 -1.8366
  144DOPC  C31317154   4.085   2.024  15.184 -0.2464 -0.1064  0.5488
  144DOPC  H13X17155   4.181   2.034  15.238  0.0353  2.9329 -0.3534
  144DOPC  H13Y17156   4.028   1.936  15.221 -0.1394  0.8173  3.0611
  144DOPC  C31417157   4.112   2.013  15.036 -0.0510  0.9606  0.1020
  144DOPC  H14X17158   4.018   2.013  14.976 -0.7658  0.6148  1.1840
  144DOPC  H14Y17159   4.166   2.104  15.002  0.2635  1.1242  1.0186
  144DOPC  C31517160   4.222   1.905  15.013 -0.3862  0.1686  0.1072
  144DOPC  H15X17161   4.196   1.812  15.068 -0.7089  0.8012  1.0739
  144DOPC  H15Y17162   4.308   1.947  15.070  0.4299 -2.3107  0.8115
  144DOPC  C31617163   4.264   1.885  14.865 -0.6879  0.0835 -0.2997
  144DOPC  H16X17164   4.297   1.982  14.822  0.6372 -1.2257 -2.3879
  144DOPC  H16Y17165   4.354   1.821  14.872 -1.1777 -0.5128  0.6910
  144DOPC  C31717166   4.153   1.815  14.778 -0.3696  0.5240  0.2527
  144DOPC  H17X17167   4.108   1.722  14.818 -0.7479 -1.5101 -4.2505
  144DOPC  H17Y17168   4.068   1.887  14.771 -0.2239  0.5316 -2.3022
  144DOPC  C31817169   4.210   1.774  14.636 -0.3267 -0.3619 -0.7010
  144DOPC  H18X17170   4.126   1.730  14.578 -1.9172  1.9035 -0.2944
  144DOPC  H18Y17171   4.241   1.864  14.579 -1.8747  1.5431  1.2510
  144DOPC  H18Z17172   4.298   1.708  14.646  1.5693  2.1117  0.0396
  145DOPC     N17173   3.717   4.804  17.171  0.0221  0.7596  0.1203
  145DOPC   C1217174   3.637   4.843  17.043 -0.6778  0.2673 -0.0329
  145DOPC  H12A17175   3.599   4.942  17.060  3.6086  1.9119  1.3696
  145DOPC  H12B17176   3.559   4.769  17.030 -0.9563  0.3910  0.8533
  145DOPC   C1317177   3.762   4.664  17.168 -0.2900  0.4365 -0.0917
  145DOPC  H13A17178   3.811   4.648  17.263 -0.2119 -1.1987 -0.3628
  145DOPC  H13B17179   3.680   4.595  17.152  0.5125 -0.4739 -0.4438
  145DOPC  H13C17180   3.831   4.654  17.086  1.7212  1.8593  1.3265
  145DOPC   C1417181   3.625   4.812  17.288 -0.6777  0.2341 -0.5518
  145DOPC  H14A17182   3.566   4.903  17.280 -0.1804  0.8468  1.8791
  145DOPC  H14B17183   3.573   4.718  17.299  0.2796 -0.2301  0.1483
  145DOPC  H14C17184   3.683   4.817  17.379 -0.6844 -0.9324 -0.4706
  145DOPC   C1517185   3.840   4.892  17.199  0.5927  0.3056  0.3992
  145DOPC  H15A17186   3.799   4.991  17.216 -3.1675 -1.1396  0.5612
  145DOPC  H15B17187   3.916   4.893  17.122  0.5616 -1.9017  0.2711
  145DOPC  H15C17188   3.891   4.844  17.281  1.4203  0.5499  0.0464
  145DOPC   C1117189   3.724   4.854  16.917 -0.1984  0.0467  0.8724
  145DOPC  H11A17190   3.668   4.919  16.846  0.0867  2.7407  2.9799
  145DOPC  H11B17191   3.807   4.921  16.946 -0.5060  0.2799  1.2169
  145DOPC     P17192   3.712   4.645  16.766  0.4530  0.1657 -0.1327
  145DOPC   O1317193   3.587   4.586  16.819  0.3780  0.0753  0.0682
  145DOPC   O1417194   3.822   4.550  16.723  0.0601 -0.2047  0.4133
  145DOPC   O1217195   3.777   4.731  16.879 -0.2517  0.5816  0.4253
  145DOPC   O1117196   3.691   4.748  16.644  0.0873  0.2242 -0.2454
  145DOPC    C117197   3.558   4.786  16.607 -0.1845  0.1203  0.3676
  145DOPC    HA17198   3.556   4.895  16.628 -0.5326  0.7541 -2.5196
  145DOPC    HB17199   3.483   4.726  16.662  0.8700 -2.0575 -0.4252
  145DOPC    C217200   3.542   4.757  16.453  0.1145 -0.6006  0.5187
  145DOPC    HS17201   3.441   4.792  16.422 -0.4700 -1.7588  1.0615
  145DOPC   O2117202   3.546   4.615  16.430 -0.5180  0.1133  0.2171
  145DOPC   C2117203   3.433   4.547  16.452  0.2898 -0.3262 -0.4885
  145DOPC   O2217204   3.327   4.600  16.488  0.0731 -0.3898 -0.3725
  145DOPC   C2217205   3.452   4.402  16.421  0.2493  0.0100  0.1033
  145DOPC   H2R17206   3.368   4.344  16.465  0.1212 -0.9011 -1.2911
  145DOPC   H2S17207   3.546   4.370  16.471 -0.9907 -2.1918  1.1347
  145DOPC    C317208   3.662   4.823  16.378 -0.3776 -0.7534 -0.2093
  145DOPC    HX17209   3.757   4.778  16.412  0.5259  1.0453 -0.2334
  145DOPC    HY17210   3.681   4.930  16.404 -0.0422 -0.9638  0.4193
  145DOPC   O3117211   3.640   4.819  16.233  0.0842  0.1666 -0.6918
  145DOPC   C3117212   3.697   4.718  16.176  0.5782 -0.2088 -0.7076
  145DOPC   O3217213   3.770   4.639  16.226 -0.6665  0.5961 -0.0592
  145DOPC   C3217214   3.650   4.713  16.027 -0.4221  0.5305  0.1411
  145DOPC   H2X17215   3.551   4.664  16.035  0.2253 -1.0109 -0.7049
  145DOPC   H2Y17216   3.651   4.817  15.988  1.5889  0.3713 -0.3381
  145DOPC   C2317217   3.478   4.392  16.267 -0.2188 -0.7662 -0.7812
  145DOPC   H3R17218   3.515   4.288  16.254  1.1458 -0.3634 -0.3172
  145DOPC   H3S17219   3.555   4.464  16.231  0.2193 -0.5820  0.5031
  145DOPC   C2417220   3.359   4.410  16.181 -0.1192 -0.0439  0.4423
  145DOPC   H4R17221   3.323   4.515  16.195  0.8939  0.6086 -1.5694
  145DOPC   H4S17222   3.282   4.342  16.223 -0.0053  0.7346  1.9995
  145DOPC   C2517223   3.379   4.382  16.035 -0.1026  0.8562  0.0778
  145DOPC   H5R17224   3.421   4.280  16.020 -0.0681  0.8872 -0.0385
  145DOPC   H5S17225   3.459   4.450  15.999 -0.1565  2.4893  2.7935
  145DOPC   C2617226   3.251   4.402  15.956 -0.1219 -0.3064 -0.0001
  145DOPC   H6R17227   3.209   4.503  15.976 -1.1260 -0.6240 -0.4466
  145DOPC   H6S17228   3.172   4.339  16.004  0.4955  1.9475  4.4691
  145DOPC   C2717229   3.262   4.387  15.808 -0.2175 -0.6577  0.0759
  145DOPC   H7R17230   3.158   4.371  15.773  0.6994 -1.7906 -2.4043
  145DOPC   H7S17231   3.330   4.308  15.768  1.4676 -0.4394  2.2915
  145DOPC   C2817232   3.305   4.525  15.737  0.3408  0.2490  0.2433
  145DOPC   H8R17233   3.410   4.544  15.769 -0.0674  0.1840  1.6925
  145DOPC   H8S17234   3.238   4.605  15.775  1.0095  1.7069 -1.4762
  145DOPC   C2917235   3.313   4.527  15.588  1.0467  0.0653 -0.0832
  145DOPC   H9R17236   3.415   4.518  15.548 -0.1040  1.5500 -3.7373
  145DOPC  C21017237   3.213   4.570  15.507 -0.8418  0.2034 -0.0504
  145DOPC  H10R17238   3.228   4.571  15.398  0.4348  0.4761  0.1111
  145DOPC  C21117239   3.082   4.612  15.561  0.0676 -0.3414 -0.3349
  145DOPC  H11R17240   3.086   4.717  15.596 -0.7312 -0.2740 -0.4196
  145DOPC  H11S17241   3.055   4.546  15.647  1.6360 -0.4306  0.1208
  145DOPC  C21217242   2.974   4.603  15.451 -0.3047  0.1354 -0.1498
  145DOPC  H12R17243   3.021   4.631  15.354 -0.9956  0.4048 -0.4157
  145DOPC  H12S17244   2.894   4.680  15.460 -0.1990  0.2860 -0.5007
  145DOPC  C21317245   2.922   4.459  15.446  0.8129 -0.1689  0.2052
  145DOPC  H13R17246   2.852   4.442  15.531 -1.3732 -0.9703 -1.6672
  145DOPC  H13S17247   3.003   4.385  15.462  0.9138 -0.3025 -0.8798
  145DOPC  C21417248   2.856   4.422  15.312 -0.3123 -0.1697  0.1297
  145DOPC  H14R17249   2.856   4.311  15.304 -0.3323 -0.1863  0.3587
  145DOPC  H14S17250   2.904   4.472  15.226  0.5621  1.3011  1.4337
  145DOPC  C21517251   2.706   4.451  15.312 -0.0445  0.1785  0.2929
  145DOPC  H15R17252   2.670   4.552  15.340 -0.6126 -0.2369  1.1016
  145DOPC  H15S17253   2.643   4.377  15.366  0.8878  1.1803  2.9453
  145DOPC  C21617254   2.650   4.447  15.167  0.4494 -0.1349  0.3984
  145DOPC  H16R17255   2.691   4.531  15.107  0.1303  0.2081  0.6571
  145DOPC  H16S17256   2.540   4.458  15.175  0.0879 -2.3972 -0.7360
  145DOPC  C21717257   2.670   4.314  15.082  0.6821 -0.4128 -0.2041
  145DOPC  H17R17258   2.633   4.240  15.156  1.5553  1.3490  2.1422
  145DOPC  H17S17259   2.779   4.308  15.064  0.8500 -0.8150  0.8836
  145DOPC  C21817260   2.596   4.316  14.952 -0.9520  0.0139  0.2421
  145DOPC  H18R17261   2.626   4.218  14.907 -0.9714 -0.3588  1.0232
  145DOPC  H18S17262   2.629   4.394  14.881  0.0896 -0.3048  0.3571
  145DOPC  H18T17263   2.485   4.324  14.957 -0.9914 -0.9977  2.1695
  145DOPC   C3317264   3.742   4.625  15.931  0.1792 -0.8651  0.4345
  145DOPC   H3X17265   3.710   4.519  15.937  0.8786 -1.0094  2.1174
  145DOPC   H3Y17266   3.847   4.625  15.967  0.2010 -1.1264  0.3715
  145DOPC   C3417267   3.751   4.667  15.779  0.2397 -0.2615  0.4021
  145DOPC   H4X17268   3.650   4.670  15.732  0.0188 -3.6535  0.3637
  145DOPC   H4Y17269   3.813   4.592  15.725  0.1543  0.7566 -1.1704
  145DOPC   C3517270   3.820   4.801  15.755 -0.2198 -0.1221  0.5595
  145DOPC   H5X17271   3.924   4.777  15.788 -0.0933 -2.6149 -1.3810
  145DOPC   H5Y17272   3.764   4.877  15.814 -1.7410 -0.0099 -0.9618
  145DOPC   C3617273   3.826   4.837  15.606  0.4931  0.2074 -0.1637
  145DOPC   H6X17274   3.862   4.942  15.604 -1.0446  0.7510 -1.7241
  145DOPC   H6Y17275   3.896   4.774  15.546 -0.3894  0.8311 -1.9170
  145DOPC   C3717276   3.696   4.865  15.536  1.0029 -0.2236  0.0163
  145DOPC   H7X17277   3.632   4.774  15.533 -1.9365  1.6669  0.6566
  145DOPC   H7Y17278   3.641   4.938  15.599  1.1503 -0.8192  0.8533
  145DOPC   C3817279   3.715   4.913  15.392 -0.0378 -0.1496 -0.0714
  145DOPC   H8X17280   3.779   5.003  15.394  1.5796 -1.2015 -1.4360
  145DOPC   H8Y17281   3.616   4.945  15.353 -0.2915  1.7914  2.0103
  145DOPC   C3917282   3.772   4.806  15.312 -0.4486 -0.6177 -0.5905
  145DOPC   H9X17283   3.696   4.731  15.289 -1.9384  0.9213 -0.9282
  145DOPC  C31017284   3.883   4.802  15.249 -0.5663  0.4819  0.4927
  145DOPC  H10X17285   3.911   4.709  15.198 -0.1509  1.3399 -0.8996
  145DOPC  C31117286   3.990   4.913  15.252 -0.1342  0.3744 -0.0808
  145DOPC  H11X17287   3.982   4.971  15.347 -1.2667  0.5873 -0.3024
  145DOPC  H11Y17288   3.983   4.990  15.173 -1.5418  0.2860 -0.0540
  145DOPC  C31217289   4.135   4.862  15.242 -0.2933 -1.1506  0.0605
  145DOPC  H12X17290   4.157   4.792  15.325  1.2290  0.9635  1.5359
  145DOPC  H12Y17291   4.196   4.950  15.269 -1.8515  0.4838 -1.4462
  145DOPC  C31317292   4.159   4.799  15.112 -0.3908  0.9015  0.8189
  145DOPC  H13X17293   4.116   4.698  15.091  0.5306  1.0352 -2.0810
  145DOPC  H13Y17294   4.109   4.868  15.040 -0.4128  1.8170  1.6894
  145DOPC  C31417295   4.306   4.769  15.070 -0.2007 -0.6911 -0.1988
  145DOPC  H14X17296   4.307   4.726  14.968  1.1973  1.4252 -1.1488
  145DOPC  H14Y17297   4.356   4.868  15.064  2.0143 -1.7980 -1.4957
  145DOPC  C31517298   4.383   4.687  15.181  0.8065 -0.2193 -0.0795
  145DOPC  H15X17299   4.319   4.598  15.200  0.0843  0.3667  0.2870
  145DOPC  H15Y17300   4.395   4.741  15.277 -0.1636 -0.6537  0.2992
  145DOPC  C31617301   4.522   4.640  15.138  1.2636  0.5434  0.0674
  145DOPC  H16X17302   4.564   4.585  15.225 -0.5295  2.5873  2.3416
  145DOPC  H16Y17303   4.510   4.566  15.055  0.5908  1.2130 -0.4470
  145DOPC  C31717304   4.605   4.749  15.079 -0.7291 -0.5375 -0.7997
  145DOPC  H17X17305   4.700   4.703  15.045 -1.3287 -1.0690 -1.7993
  145DOPC  H17Y17306   4.545   4.780  14.991 -1.6024 -0.9491 -0.3617
  145DOPC  C31817307   4.635   4.868  15.180 -0.3297  0.0244  0.7060
  145DOPC  H18X17308   4.704   4.945  15.139 -1.2601  0.8287  0.5996
  145DOPC  H18Y17309   4.541   4.921  15.209 -0.8182 -0.6933  0.4561
  145DOPC  H18Z17310   4.685   4.823  15.268  0.2884 -1.2639 -0.2737
  146DOPC     N17311   4.799   3.099  16.790 -0.0288  0.0440  0.1962
  146DOPC   C1217312   4.874   2.968  16.760  0.8216 -0.8022  0.3632
  146DOPC  H12A17313   4.945   2.980  16.679  0.2998  0.3588  0.0531
  146DOPC  H12B17314   4.802   2.906  16.708  0.6811 -1.6147  1.4958
  146DOPC   C1317315   4.893   3.207  16.830 -0.1023 -0.2038  0.4426
  146DOPC  H13A17316   4.839   3.294  16.864 -0.0304 -0.7710  2.0825
  146DOPC  H13B17317   4.954   3.169  16.910  0.4809 -1.8621 -0.7316
  146DOPC  H13C17318   4.960   3.229  16.748 -0.2497 -1.5791 -0.0677
  146DOPC   C1417319   4.694   3.081  16.893  0.0091 -0.1809 -0.2105
  146DOPC  H14A17320   4.618   3.007  16.876 -2.5371  1.9191  1.3185
  146DOPC  H14B17321   4.753   3.057  16.980  0.9624  0.4787 -0.6613
  146DOPC  H14C17322   4.648   3.176  16.916  0.2197  0.2303 -1.4303
  146DOPC   C1517323   4.736   3.148  16.664  0.9051  0.2179  0.6408
  146DOPC  H15A17324   4.674   3.235  16.682 -0.7394 -0.4713 -1.2788
  146DOPC  H15B17325   4.667   3.073  16.627  0.0243  0.2949  2.0454
  146DOPC  H15C17326   4.802   3.160  16.580 -0.2714 -0.2990 -0.3892
  146DOPC   C1117327   4.935   2.889  16.881  0.4430 -0.2344  0.5247
  146DOPC  H11A17328   4.858   2.884  16.960 -1.2142 -0.2468 -1.0398
  146DOPC  H11B17329   4.958   2.782  16.862  0.4962 -0.2672  0.7655
  146DOPC     P17330   5.183   2.960  16.838  0.2686 -0.8107 -0.5208
  146DOPC   O1317331   5.295   2.923  16.924  0.5492 -0.5167 -0.0643
  146DOPC   O1417332   5.180   3.098  16.783  0.1656 -0.6063 -0.1802
  146DOPC   O1217333   5.057   2.954  16.920 -0.2347  0.1561 -0.5625
  146DOPC   O1117334   5.171   2.863  16.729 -0.6696  0.4433  0.0436
  146DOPC    C117335   5.252   2.867  16.610 -0.0232 -0.1945  0.6102
  146DOPC    HA17336   5.276   2.766  16.571 -0.8713 -0.1579 -0.0226
  146DOPC    HB17337   5.347   2.925  16.608 -0.5679  0.7126  0.1424
  146DOPC    C217338   5.174   2.936  16.492  0.5252  0.5993  0.7348
  146DOPC    HS17339   5.145   3.037  16.527  4.4373  2.6672 -1.2894
  146DOPC   O2117340   5.060   2.848  16.453  0.1563 -0.1703  0.0166
  146DOPC   C2117341   4.955   2.921  16.407  0.1333  0.5758  0.2338
  146DOPC   O2217342   4.934   3.036  16.426 -0.6912  0.0786  0.2795
  146DOPC   C2217343   4.868   2.829  16.326  0.0880 -0.6750 -0.1311
  146DOPC   H2R17344   4.767   2.874  16.331  0.9369  1.2480  0.9664
  146DOPC   H2S17345   4.870   2.729  16.374  0.0049 -0.3318  0.5896
  146DOPC    C317346   5.271   2.952  16.373 -0.0452 -0.3446  0.3061
  146DOPC    HX17347   5.293   2.853  16.328 -0.4519 -0.4153  0.2508
  146DOPC    HY17348   5.375   2.981  16.396  0.0367 -1.2965  1.1675
  146DOPC   O3117349   5.214   3.037  16.264 -0.5796 -0.0277 -0.1053
  146DOPC   C3117350   5.230   3.167  16.287 -0.6518 -0.0642 -0.1139
  146DOPC   O3217351   5.291   3.213  16.383 -0.2245  0.1338  0.1299
  146DOPC   C3217352   5.184   3.246  16.170 -0.7803  0.3369  0.1451
  146DOPC   H2X17353   5.202   3.356  16.168 -2.4118  0.6081 -0.6817
  146DOPC   H2Y17354   5.238   3.214  16.078 -0.1509 -0.9324  0.9317
  146DOPC   C2317355   4.920   2.816  16.179 -0.9864  0.2839 -0.1577
  146DOPC   H3R17356   4.907   2.714  16.137 -4.5185  1.1932 -1.5869
  146DOPC   H3S17357   5.028   2.843  16.180 -0.9257  0.0475  0.9758
  146DOPC   C2417358   4.846   2.902  16.072 -0.6530  0.7584  0.2963
  146DOPC   H4R17359   4.859   3.009  16.095 -2.7399  0.8640  1.2394
  146DOPC   H4S17360   4.739   2.875  16.084 -0.0874 -2.2719 -0.5098
  146DOPC   C2517361   4.886   2.878  15.923  0.0409 -0.0913 -0.0319
  146DOPC   H5R17362   4.890   2.769  15.904 -1.6415 -0.0860 -0.5582
  146DOPC   H5S17363   4.993   2.904  15.904  0.9403 -2.8918  0.6307
  146DOPC   C2617364   4.787   2.949  15.837  0.1357 -0.6725  0.0387
  146DOPC   H6R17365   4.778   3.052  15.877  1.4060 -0.2031 -0.8265
  146DOPC   H6S17366   4.686   2.905  15.853  0.4648 -0.6240  2.7629
  146DOPC   C2717367   4.806   2.942  15.684  0.1614  0.4548 -0.1707
  146DOPC   H7R17368   4.910   2.972  15.660 -0.2410 -0.0638 -2.8616
  146DOPC   H7S17369   4.741   3.021  15.641  0.7044  1.5927  1.0281
  146DOPC   C2817370   4.775   2.805  15.628  0.6832 -0.2336 -0.6040
  146DOPC   H8R17371   4.667   2.783  15.647  0.4597  1.2475 -0.0366
  146DOPC   H8S17372   4.831   2.728  15.683  0.5230 -0.3290 -0.5740
  146DOPC   C2917373   4.808   2.792  15.486 -0.9629 -0.0875  0.3993
  146DOPC   H9R17374   4.916   2.780  15.469 -1.0304 -0.2324  0.0574
  146DOPC  C21017375   4.727   2.778  15.380  0.7534 -0.1291  0.1424
  146DOPC  H10R17376   4.764   2.756  15.279 -0.9376  0.2723 -0.5954
  146DOPC  C21117377   4.571   2.774  15.391 -0.6673 -0.2286  0.9438
  146DOPC  H11R17378   4.534   2.866  15.340  1.5233 -1.1239 -2.6368
  146DOPC  H11S17379   4.534   2.795  15.493 -2.7805  1.0346 -0.0263
  146DOPC  C21217380   4.505   2.653  15.321 -0.7798  0.5289  0.3407
  146DOPC  H12R17381   4.541   2.559  15.368  1.3111  1.6885  1.2056
  146DOPC  H12S17382   4.537   2.643  15.215  0.3792 -0.8451  0.7845
  146DOPC  C21317383   4.351   2.661  15.320 -0.3200  0.2448 -0.0196
  146DOPC  H13R17384   4.327   2.699  15.422  1.4542  1.8715 -0.1505
  146DOPC  H13S17385   4.310   2.558  15.313  1.4694 -0.4096 -2.1344
  146DOPC  C21417386   4.290   2.747  15.213 -0.4034 -0.4378 -0.3047
  146DOPC  H14R17387   4.315   2.701  15.115 -1.5574  1.3827 -1.5394
  146DOPC  H14S17388   4.340   2.847  15.212 -1.5125  0.1734 -2.9029
  146DOPC  C21517389   4.134   2.747  15.216 -0.2357 -0.0204 -0.2824
  146DOPC  H15R17390   4.095   2.803  15.128  0.7326  0.0288 -0.6973
  146DOPC  H15S17391   4.091   2.802  15.303 -2.8252  0.5879 -1.8457
  146DOPC  C21617392   4.066   2.610  15.208  0.2266  0.3964 -0.0492
  146DOPC  H16R17393   4.054   2.572  15.312  0.0974  3.0112  0.9762
  146DOPC  H16S17394   4.135   2.539  15.157 -1.1834 -0.8179 -0.3220
  146DOPC  C21717395   3.928   2.608  15.144 -0.1404  0.5769 -0.8106
  146DOPC  H17R17396   3.904   2.504  15.115  1.4961  0.1407 -0.7069
  146DOPC  H17S17397   3.929   2.662  15.047  0.2184  1.2577 -0.4338
  146DOPC  C21817398   3.823   2.675  15.232 -0.4042 -0.0741 -0.3097
  146DOPC  H18R17399   3.805   2.621  15.328  1.5866 -2.3897 -1.1507
  146DOPC  H18S17400   3.727   2.677  15.177 -0.0331  1.0922 -0.9435
  146DOPC  H18T17401   3.851   2.781  15.249  1.2860 -0.2867 -1.6071
  146DOPC   C3317402   5.040   3.238  16.147  0.1249 -0.1199  0.1482
  146DOPC   H3X17403   4.974   3.280  16.226 -0.9366 -2.2984  0.4984
  146DOPC   H3Y17404   5.000   3.134  16.138  0.0586 -0.0233 -0.7831
  146DOPC   C3417405   5.006   3.307  16.015 -0.3927  0.2351 -0.4221
  146DOPC   H4X17406   5.048   3.256  15.926  0.8426  1.1023 -0.3694
  146DOPC   H4Y17407   5.058   3.406  16.018  0.5646 -0.2680  1.7780
  146DOPC   C3517408   4.850   3.318  15.988  0.3656 -0.5262 -0.3967
  146DOPC   H5X17409   4.806   3.414  16.021 -1.7215 -1.3349 -0.7170
  146DOPC   H5Y17410   4.791   3.232  16.024 -1.1498  0.5227 -0.2635
  146DOPC   C3617411   4.839   3.340  15.833  0.2495 -0.5816  0.5125
  146DOPC   H6X17412   4.912   3.420  15.809  0.4329 -1.2792 -1.3760
  146DOPC   H6Y17413   4.873   3.245  15.786 -0.2789 -0.7741  0.5165
  146DOPC   C3717414   4.698   3.361  15.769 -0.2390 -0.6418  0.9096
  146DOPC   H7X17415   4.640   3.267  15.783 -1.5600  0.2046  1.2750
  146DOPC   H7Y17416   4.648   3.440  15.828 -1.6069  1.4549 -2.6911
  146DOPC   C3817417   4.717   3.414  15.624  0.2471  0.0836 -0.2704
  146DOPC   H8X17418   4.810   3.474  15.624  1.2872 -1.4148  1.4184
  146DOPC   H8Y17419   4.629   3.471  15.589  0.7854  2.4607  1.9719
  146DOPC   C3917420   4.747   3.300  15.527 -0.5825  0.1261 -0.3543
  146DOPC   H9X17421   4.851   3.264  15.533 -0.1436  0.9315 -2.3468
  146DOPC  C31017422   4.669   3.246  15.431 -0.0848  0.4079 -0.5529
  146DOPC  H10X17423   4.711   3.161  15.375  0.2361 -0.0832  0.4051
  146DOPC  C31117424   4.528   3.296  15.408  0.6516  0.7645  0.4453
  146DOPC  H11X17425   4.499   3.269  15.304 -1.4871  1.0898  0.9063
  146DOPC  H11Y17426   4.523   3.407  15.403  1.7682  0.9136  2.0914
  146DOPC  C31217427   4.412   3.259  15.505 -0.0840 -0.0459 -0.3084
  146DOPC  H12X17428   4.333   3.332  15.531 -1.5752 -1.6833 -0.0062
  146DOPC  H12Y17429   4.465   3.249  15.603  2.6149  0.2501 -1.6320
  146DOPC  C31317430   4.335   3.137  15.468  0.4331  0.0910  0.6104
  146DOPC  H13X17431   4.286   3.170  15.374  1.5033  0.8374  0.2931
  146DOPC  H13Y17432   4.390   3.044  15.442 -1.9494 -0.6706 -2.2492
  146DOPC  C31417433   4.224   3.116  15.578 -0.8782  0.3166  0.6309
  146DOPC  H14X17434   4.284   3.100  15.670  0.7295  2.7505  0.1012
  146DOPC  H14Y17435   4.160   3.206  15.590  0.3205  1.1620  0.8003
  146DOPC  C31517436   4.130   3.002  15.547 -0.1555 -0.1963  0.5035
  146DOPC  H15X17437   4.190   2.908  15.542  0.5157  0.2852 -1.5905
  146DOPC  H15Y17438   4.087   3.013  15.445  0.3209 -0.1027  0.3079
  146DOPC  C31617439   4.023   2.976  15.651 -0.1583 -0.1348  0.4330
  146DOPC  H16X17440   4.075   2.959  15.748  0.9709 -1.8462 -0.4167
  146DOPC  H16Y17441   3.962   3.069  15.652 -0.0999 -0.1000  1.0382
  146DOPC  C31717442   3.922   2.864  15.614 -0.3967  0.5609  0.6364
  146DOPC  H17X17443   3.847   2.854  15.696 -1.0520 -0.5164 -0.0787
  146DOPC  H17Y17444   3.868   2.901  15.525 -0.5825  1.2236  1.0149
  146DOPC  C31817445   3.988   2.721  15.580  0.5005  0.0265  0.0548
  146DOPC  H18X17446   3.916   2.646  15.540  0.5446 -0.9414  1.6895
  146DOPC  H18Y17447   4.080   2.727  15.518  0.7755 -0.4600  0.4072
  146DOPC  H18Z17448   4.011   2.684  15.682  2.3691 -0.0795 -0.3731
  147DOPC     N17449   2.440   2.307  17.089 -0.0215  0.6511  0.2479
  147DOPC   C1217450   2.382   2.159  17.096  0.5296 -0.9142  0.5179
  147DOPC  H12A17451   2.294   2.160  17.033  0.8117  2.6343  0.0172
  147DOPC  H12B17452   2.344   2.134  17.193  0.4134 -1.1058  0.4254
  147DOPC   C1317453   2.359   2.394  17.163  1.4172  0.0282 -0.5864
  147DOPC  H13A17454   2.414   2.482  17.189  0.8815  0.5647 -1.2278
  147DOPC  H13B17455   2.271   2.429  17.111  0.0650  0.7216  2.0378
  147DOPC  H13C17456   2.319   2.344  17.250 -2.3562  0.3459 -1.9677
  147DOPC   C1417457   2.460   2.354  16.949  0.3791 -0.3654  0.4863
  147DOPC  H14A17458   2.522   2.442  16.950 -0.5841  0.3267  2.2080
  147DOPC  H14B17459   2.498   2.268  16.895  0.9861  0.3217 -0.2148
  147DOPC  H14C17460   2.367   2.379  16.900  0.2424 -1.0199  0.4048
  147DOPC   C1517461   2.582   2.299  17.145  0.2434 -0.3692 -0.2345
  147DOPC  H15A17462   2.587   2.236  17.233  0.5032  0.7396  0.5602
  147DOPC  H15B17463   2.607   2.402  17.164 -0.7882  0.3550 -2.4601
  147DOPC  H15C17464   2.643   2.246  17.073 -1.2609 -2.7903  0.1776
  147DOPC   C1117465   2.463   2.047  17.047 -0.4482  0.0694  0.3555
  147DOPC  H11A17466   2.555   2.044  17.110 -1.0776 -0.6415  1.2757
  147DOPC  H11B17467   2.420   1.948  17.071  1.3627 -1.2266 -1.3863
  147DOPC     P17468   2.398   2.008  16.800  0.3934  0.3683 -0.3571
  147DOPC   O1317469   2.446   2.057  16.669  0.5219 -0.1325  0.0648
  147DOPC   O1417470   2.259   2.042  16.838  0.0297  0.2451  0.1861
  147DOPC   O1217471   2.495   2.057  16.908  0.0017 -0.5769  0.3795
  147DOPC   O1117472   2.423   1.850  16.812 -0.3021 -0.4612  0.4269
  147DOPC    C117473   2.320   1.754  16.811  0.3179  0.2208 -0.6375
  147DOPC    HA17474   2.231   1.785  16.869 -0.2394 -1.6038 -0.4391
  147DOPC    HB17475   2.359   1.664  16.863 -0.8164  0.1695  0.1655
  147DOPC    C217476   2.274   1.702  16.669  0.2972  0.0001  0.1198
  147DOPC    HS17477   2.224   1.604  16.683  2.6624 -1.0854  1.5979
  147DOPC   O2117478   2.382   1.697  16.578 -0.2149 -0.5164 -0.5040
  147DOPC   C2117479   2.467   1.602  16.604 -0.4175  0.0704  0.2077
  147DOPC   O2217480   2.446   1.507  16.681 -0.4269 -0.4895 -0.3184
  147DOPC   C2217481   2.592   1.615  16.522  0.6894 -0.2314 -0.1461
  147DOPC   H2R17482   2.554   1.589  16.421  2.7246 -0.5762 -0.8779
  147DOPC   H2S17483   2.668   1.535  16.538 -0.5953 -1.2197  1.3331
  147DOPC    C317484   2.169   1.798  16.607  0.3517 -0.2791  0.8359
  147DOPC    HX17485   2.215   1.895  16.579 -0.8986  0.3644  0.9523
  147DOPC    HY17486   2.095   1.816  16.687  0.4381  0.1515  0.8224
  147DOPC   O3117487   2.102   1.734  16.487 -0.2108 -0.2771  0.3614
  147DOPC   C3117488   2.133   1.785  16.364  0.3120  0.5433 -0.7466
  147DOPC   O3217489   2.171   1.898  16.354  0.5474 -0.0775  0.0410
  147DOPC   C3217490   2.119   1.679  16.256 -0.6776  0.4143 -0.1176
  147DOPC   H2X17491   2.110   1.576  16.298 -0.6421  0.4085 -0.1248
  147DOPC   H2Y17492   2.018   1.700  16.214 -0.4653 -2.6085 -2.5699
  147DOPC   C2317493   2.661   1.752  16.521 -0.1268 -0.2166 -0.1568
  147DOPC   H3R17494   2.733   1.747  16.605 -0.9065  0.4756  0.5766
  147DOPC   H3S17495   2.589   1.835  16.536 -2.4048 -1.7671 -1.7556
  147DOPC   C2417496   2.733   1.789  16.388  0.0044  0.3542  0.3137
  147DOPC   H4R17497   2.804   1.707  16.365 -1.2986 -0.7211 -0.0546
  147DOPC   H4S17498   2.792   1.882  16.402 -0.2802  0.8149 -1.2912
  147DOPC   C2517499   2.637   1.794  16.265  0.1481 -0.0395  1.0576
  147DOPC   H5R17500   2.544   1.847  16.292  1.2798  1.5393  1.9874
  147DOPC   H5S17501   2.604   1.691  16.239  2.0821 -0.1555 -1.2525
  147DOPC   C2617502   2.693   1.872  16.145 -0.8653 -0.2445 -0.3867
  147DOPC   H6R17503   2.794   1.831  16.122 -0.3028 -0.6434  2.3580
  147DOPC   H6S17504   2.705   1.974  16.188 -3.1583 -0.9577  2.3333
  147DOPC   C2717505   2.593   1.852  16.036  0.0646 -0.4294 -0.4177
  147DOPC   H7R17506   2.491   1.886  16.065 -0.1282 -0.5720 -0.9078
  147DOPC   H7S17507   2.594   1.746  16.005 -1.3723 -0.5556 -0.0930
  147DOPC   C2817508   2.624   1.945  15.906 -0.7142 -0.3179 -0.7194
  147DOPC   H8R17509   2.650   2.049  15.935  0.6230 -0.2165 -2.1550
  147DOPC   H8S17510   2.534   1.961  15.843 -0.1011  1.2392 -1.2516
  147DOPC   C2917511   2.733   1.905  15.815 -0.3836  0.9779 -0.0614
  147DOPC   H9R17512   2.829   1.879  15.863 -0.4240 -0.4788 -0.7171
  147DOPC  C21017513   2.740   1.913  15.680 -0.3360  0.4443 -0.4890
  147DOPC  H10R17514   2.832   1.879  15.630  0.3672 -0.4795  1.3230
  147DOPC  C21117515   2.643   1.963  15.591  0.4306  0.1280 -0.8125
  147DOPC  H11R17516   2.638   2.073  15.602 -1.5143 -0.1703  2.6251
  147DOPC  H11S17517   2.543   1.929  15.625  0.7233  0.1258  0.0774
  147DOPC  C21217518   2.680   1.915  15.450 -0.4924  0.1541 -0.1557
  147DOPC  H12R17519   2.695   1.807  15.429 -0.6171  0.1548 -0.2450
  147DOPC  H12S17520   2.779   1.960  15.426  0.2627 -2.1219 -1.6213
  147DOPC  C21317521   2.588   1.979  15.347 -0.4683 -0.2272  0.0328
  147DOPC  H13R17522   2.547   2.073  15.389  0.5904 -0.3496  1.4161
  147DOPC  H13S17523   2.493   1.923  15.331 -0.0683 -0.2125 -2.9134
  147DOPC  C21417524   2.648   1.993  15.204 -0.4106 -0.2220 -0.5786
  147DOPC  H14R17525   2.689   1.894  15.175  1.6812 -0.7037  3.2474
  147DOPC  H14S17526   2.745   2.046  15.218 -0.6460 -0.0585  0.5273
  147DOPC  C21517527   2.553   2.052  15.097  0.6021  0.9239  0.7130
  147DOPC  H15R17528   2.600   2.074  14.999  0.8865  0.4063  0.7271
  147DOPC  H15S17529   2.515   2.152  15.127 -0.8140  0.8428 -0.6660
  147DOPC  C21617530   2.436   1.956  15.060  0.2776 -0.2177 -0.2354
  147DOPC  H16R17531   2.374   2.001  14.980 -1.0541  0.2042  1.0045
  147DOPC  H16S17532   2.371   1.957  15.150  0.3723  1.8740 -0.1441
  147DOPC  C21717533   2.481   1.812  15.026 -0.1534  0.3388  0.0750
  147DOPC  H17R17534   2.517   1.775  15.124 -1.1837  0.4041  0.4969
  147DOPC  H17S17535   2.560   1.815  14.948  0.0475 -2.1647  0.1232
  147DOPC  C21817536   2.364   1.716  14.994 -0.1859  0.6575 -0.9024
  147DOPC  H18R17537   2.399   1.613  14.973  0.0899  0.5594 -0.0228
  147DOPC  H18S17538   2.302   1.766  14.917  1.6304  1.6621 -1.7709
  147DOPC  H18T17539   2.294   1.713  15.080  1.8358 -0.4933  0.8030
  147DOPC   C3317540   2.220   1.688  16.139  0.6917 -0.4542  1.2259
  147DOPC   H3X17541   2.218   1.589  16.088 -5.0123  0.1353 -0.4632
  147DOPC   H3Y17542   2.320   1.718  16.178  0.0804 -0.6325  3.0037
  147DOPC   C3417543   2.173   1.795  16.033  0.0336 -0.1268 -0.9523
  147DOPC   H4X17544   2.253   1.825  15.961 -1.5659  1.0570 -2.3015
  147DOPC   H4Y17545   2.139   1.885  16.088  0.8543  0.1861 -0.9351
  147DOPC   C3517546   2.055   1.750  15.952  0.2396  0.1034  0.3273
  147DOPC   H5X17547   1.988   1.829  15.913 -2.0596 -2.2025 -0.6531
  147DOPC   H5Y17548   1.999   1.674  16.010  0.8723 -0.8869 -0.3224
  147DOPC   C3617549   2.095   1.674  15.824  0.1781 -0.0889  0.0579
  147DOPC   H6X17550   2.169   1.595  15.846  0.3380 -0.2056 -0.8369
  147DOPC   H6Y17551   2.000   1.625  15.794 -0.1666  1.2334 -1.1603
  147DOPC   C3717552   2.134   1.754  15.701  0.0786  0.0232 -0.1369
  147DOPC   H7X17553   2.051   1.828  15.690 -0.3848 -0.6807 -1.6930
  147DOPC   H7Y17554   2.226   1.812  15.721 -0.5186  0.1038  2.7873
  147DOPC   C3817555   2.139   1.663  15.580  0.1941 -0.6840 -0.1036
  147DOPC   H8X17556   2.040   1.625  15.546 -0.0983 -0.7597  0.8110
  147DOPC   H8Y17557   2.206   1.578  15.606 -0.5144 -1.3259 -0.3323
  147DOPC   C3917558   2.201   1.731  15.458  0.7202  0.5943  0.3116
  147DOPC   H9X17559   2.310   1.728  15.446  0.5481 -3.0269 -1.6186
  147DOPC  C31017560   2.135   1.805  15.362  0.3142 -0.0458 -0.1713
  147DOPC  H10X17561   2.201   1.854  15.289  0.6602  1.8405  1.3182
  147DOPC  C31117562   1.988   1.839  15.360 -0.2983 -0.6728  0.2796
  147DOPC  H11X17563   1.991   1.949  15.373 -0.2056 -0.5764 -0.4834
  147DOPC  H11Y17564   1.927   1.792  15.440 -0.7282  0.3613  0.5656
  147DOPC  C31217565   1.919   1.798  15.223 -0.5455  0.6305  0.1406
  147DOPC  H12X17566   1.926   1.687  15.220 -0.8500  0.5533  1.5523
  147DOPC  H12Y17567   1.966   1.853  15.138  1.4436 -2.0580 -0.6631
  147DOPC  C31317568   1.773   1.828  15.217  0.0640  0.3605 -0.0804
  147DOPC  H13X17569   1.729   1.760  15.141  1.4162 -0.6332 -0.0130
  147DOPC  H13Y17570   1.737   1.805  15.319  1.7635  3.0452  1.2411
  147DOPC  C31417571   1.740   1.978  15.206 -0.2750 -0.0655  0.1373
  147DOPC  H14X17572   1.801   2.037  15.278 -1.2799  0.6782  0.4049
  147DOPC  H14Y17573   1.753   2.011  15.101  1.0136 -2.2279 -0.4397
  147DOPC  C31517574   1.595   2.000  15.240  0.2536  0.3128  0.2175
  147DOPC  H15X17575   1.573   2.095  15.187  1.9027  0.4457 -0.3034
  147DOPC  H15Y17576   1.574   2.001  15.349  0.9636 -0.0916  0.3667
  147DOPC  C31617577   1.497   1.888  15.190  0.1460 -0.0847  0.0992
  147DOPC  H16X17578   1.510   1.865  15.082 -0.0916 -0.5352  0.1670
  147DOPC  H16Y17579   1.514   1.793  15.245  0.5270  1.2695  2.4499
  147DOPC  C31717580   1.348   1.918  15.207 -0.0098 -0.4239 -0.0707
  147DOPC  H17X17581   1.327   1.970  15.304 -1.9942 -1.0222 -0.1224
  147DOPC  H17Y17582   1.313   1.999  15.139  0.6293  2.4697  2.7494
  147DOPC  C31817583   1.246   1.806  15.188  0.0590  0.0091 -0.0348
  147DOPC  H18X17584   1.146   1.848  15.164  0.5943  0.6275 -1.3120
  147DOPC  H18Y17585   1.285   1.747  15.102  1.2791 -0.7208  0.9881
  147DOPC  H18Z17586   1.248   1.730  15.269  0.3360  1.6541  1.5717
  148DOPC     N17587   2.478   4.975  17.300  0.0354 -0.4208  0.0442
  148DOPC   C1217588   2.470   4.868  17.192  0.5002  0.3685 -0.4601
  148DOPC  H12A17589   2.380   4.887  17.135  0.0557  0.0554  0.1350
  148DOPC  H12B17590   2.462   4.771  17.240 -1.2101 -0.2936 -1.9669
  148DOPC   C1317591   2.442   5.103  17.235  0.1396 -0.3605 -0.1602
  148DOPC  H13A17592   2.458   5.192  17.294 -2.0952  0.3852 -0.5836
  148DOPC  H13B17593   2.499   5.108  17.143 -1.8465 -1.4921 -1.5311
  148DOPC  H13C17594   2.336   5.103  17.216 -0.2226  1.3793  1.5460
  148DOPC   C1417595   2.619   4.983  17.343 -0.1509 -0.2392  0.4910
  148DOPC  H14A17596   2.682   4.986  17.256 -0.8448  0.7274  0.0183
  148DOPC  H14B17597   2.634   5.069  17.406  1.7780 -1.7091  2.2363
  148DOPC  H14C17598   2.637   4.891  17.398 -4.3592 -1.8842 -0.5413
  148DOPC   C1517599   2.391   4.948  17.421 -0.2747 -0.2220  0.6663
  148DOPC  H15A17600   2.423   5.014  17.500  0.8409 -0.8476  0.7615
  148DOPC  H15B17601   2.418   4.850  17.458 -0.4108 -0.3783  0.3567
  148DOPC  H15C17602   2.287   4.957  17.393 -0.2456  0.7141  0.8220
  148DOPC   C1117603   2.583   4.861  17.081  0.7141 -0.4349  0.5726
  148DOPC  H11A17604   2.547   4.791  17.002 -0.3256  0.5088  0.1802
  148DOPC  H11B17605   2.580   4.957  17.027 -1.4907 -0.3053  0.8291
  148DOPC     P17606   2.757   4.674  17.163 -0.0044 -0.0651  0.4069
  148DOPC   O1317607   2.636   4.584  17.187  0.4785 -0.6666  0.3872
  148DOPC   O1417608   2.868   4.681  17.264  0.1226  0.4163 -0.2832
  148DOPC   O1217609   2.712   4.822  17.126 -0.3773 -0.1227  0.7379
  148DOPC   O1117610   2.817   4.610  17.033 -0.0506  0.1749  0.3233
  148DOPC    C117611   2.894   4.681  16.929  0.6057  0.9271 -0.0113
  148DOPC    HA17612   2.953   4.602  16.876 -2.6491 -0.8815 -1.2178
  148DOPC    HB17613   2.954   4.756  16.984  1.2654 -0.2935  1.0062
  148DOPC    C217614   2.800   4.748  16.821 -0.9410 -0.1224  0.1517
  148DOPC    HS17615   2.740   4.827  16.870 -0.0047 -0.1140  1.3308
  148DOPC   O2117616   2.713   4.645  16.778  0.2312  0.0359  0.5286
  148DOPC   C2117617   2.588   4.681  16.741 -0.4166 -0.4671 -0.1252
  148DOPC   O2217618   2.541   4.793  16.729  0.1290  0.2349  0.0658
  148DOPC   C2217619   2.515   4.557  16.705  0.3143  0.6403 -0.1201
  148DOPC   H2R17620   2.414   4.593  16.677 -0.3657  0.7345  2.2237
  148DOPC   H2S17621   2.515   4.501  16.801  0.2179 -1.1792 -1.1523
  148DOPC    C317622   2.885   4.809  16.718  0.0645 -0.3432 -0.4148
  148DOPC    HX17623   2.946   4.724  16.680  1.0810  0.4043 -0.5175
  148DOPC    HY17624   2.956   4.880  16.767  0.9345 -1.4665  0.0099
  148DOPC   O3117625   2.821   4.873  16.607  0.2536  0.0781 -0.6979
  148DOPC   C3117626   2.771   4.997  16.630 -0.0871 -0.0964 -0.3497
  148DOPC   O3217627   2.789   5.056  16.735 -0.2819  0.0680  0.4818
  148DOPC   C3217628   2.689   5.057  16.515 -0.5559  0.7396  0.3082
  148DOPC   H2X17629   2.590   5.007  16.530  0.5228 -1.2397  1.1756
  148DOPC   H2Y17630   2.707   5.166  16.519  0.6754  0.5181  1.5633
  148DOPC   C2317631   2.572   4.482  16.584 -0.0280  0.5266 -0.2736
  148DOPC   H3R17632   2.679   4.462  16.609 -0.2682  0.6253  0.9077
  148DOPC   H3S17633   2.559   4.521  16.481  0.4212 -1.4903 -1.1529
  148DOPC   C2417634   2.513   4.340  16.579 -0.0763 -0.2784 -0.6988
  148DOPC   H4R17635   2.402   4.338  16.568 -0.0948  1.3498 -1.0643
  148DOPC   H4S17636   2.539   4.298  16.678  0.0573  2.1048  0.3581
  148DOPC   C2517637   2.563   4.263  16.459  0.3475  0.5848 -0.5285
  148DOPC   H5R17638   2.556   4.153  16.469 -1.4389  0.8095  1.0646
  148DOPC   H5S17639   2.673   4.280  16.452  0.4117 -0.1719 -1.6603
  148DOPC   C2617640   2.501   4.302  16.320 -0.2106  0.2511 -0.3517
  148DOPC   H6R17641   2.544   4.405  16.312  0.1937  0.1253  0.1318
  148DOPC   H6S17642   2.391   4.303  16.328 -0.1898  0.5325 -0.0863
  148DOPC   C2717643   2.541   4.212  16.204 -0.1643  0.3976 -0.0241
  148DOPC   H7R17644   2.501   4.115  16.239  2.3153 -0.7811 -0.2853
  148DOPC   H7S17645   2.651   4.205  16.192 -0.2068 -0.6311  0.1184
  148DOPC   C2817646   2.462   4.229  16.070  0.1200  0.0389 -0.0141
  148DOPC   H8R17647   2.513   4.150  16.010  1.2582  0.0605  0.8976
  148DOPC   H8S17648   2.488   4.325  16.020  2.6969 -0.6911 -0.2366
  148DOPC   C2917649   2.314   4.209  16.077  0.2633  0.4477  0.4984
  148DOPC   H9R17650   2.261   4.278  16.144  0.3812  0.6637  0.3727
  148DOPC  C21017651   2.243   4.109  16.014  0.2429 -0.3053  0.5351
  148DOPC  H10R17652   2.135   4.103  16.034 -0.3244  2.2078 -1.2672
  148DOPC  C21117653   2.300   4.008  15.909 -0.0445  0.2208  0.1805
  148DOPC  H11R17654   2.240   3.914  15.906  1.6883 -0.9103 -0.5565
  148DOPC  H11S17655   2.407   3.985  15.930 -0.2114 -1.4727 -0.6320
  148DOPC  C21217656   2.286   4.056  15.767 -0.5588 -0.4275 -0.4712
  148DOPC  H12R17657   2.328   4.157  15.746 -1.5499 -0.2828 -1.8470
  148DOPC  H12S17658   2.178   4.075  15.752 -0.1240  2.8728 -0.2532
  148DOPC  C21317659   2.331   3.953  15.663  0.6000  0.0378  0.3681
  148DOPC  H13R17660   2.262   3.868  15.681  1.7182 -1.0910 -0.5204
  148DOPC  H13S17661   2.437   3.921  15.668  0.3515 -0.7088  1.0662
  148DOPC  C21417662   2.317   4.004  15.521  0.9130  0.1160 -0.2406
  148DOPC  H14R17663   2.225   4.066  15.517 -1.1250 -2.5617  1.2849
  148DOPC  H14S17664   2.307   3.910  15.463  1.4135 -0.4062  0.4949
  148DOPC  C21517665   2.435   4.085  15.466  0.3499 -0.2348  0.1482
  148DOPC  H15R17666   2.509   4.005  15.443 -0.3691 -0.7829 -0.2825
  148DOPC  H15S17667   2.474   4.144  15.552  0.3653  0.2810 -0.2126
  148DOPC  C21617668   2.386   4.190  15.360 -0.3215  0.3556 -0.3504
  148DOPC  H16R17669   2.476   4.248  15.331 -0.2280  1.1026  1.3175
  148DOPC  H16S17670   2.311   4.262  15.398  0.0977  0.5917  0.0534
  148DOPC  C21717671   2.315   4.122  15.239 -0.2555 -0.3913 -1.0018
  148DOPC  H17R17672   2.244   4.049  15.284 -1.4275  1.3830  0.1804
  148DOPC  H17S17673   2.399   4.069  15.189 -2.6583 -3.0604 -2.5059
  148DOPC  C21817674   2.252   4.218  15.146 -0.2688 -0.6581  0.6236
  148DOPC  H18R17675   2.226   4.168  15.050  1.5064 -3.3971  1.4404
  148DOPC  H18S17676   2.323   4.301  15.126  0.4320 -0.9066  1.9426
  148DOPC  H18T17677   2.158   4.257  15.189 -0.4125  1.0498 -1.1076
  148DOPC   C3317678   2.765   5.006  16.391 -0.3488 -0.6365  0.0598
  148DOPC   H3X17679   2.770   4.895  16.389 -3.1245 -0.9023  1.8732
  148DOPC   H3Y17680   2.868   5.048  16.387 -0.7799  0.8282  2.2433
  148DOPC   C3417681   2.699   5.048  16.260 -0.3991 -0.3898 -0.6956
  148DOPC   H4X17682   2.703   5.159  16.264  2.2164 -0.4519 -0.3212
  148DOPC   H4Y17683   2.594   5.012  16.258 -0.1839 -1.1403  0.6100
  148DOPC   C3517684   2.778   5.007  16.137 -0.1913  0.1634 -0.1809
  148DOPC   H5X17685   2.785   4.896  16.134  0.2065  0.2117 -2.2508
  148DOPC   H5Y17686   2.880   5.053  16.139  0.7930 -1.7620 -2.2870
  148DOPC   C3617687   2.706   5.050  16.007 -0.6572  0.3558 -0.3214
  148DOPC   H6X17688   2.597   5.055  16.029  0.0517  0.3762  3.9585
  148DOPC   H6Y17689   2.748   5.150  15.984  2.1541 -0.7993 -0.5816
  148DOPC   C3717690   2.738   4.953  15.892  0.5693 -0.2223 -0.6920
  148DOPC   H7X17691   2.848   4.947  15.883  0.5473 -0.1600 -1.0538
  148DOPC   H7Y17692   2.689   4.856  15.916  2.1497 -0.7795  0.3945
  148DOPC   C3817693   2.686   4.988  15.751  0.1229  0.1697 -0.1444
  148DOPC   H8X17694   2.725   5.092  15.739  0.6667  0.4180  2.9648
  148DOPC   H8Y17695   2.575   4.998  15.759  0.0631  0.3209 -1.1084
  148DOPC   C3917696   2.724   4.904  15.633 -0.1410  0.4129 -0.3459
  148DOPC   H9X17697   2.822   4.920  15.586  0.4665  0.0071  0.7614
  148DOPC  C31017698   2.654   4.816  15.568 -0.1591  0.3068  0.5460
  148DOPC  H10X17699   2.691   4.752  15.487  0.0235  1.5293 -0.3745
  148DOPC  C31117700   2.509   4.786  15.589 -0.1282  0.8756 -0.0702
  148DOPC  H11X17701   2.455   4.804  15.493 -3.0003  0.0678  1.2576
  148DOPC  H11Y17702   2.455   4.844  15.667 -2.7411  1.1513 -1.9428
  148DOPC  C31217703   2.492   4.632  15.622  0.4019  0.6251  0.3004
  148DOPC  H12X17704   2.518   4.607  15.727  0.3632 -0.5099  0.0533
  148DOPC  H12Y17705   2.568   4.580  15.560 -0.2020  1.5027 -1.2561
  148DOPC  C31317706   2.348   4.589  15.580  0.1348 -0.0459  0.0181
  148DOPC  H13X17707   2.267   4.653  15.621  0.2337 -0.1696  0.4109
  148DOPC  H13Y17708   2.338   4.590  15.469 -2.0567 -1.4286  0.1466
  148DOPC  C31417709   2.312   4.443  15.629 -0.7505 -0.8901  0.2481
  148DOPC  H14X17710   2.396   4.381  15.592 -1.1006 -1.7359  0.8442
  148DOPC  H14Y17711   2.320   4.442  15.740 -1.8568  0.9063  0.3892
  148DOPC  C31517712   2.177   4.380  15.591  0.2474 -0.8141  0.2716
  148DOPC  H15X17713   2.178   4.269  15.592  0.7704 -0.9155 -2.7444
  148DOPC  H15Y17714   2.159   4.409  15.485 -4.1129  1.2375  1.3681
  148DOPC  C31617715   2.074   4.444  15.683  0.0135 -0.0820  0.3122
  148DOPC  H16X17716   2.086   4.394  15.781 -0.2784  0.9825  0.9142
  148DOPC  H16Y17717   2.088   4.553  15.700 -1.6707 -0.0726  1.9828
  148DOPC  C31717718   1.925   4.410  15.651 -0.3146  0.0492 -0.2049
  148DOPC  H17X17719   1.887   4.455  15.556 -1.0009 -1.0632 -0.4855
  148DOPC  H17Y17720   1.924   4.299  15.642 -1.6897 -0.0962  1.2383
  148DOPC  C31817721   1.842   4.458  15.770  0.2736  0.2371  0.1880
  148DOPC  H18X17722   1.828   4.568  15.773 -1.3791  0.1221 -1.3823
  148DOPC  H18Y17723   1.740   4.414  15.770  0.5782 -0.4928  0.1250
  148DOPC  H18Z17724   1.880   4.416  15.865 -1.2679  2.0150  1.6511
  149DOPC     N17725   2.971   1.580  17.362  0.2783  0.3173 -0.1675
  149DOPC   C1217726   3.058   1.577  17.241 -0.1269  0.5515  0.2540
  149DOPC  H12A17727   3.115   1.486  17.250 -0.8499 -0.1955 -2.1068
  149DOPC  H12B17728   3.124   1.662  17.249 -0.5030  0.9065 -0.3494
  149DOPC   C1317729   3.052   1.577  17.487 -0.1464 -0.9584 -0.4662
  149DOPC  H13A17730   3.115   1.489  17.482 -1.8232 -2.2383  0.0511
  149DOPC  H13B17731   3.106   1.670  17.503 -2.2823  0.0215  1.6933
  149DOPC  H13C17732   2.983   1.573  17.570 -2.8224 -1.3181 -2.5653
  149DOPC   C1417733   2.862   1.485  17.367 -0.0893 -0.5452 -0.6007
  149DOPC  H14A17734   2.809   1.494  17.273 -0.1426  2.5720 -0.4064
  149DOPC  H14B17735   2.898   1.386  17.388  4.1724  1.2184  1.6823
  149DOPC  H14C17736   2.795   1.500  17.450 -0.1997 -0.7178 -0.6584
  149DOPC   C1517737   2.899   1.714  17.369 -0.4074 -1.0348  0.6165
  149DOPC  H15A17738   2.958   1.799  17.336 -3.8192  1.2442 -0.1970
  149DOPC  H15B17739   2.846   1.741  17.459 -3.0764 -0.3852 -1.0181
  149DOPC  H15C17740   2.829   1.720  17.286  1.1431  2.6117 -0.6372
  149DOPC   C1117741   2.987   1.577  17.105  0.3170 -0.3104 -0.4044
  149DOPC  H11A17742   2.911   1.657  17.111  0.0008 -0.7064  1.6874
  149DOPC  H11B17743   3.061   1.606  17.027 -0.8528 -0.8387 -1.7613
  149DOPC     P17744   3.024   1.341  17.015  0.6130  0.2144 -0.0608
  149DOPC   O1317745   2.947   1.240  16.936  0.3741  0.0084 -0.0628
  149DOPC   O1417746   3.092   1.283  17.128  0.1581 -0.0392  0.1161
  149DOPC   O1217747   2.919   1.458  17.069  0.2446 -0.3673  0.6557
  149DOPC   O1117748   3.126   1.426  16.924 -0.0232  0.2854 -0.6199
  149DOPC    C117749   3.075   1.467  16.801  0.7038  0.2312  0.4469
  149DOPC    HA17750   2.993   1.541  16.809  0.1015 -0.4036  0.1915
  149DOPC    HB17751   3.045   1.376  16.744  0.8936  0.2860  0.2607
  149DOPC    C217752   3.189   1.535  16.723 -0.1133 -0.0055  0.7592
  149DOPC    HS17753   3.239   1.608  16.791  1.2910 -0.2556  0.0386
  149DOPC   O2117754   3.133   1.598  16.604 -0.0146  0.2119  0.1252
  149DOPC   C2117755   3.188   1.709  16.573 -0.1390 -0.2822 -0.2426
  149DOPC   O2217756   3.243   1.789  16.647  0.0020 -0.6406 -0.9606
  149DOPC   C2217757   3.165   1.727  16.425  0.3203  0.1872  0.1657
  149DOPC   H2R17758   3.217   1.821  16.394 -1.1946  0.5515 -1.4852
  149DOPC   H2S17759   3.057   1.740  16.401  0.0431 -0.0074  1.2576
  149DOPC    C317760   3.282   1.417  16.679 -0.4699 -0.1800  0.2375
  149DOPC    HX17761   3.216   1.348  16.623  0.0160 -1.6197  1.3817
  149DOPC    HY17762   3.321   1.360  16.766  0.6640  1.6530  0.9810
  149DOPC   O3117763   3.391   1.449  16.593  0.2735  0.8184 -0.3166
  149DOPC   C3117764   3.476   1.532  16.645 -0.0280  0.0015 -0.0348
  149DOPC   O3217765   3.481   1.570  16.763  0.4981 -0.0570  0.1665
  149DOPC   C3217766   3.575   1.567  16.536  1.0766 -0.1966 -0.2578
  149DOPC   H2X17767   3.678   1.535  16.563  0.3164 -0.3137  2.8239
  149DOPC   H2Y17768   3.544   1.512  16.445 -0.5237  1.6674 -0.9095
  149DOPC   C2317769   3.230   1.614  16.336  0.0402 -0.0103  0.3946
  149DOPC   H3R17770   3.188   1.515  16.362 -1.0367  0.7444  1.6968
  149DOPC   H3S17771   3.339   1.613  16.358  0.0415  1.6391  0.6165
  149DOPC   C2417772   3.207   1.641  16.182  0.0344 -0.3320 -0.0438
  149DOPC   H4R17773   3.256   1.737  16.153  1.1419 -1.2511 -1.3700
  149DOPC   H4S17774   3.100   1.633  16.155  0.0586 -2.5782  0.3549
  149DOPC   C2517775   3.278   1.530  16.101 -0.1131  0.1004 -0.8270
  149DOPC   H5R17776   3.223   1.434  16.113  0.8655 -0.7470 -2.6585
  149DOPC   H5S17777   3.383   1.518  16.135  0.0052 -1.6176 -1.6310
  149DOPC   C2617778   3.287   1.554  15.948 -0.1568 -0.0829  0.4797
  149DOPC   H6R17779   3.332   1.471  15.889 -2.1914 -0.9827  0.0925
  149DOPC   H6S17780   3.345   1.648  15.945 -1.6348  0.9254  1.7015
  149DOPC   C2717781   3.154   1.592  15.883 -0.6702  0.5818  0.1330
  149DOPC   H7R17782   3.106   1.674  15.940 -0.5905 -0.7595  2.2139
  149DOPC   H7S17783   3.086   1.504  15.891 -0.7187  0.7828  2.4700
  149DOPC   C2817784   3.163   1.633  15.738 -0.6951  0.3265  0.7817
  149DOPC   H8R17785   3.239   1.565  15.696 -2.3345 -0.1340 -1.6155
  149DOPC   H8S17786   3.214   1.732  15.737 -0.4790  0.2120 -0.2944
  149DOPC   C2917787   3.037   1.629  15.651  0.3384  0.1369  0.1725
  149DOPC   H9R17788   2.945   1.636  15.711  1.1100  1.5540  1.2601
  149DOPC  C21017789   3.034   1.606  15.517  0.5466  0.1644  0.2844
  149DOPC  H10R17790   2.940   1.598  15.459  1.4098 -0.3933 -1.1089
  149DOPC  C21117791   3.153   1.579  15.427 -0.0933 -0.3092  0.5164
  149DOPC  H11R17792   3.244   1.611  15.482 -0.9253  2.3981  0.4775
  149DOPC  H11S17793   3.142   1.659  15.351 -1.4896 -0.9875 -0.0375
  149DOPC  C21217794   3.158   1.445  15.354  0.8126  0.2534  0.8465
  149DOPC  H12R17795   3.193   1.359  15.415  1.7776 -0.8021 -1.1228
  149DOPC  H12S17796   3.246   1.460  15.288 -0.6913  1.8888 -0.8973
  149DOPC  C21317797   3.038   1.412  15.268  0.0879 -0.7025 -0.3921
  149DOPC  H13R17798   3.009   1.510  15.225  0.2526 -0.1676  0.6786
  149DOPC  H13S17799   2.965   1.378  15.345 -0.3850  1.2940  0.0807
  149DOPC  C21417800   3.061   1.313  15.160 -0.6786 -0.5491  0.0951
  149DOPC  H14R17801   3.131   1.356  15.084  0.4975 -1.7677  0.4383
  149DOPC  H14S17802   2.970   1.296  15.099 -1.1043  0.8366  0.3124
  149DOPC  C21517803   3.112   1.177  15.208 -0.4963 -0.1416 -0.5117
  149DOPC  H15R17804   3.217   1.190  15.240 -0.4139 -1.9344  0.0545
  149DOPC  H15S17805   3.109   1.103  15.124  2.2887 -0.3780 -0.5027
  149DOPC  C21617806   3.039   1.122  15.335 -0.7937 -0.2993 -0.7711
  149DOPC  H16R17807   3.017   1.198  15.413 -0.5150  0.4659 -1.4221
  149DOPC  H16S17808   3.107   1.054  15.390 -1.1442  1.0736  1.4987
  149DOPC  C21717809   2.913   1.051  15.304 -0.2472  0.3263  0.6317
  149DOPC  H17R17810   2.943   0.965  15.241  0.1523 -1.5065  3.1394
  149DOPC  H17S17811   2.838   1.110  15.247 -0.4524 -1.0407 -0.5770
  149DOPC  C21817812   2.836   1.005  15.428  1.1017  0.1687 -0.3856
  149DOPC  H18R17813   2.773   1.093  15.453  0.8660  0.0042 -0.3956
  149DOPC  H18S17814   2.906   0.977  15.509 -1.6213 -0.1850  1.9873
  149DOPC  H18T17815   2.756   0.931  15.410  1.6327 -0.1243 -1.6629
  149DOPC   C3317816   3.586   1.724  16.517  0.0579  0.4947  0.5759
  149DOPC   H3X17817   3.626   1.766  16.612  2.0160 -0.1238  0.0804
  149DOPC   H3Y17818   3.493   1.782  16.503 -1.3242 -1.9965 -1.5275
  149DOPC   C3417819   3.672   1.765  16.404 -0.3408 -0.4945  0.0056
  149DOPC   H4X17820   3.770   1.712  16.406  0.2712  0.4070 -2.1993
  149DOPC   H4Y17821   3.692   1.875  16.408  3.2312 -0.9557 -0.9434
  149DOPC   C3517822   3.604   1.737  16.273 -0.1124  0.2142  0.3261
  149DOPC   H5X17823   3.507   1.788  16.256 -0.4708 -0.8845 -1.0432
  149DOPC   H5Y17824   3.582   1.629  16.266 -1.2364  0.5148 -1.8930
  149DOPC   C3617825   3.686   1.777  16.151  0.2065  0.8583 -0.1753
  149DOPC   H6X17826   3.675   1.886  16.137 -0.7711  0.6726 -1.0339
  149DOPC   H6Y17827   3.794   1.756  16.169 -0.2646 -0.4363  1.4043
  149DOPC   C3717828   3.639   1.714  16.020  0.4301  0.1692 -1.1236
  149DOPC   H7X17829   3.633   1.607  16.049 -0.1420  0.7267  0.9766
  149DOPC   H7Y17830   3.536   1.738  15.988  0.7800 -0.5161 -2.8547
  149DOPC   C3817831   3.713   1.735  15.891 -0.6384 -0.5186 -0.5403
  149DOPC   H8X17832   3.820   1.715  15.913 -0.5966 -0.5970 -0.8196
  149DOPC   H8Y17833   3.715   1.840  15.855  0.3555  0.3712  1.8818
  149DOPC   C3917834   3.666   1.639  15.786  0.4478  0.6158 -0.0324
  149DOPC   H9X17835   3.707   1.537  15.791 -0.5447  0.2667  1.8819
  149DOPC  C31017836   3.581   1.652  15.681  0.1308  0.6726  0.1112
  149DOPC  H10X17837   3.569   1.574  15.604  2.0681 -0.3859  0.8278
  149DOPC  C31117838   3.503   1.773  15.643  0.2465  0.0093  0.4511
  149DOPC  H11X17839   3.462   1.818  15.736 -0.0683  1.1458 -0.2130
  149DOPC  H11Y17840   3.418   1.747  15.578 -0.4442  0.0328  1.3234
  149DOPC  C31217841   3.591   1.879  15.581  0.1242  0.5077  0.0511
  149DOPC  H12X17842   3.697   1.894  15.612 -0.1144  2.7524 -0.0372
  149DOPC  H12Y17843   3.549   1.980  15.600  0.9532  0.4687  2.4233
  149DOPC  C31317844   3.598   1.867  15.431 -0.3471  0.7432  0.5399
  149DOPC  H13X17845   3.496   1.853  15.390 -0.1040  1.8825 -0.5122
  149DOPC  H13Y17846   3.623   1.961  15.378 -1.9584  1.3911  0.8870
  149DOPC  C31417847   3.691   1.752  15.380  0.5136 -0.6848 -0.0043
  149DOPC  H14X17848   3.792   1.784  15.414  0.5057  0.1976 -0.7742
  149DOPC  H14Y17849   3.656   1.652  15.412  0.4644 -0.4028  0.8385
  149DOPC  C31517850   3.684   1.744  15.227 -0.1486  0.8425  0.5720
  149DOPC  H15X17851   3.696   1.849  15.192 -1.5428  1.0289  0.6092
  149DOPC  H15Y17852   3.578   1.720  15.203 -0.1246 -0.7227  1.8692
  149DOPC  C31617853   3.790   1.646  15.159  0.2607  0.3533 -0.9943
  149DOPC  H16X17854   3.885   1.668  15.212  0.4810 -1.9505 -0.3613
  149DOPC  H16Y17855   3.758   1.548  15.200 -1.7072  2.4972  3.3130
  149DOPC  C31717856   3.789   1.667  15.012 -0.4285 -0.4479  0.4096
  149DOPC  H17X17857   3.688   1.665  14.965 -0.0594  2.4282 -0.6678
  149DOPC  H17Y17858   3.835   1.764  14.985 -0.2034 -0.9543 -1.1866
  149DOPC  C31817859   3.894   1.564  14.964 -0.5212 -0.6890  0.2083
  149DOPC  H18X17860   3.867   1.463  15.001  3.0487 -1.1750  1.8584
  149DOPC  H18Y17861   3.894   1.546  14.854  0.2083 -1.8302  0.3838
  149DOPC  H18Z17862   4.001   1.581  14.987 -1.0555  1.6900  1.1739
  150DOPC     N17863   5.434   6.003  16.728  0.1057  0.4875  0.1926
  150DOPC   C1217864   5.399   5.883  16.818  1.0441 -0.3175  0.3401
  150DOPC  H12A17865   5.346   5.816  16.752  1.0659  1.2033 -1.2970
  150DOPC  H12B17866   5.324   5.916  16.889  1.4227  2.1456 -0.3284
  150DOPC   C1317867   5.477   6.123  16.804  0.2937 -0.8090  0.3056
  150DOPC  H13A17868   5.408   6.158  16.879  0.1024  0.1415 -0.2844
  150DOPC  H13B17869   5.567   6.100  16.860  0.2340  0.2290  0.8574
  150DOPC  H13C17870   5.493   6.207  16.738 -2.2805 -0.9252 -0.5566
  150DOPC   C1417871   5.315   6.045  16.658 -0.4315 -0.2401 -0.5230
  150DOPC  H14A17872   5.242   6.087  16.726 -0.0761  0.8948 -0.8208
  150DOPC  H14B17873   5.329   6.120  16.582 -0.4806 -0.3276 -0.6199
  150DOPC  H14C17874   5.274   5.970  16.591 -0.5478  0.7578 -1.6013
  150DOPC   C1517875   5.537   5.962  16.633 -0.7557  0.0377  0.0095
  150DOPC  H15A17876   5.504   5.871  16.584 -2.7620 -0.0695  1.4223
  150DOPC  H15B17877   5.632   5.948  16.682  0.6228  0.4725 -2.3485
  150DOPC  H15C17878   5.548   6.038  16.557 -1.0178 -0.2948 -0.3626
  150DOPC   C1117879   5.519   5.817  16.882 -0.5739  0.1011  0.0271
  150DOPC  H11A17880   5.592   5.895  16.911  0.4073 -0.7321 -0.1169
  150DOPC  H11B17881   5.485   5.761  16.972 -0.0910 -1.8139 -0.9264
  150DOPC     P17882   5.518   5.588  16.757 -0.1342  0.2269 -0.5341
  150DOPC   O1317883   5.377   5.595  16.714 -0.1811 -0.6479  0.5853
  150DOPC   O1417884   5.540   5.498  16.869 -0.1241 -0.6098  0.3260
  150DOPC   O1217885   5.581   5.725  16.795 -0.1108  0.4002 -0.2357
  150DOPC   O1117886   5.602   5.540  16.628 -0.3585 -0.0615 -0.6397
  150DOPC    C117887   5.724   5.482  16.659 -0.0242 -0.5629 -0.5610
  150DOPC    HA17888   5.719   5.398  16.732 -1.1941  1.4997  1.8690
  150DOPC    HB17889   5.787   5.563  16.701 -1.7723  2.2551 -2.9988
  150DOPC    C217890   5.796   5.434  16.534 -0.7310 -0.4088 -0.1944
  150DOPC    HS17891   5.800   5.521  16.465 -0.9308  0.3220  0.6887
  150DOPC   O2117892   5.727   5.330  16.476  0.2006  0.1139  0.2481
  150DOPC   C2117893   5.642   5.357  16.379 -0.2496  0.5895  0.1564
  150DOPC   O2217894   5.624   5.461  16.318 -0.3595 -0.1502  0.1197
  150DOPC   C2217895   5.542   5.243  16.370  0.0996  0.3758 -0.6577
  150DOPC   H2R17896   5.445   5.286  16.338  0.3352  0.9770 -0.5886
  150DOPC   H2S17897   5.518   5.197  16.468 -0.2332  1.0946 -0.3912
  150DOPC    C317898   5.941   5.390  16.571 -0.5946  0.0007  0.1574
  150DOPC    HX17899   5.926   5.295  16.625  1.6723 -0.5911 -0.1316
  150DOPC    HY17900   6.000   5.465  16.627 -2.0006 -0.1432  1.8948
  150DOPC   O3117901   6.011   5.358  16.443 -0.3686 -0.5752  0.1482
  150DOPC   C3117902   6.131   5.299  16.463  0.2854  0.0330 -0.3712
  150DOPC   O3217903   6.170   5.264  16.574 -0.1349  0.0920  0.2350
  150DOPC   C3217904   6.214   5.282  16.333  0.4444  0.1401  0.4920
  150DOPC   H2X17905   6.145   5.277  16.245 -0.0487  0.0961  0.8763
  150DOPC   H2Y17906   6.265   5.381  16.336 -2.5280  1.7893  0.2345
  150DOPC   C2317907   5.581   5.127  16.270  1.1706  0.8046 -0.0326
  150DOPC   H3R17908   5.497   5.056  16.290  0.6854  0.7186 -2.1418
  150DOPC   H3S17909   5.680   5.086  16.299  1.4495  0.7391 -1.0599
  150DOPC   C2417910   5.579   5.160  16.119  0.4062 -0.8501 -1.0609
  150DOPC   H4R17911   5.650   5.094  16.065  2.7540 -0.3878  1.2351
  150DOPC   H4S17912   5.637   5.254  16.109  2.0684 -1.4244  1.8908
  150DOPC   C2517913   5.440   5.165  16.056  0.4306 -0.0956  0.4221
  150DOPC   H5R17914   5.377   5.253  16.082 -0.2882 -0.0449 -1.3306
  150DOPC   H5S17915   5.379   5.074  16.076  0.8700 -0.2980  0.8520
  150DOPC   C2617916   5.440   5.151  15.900  0.6909 -0.0902 -0.4745
  150DOPC   H6R17917   5.338   5.122  15.867  1.0814 -2.2143  0.0242
  150DOPC   H6S17918   5.510   5.069  15.872  1.9756  0.4114  1.1706
  150DOPC   C2717919   5.470   5.283  15.823  0.6468  0.2675 -0.0945
  150DOPC   H7R17920   5.569   5.327  15.848 -0.3370  1.4582  2.0289
  150DOPC   H7S17921   5.403   5.368  15.850 -1.7315 -1.1753 -1.1509
  150DOPC   C2817922   5.461   5.242  15.672 -0.0071 -0.0929  0.2950
  150DOPC   H8R17923   5.352   5.234  15.648 -0.5734  0.6511  2.4411
  150DOPC   H8S17924   5.496   5.138  15.654 -1.6044 -0.4643 -0.9821
  150DOPC   C2917925   5.525   5.343  15.579  0.2681  0.4165 -0.2162
  150DOPC   H9R17926   5.630   5.374  15.592 -0.0516  2.0428 -1.2532
  150DOPC  C21017927   5.475   5.379  15.460 -1.0621 -0.5276  0.2805
  150DOPC  H10R17928   5.543   5.446  15.406 -2.0962  0.0675 -0.3242
  150DOPC  C21117929   5.353   5.341  15.389 -0.2445 -0.2620 -0.6900
  150DOPC  H11R17930   5.274   5.311  15.462  0.4725  0.6760  0.4969
  150DOPC  H11S17931   5.363   5.257  15.317 -1.4296 -0.6173 -0.4746
  150DOPC  C21217932   5.282   5.460  15.321 -0.3888  0.2617  0.4373
  150DOPC  H12R17933   5.270   5.548  15.388 -1.2487  0.1950  0.3816
  150DOPC  H12S17934   5.182   5.431  15.282  0.0735  0.4044 -0.8958
  150DOPC  C21317935   5.361   5.515  15.195  0.5688 -0.9373  0.4264
  150DOPC  H13R17936   5.385   5.441  15.116  0.4151  2.7862 -3.4625
  150DOPC  H13S17937   5.456   5.560  15.230 -0.2327 -0.4172  2.0719
  150DOPC  C21417938   5.272   5.620  15.125 -0.1944  0.5806  0.8678
  150DOPC  H14R17939   5.233   5.700  15.191  0.7302  2.0866 -0.3269
  150DOPC  H14S17940   5.187   5.577  15.068  1.0278 -0.6200 -0.1132
  150DOPC  C21517941   5.360   5.680  15.009  0.2432 -0.0191  0.3457
  150DOPC  H15R17942   5.433   5.616  14.956 -3.4843 -2.4516 -2.4224
  150DOPC  H15S17943   5.408   5.770  15.054 -1.0473  1.0971 -0.3859
  150DOPC  C21617944   5.258   5.739  14.896  0.1551  0.1157 -0.1201
  150DOPC  H16R17945   5.184   5.800  14.951 -2.3637 -1.9502 -1.0320
  150DOPC  H16S17946   5.193   5.657  14.861 -0.4637  0.6057 -0.1255
  150DOPC  C21717947   5.330   5.814  14.781  0.3986  0.1597 -0.7842
  150DOPC  H17R17948   5.365   5.726  14.723  0.2195 -0.7865  0.4800
  150DOPC  H17S17949   5.412   5.882  14.814 -0.4295  1.4459 -1.3224
  150DOPC  C21817950   5.237   5.908  14.704 -0.0735  0.2190  0.1526
  150DOPC  H18R17951   5.149   5.848  14.673  1.1366 -0.8867 -1.2718
  150DOPC  H18S17952   5.292   5.941  14.613  0.0016 -0.9078 -0.2288
  150DOPC  H18T17953   5.208   6.003  14.755  1.1170 -0.4349  2.1699
  150DOPC   C3317954   6.313   5.166  16.321  0.4105 -0.7655  0.0741
  150DOPC   H3X17955   6.269   5.065  16.335  1.8029 -1.3113  0.6520
  150DOPC   H3Y17956   6.382   5.182  16.407 -0.4664 -0.4272  0.7293
  150DOPC   C3417957   6.393   5.177  16.193 -0.1155  0.4760  0.0486
  150DOPC   H4X17958   6.444   5.276  16.201 -0.1572  0.3744  2.5296
  150DOPC   H4Y17959   6.327   5.161  16.105  1.2578  0.8156 -1.0805
  150DOPC   C3517960   6.501   5.057  16.201 -0.4166 -0.4541  0.3903
  150DOPC   H5X17961   6.458   4.958  16.228  0.6646 -1.0829 -0.1022
  150DOPC   H5Y17962   6.563   5.102  16.281 -1.8646 -0.8866  1.8014
  150DOPC   C3617963   6.591   5.040  16.077  0.0566 -0.1459  0.6950
  150DOPC   H6X17964   6.544   4.970  16.005 -0.4469  0.4437  0.4400
  150DOPC   H6Y17965   6.581   5.140  16.029 -0.3546  0.6342  2.3626
  150DOPC   C3717966   6.739   5.018  16.102 -0.3678 -0.5241  0.2173
  150DOPC   H7X17967   6.786   5.080  16.182 -0.3297 -1.6835  1.1280
  150DOPC   H7Y17968   6.745   4.913  16.140  0.0124 -0.0686  1.4852
  150DOPC   C3817969   6.812   5.022  15.968  0.5895  0.1202 -0.7724
  150DOPC   H8X17970   6.750   4.976  15.888  3.1617 -0.2259 -2.6883
  150DOPC   H8Y17971   6.905   4.964  15.988 -0.7805 -1.4992  1.3020
  150DOPC   C3917972   6.842   5.171  15.942 -0.0451  0.4104  0.4623
  150DOPC   H9X17973   6.925   5.209  16.004  0.8150 -1.2743  0.4047
  150DOPC  C31017974   6.792   5.247  15.851 -0.1833  0.2477 -0.0762
  150DOPC  H10X17975   6.824   5.352  15.855  0.4378  0.0422  0.7155
  150DOPC  C31117976   6.689   5.216  15.745  0.2024 -0.1818  0.2853
  150DOPC  H11X17977   6.642   5.117  15.761  0.3201 -0.2348  0.3086
  150DOPC  H11Y17978   6.734   5.205  15.644 -1.8627  0.5469 -0.7680
  150DOPC  C31217979   6.582   5.326  15.735  0.7622 -0.0908 -0.2446
  150DOPC  H12X17980   6.516   5.297  15.651 -4.1772  1.0911  2.8102
  150DOPC  H12Y17981   6.624   5.427  15.715 -0.0248 -0.1381 -2.3621
  150DOPC  C31317982   6.499   5.331  15.859 -0.2254 -0.3151 -0.1382
  150DOPC  H13X17983   6.463   5.229  15.885  2.0141 -1.7694 -2.2712
  150DOPC  H13Y17984   6.549   5.369  15.951  0.5661  0.9607 -1.0511
  150DOPC  C31417985   6.378   5.415  15.832  0.6372  0.3199 -0.4459
  150DOPC  H14X17986   6.418   5.509  15.789 -1.0918  0.9044 -0.8357
  150DOPC  H14Y17987   6.308   5.368  15.760  1.0129  0.3369 -0.8249
  150DOPC  C31517988   6.296   5.455  15.958  0.5173  0.0001 -0.9704
  150DOPC  H15X17989   6.370   5.501  16.027  2.7003 -1.4919 -2.2415
  150DOPC  H15Y17990   6.261   5.360  16.003  0.9464  0.1310 -0.3427
  150DOPC  C31617991   6.184   5.548  15.920  0.3064 -0.6179 -0.3718
  150DOPC  H16X17992   6.234   5.644  15.897  0.7755  0.0438  2.9829
  150DOPC  H16Y17993   6.140   5.503  15.828  2.1309 -2.8780 -0.2176
  150DOPC  C31717994   6.087   5.569  16.033  0.2079  0.6966  0.1758
  150DOPC  H17X17995   6.136   5.621  16.118  0.8583  1.7546 -0.8117
  150DOPC  H17Y17996   6.013   5.647  16.003 -1.2191 -0.5311  0.3632
  150DOPC  C31817997   6.003   5.451  16.077  0.1829 -0.4262 -0.0150
  150DOPC  H18X17998   5.965   5.475  16.179 -0.7898 -0.7268 -0.2984
  150DOPC  H18Y17999   5.923   5.430  16.002 -0.3457 -1.3932  0.7879
  150DOPC  H18Z18000   6.056   5.353  16.085  3.1528  0.8752 -1.8920
  151DOPC     N18001   1.252   3.263  16.894 -0.4915 -0.2575  0.6580
  151DOPC   C1218002   1.139   3.185  16.824 -0.2261 -0.7064 -0.0292
  151DOPC  H12A18003   1.057   3.254  16.813  1.3230  1.0012 -1.9021
  151DOPC  H12B18004   1.122   3.103  16.891  1.9319 -2.0495 -0.9889
  151DOPC   C1318005   1.316   3.379  16.809 -0.2064  0.1886  0.2262
  151DOPC  H13A18006   1.245   3.458  16.786 -1.0907 -0.6807 -0.0790
  151DOPC  H13B18007   1.396   3.417  16.870  0.0288 -0.9220  0.6336
  151DOPC  H13C18008   1.359   3.340  16.718  1.4154 -2.6466  2.0633
  151DOPC   C1418009   1.364   3.167  16.923  0.0855  0.0285 -0.3136
  151DOPC  H14A18010   1.397   3.122  16.831  0.0914  0.0279 -0.3100
  151DOPC  H14B18011   1.442   3.227  16.968 -1.3212  1.5171  0.2520
  151DOPC  H14C18012   1.327   3.087  16.986 -1.9627  1.0564 -0.1121
  151DOPC   C1518013   1.197   3.328  17.017 -0.0416  0.2551 -0.1205
  151DOPC  H15A18014   1.275   3.379  17.073 -0.4879 -1.2406  1.9938
  151DOPC  H15B18015   1.175   3.246  17.084  1.9421 -0.6793 -0.5554
  151DOPC  H15C18016   1.115   3.396  16.999 -0.4595  0.2268  1.4780
  151DOPC   C1118017   1.156   3.120  16.685 -0.2656  0.2313 -1.2027
  151DOPC  H11A18018   1.061   3.070  16.658 -0.0175 -0.9190 -0.0636
  151DOPC  H11B18019   1.172   3.197  16.606 -0.5087  0.4182 -1.0679
  151DOPC     P18020   1.253   2.886  16.759 -0.1691  0.2294 -0.4201
  151DOPC   O1318021   1.129   2.884  16.841  0.2572  0.6441 -0.1870
  151DOPC   O1418022   1.379   2.870  16.840 -0.1070 -0.0534  0.0632
  151DOPC   O1218023   1.263   3.025  16.675  0.1130  0.6715 -0.1329
  151DOPC   O1118024   1.245   2.785  16.637 -0.0360 -0.6196 -0.1308
  151DOPC    C118025   1.298   2.819  16.499 -0.9847 -0.8059  0.1590
  151DOPC    HA18026   1.265   2.922  16.471 -1.0329 -0.8769 -0.0429
  151DOPC    HB18027   1.252   2.746  16.429  1.0815 -1.0655 -1.0067
  151DOPC    C218028   1.450   2.807  16.481  0.3658 -0.2741  0.4224
  151DOPC    HS18029   1.497   2.898  16.525  1.6497 -0.9450  0.4822
  151DOPC   O2118030   1.481   2.794  16.345  0.2459  0.0165 -0.3270
  151DOPC   C2118031   1.601   2.828  16.303  0.0574  0.3345  0.1685
  151DOPC   O2218032   1.690   2.875  16.373 -0.3169 -0.1899  0.8227
  151DOPC   C2218033   1.592   2.843  16.149  0.4731  0.2720 -0.6255
  151DOPC   H2R18034   1.574   2.949  16.120 -0.7944 -0.1510 -1.4488
  151DOPC   H2S18035   1.517   2.775  16.103  0.5836  0.6318 -1.3474
  151DOPC    C318036   1.509   2.699  16.569 -0.4657  0.4004  0.6350
  151DOPC    HX18037   1.484   2.730  16.673  0.0991 -1.8585  1.5148
  151DOPC    HY18038   1.620   2.699  16.558 -0.5904  1.6446 -1.0532
  151DOPC   O3118039   1.450   2.568  16.541 -0.1652 -0.1478  0.2936
  151DOPC   C3118040   1.526   2.492  16.457  0.0368  0.2051 -0.3639
  151DOPC   O3218041   1.634   2.526  16.408 -0.0898  0.0103 -0.2625
  151DOPC   C3218042   1.449   2.369  16.414 -0.1387  0.2534  0.1817
  151DOPC   H2X18043   1.533   2.304  16.382 -0.4561 -1.4839  2.5615
  151DOPC   H2Y18044   1.380   2.347  16.499  1.3770  1.4851  1.8340
  151DOPC   C2318045   1.730   2.809  16.080  0.4984  0.7459  0.1447
  151DOPC   H3R18046   1.812   2.870  16.124  1.0928 -0.6703  1.0291
  151DOPC   H3S18047   1.725   2.835  15.972  1.4286 -0.7976 -0.2964
  151DOPC   C2418048   1.763   2.656  16.078  0.2269 -1.1202  0.8282
  151DOPC   H4R18049   1.702   2.608  15.999 -0.0325  2.0949 -1.0898
  151DOPC   H4S18050   1.729   2.609  16.173 -1.6292  0.3600  0.9545
  151DOPC   C2518051   1.916   2.621  16.064 -0.2840  0.2680  1.0591
  151DOPC   H5R18052   1.976   2.670  16.143  0.3976 -1.3584  1.6126
  151DOPC   H5S18053   1.954   2.666  15.970  0.0225 -2.3255 -0.1521
  151DOPC   C2618054   1.951   2.464  16.064  0.7888 -0.4772 -0.0633
  151DOPC   H6R18055   1.896   2.425  16.152 -3.5468  2.6423 -1.0551
  151DOPC   H6S18056   2.061   2.449  16.063  0.7913 -0.4925 -1.3720
  151DOPC   C2718057   1.907   2.389  15.938  0.0499  0.0152 -0.0801
  151DOPC   H7R18058   1.976   2.397  15.851 -0.2185  3.2490 -0.1121
  151DOPC   H7S18059   1.823   2.450  15.899  0.4170  1.1226  0.7979
  151DOPC   C2818060   1.866   2.245  15.968  0.0327 -0.1019 -0.6684
  151DOPC   H8R18061   1.808   2.210  15.880 -0.0845 -1.8263  0.0557
  151DOPC   H8S18062   1.818   2.244  16.068  1.6804 -1.1428  0.1527
  151DOPC   C2918063   1.990   2.155  15.984 -0.1128 -0.6907  0.4177
  151DOPC   H9R18064   2.007   2.125  16.088  1.5933 -0.8231  0.1392
  151DOPC  C21018065   2.082   2.109  15.894  0.4174 -0.1717  0.2440
  151DOPC  H10R18066   2.172   2.058  15.930  0.3698 -0.9587 -0.6964
  151DOPC  C21118067   2.085   2.138  15.742  0.4112 -0.0773 -0.5460
  151DOPC  H11R18068   2.026   2.231  15.730  0.0813 -0.4647 -2.1947
  151DOPC  H11S18069   2.044   2.054  15.681  0.1239  0.7888 -1.5682
  151DOPC  C21218070   2.236   2.156  15.687  0.2519 -0.2787  0.2336
  151DOPC  H12R18071   2.305   2.074  15.716  0.6161 -0.2888 -0.6477
  151DOPC  H12S18072   2.269   2.251  15.734  0.4020  0.2158 -0.8450
  151DOPC  C21318073   2.235   2.157  15.534  0.3569  0.3531  0.0449
  151DOPC  H13R18074   2.188   2.062  15.499 -0.1063 -0.6830  3.1140
  151DOPC  H13S18075   2.341   2.161  15.503  0.8164  1.8795  1.6383
  151DOPC  C21418076   2.148   2.276  15.479  0.3047 -0.3297  0.0319
  151DOPC  H14R18077   2.165   2.374  15.529  1.3951  0.3710 -1.6450
  151DOPC  H14S18078   2.040   2.251  15.476  0.3427 -0.4163 -0.6754
  151DOPC  C21518079   2.170   2.296  15.326  0.2288 -0.1638  0.0023
  151DOPC  H15R18080   2.115   2.205  15.293  0.5993  0.4764 -2.6402
  151DOPC  H15S18081   2.277   2.285  15.300  0.5474  0.4578  0.9973
  151DOPC  C21618082   2.089   2.406  15.266  1.2470 -0.6978  0.2749
  151DOPC  H16R18083   2.129   2.505  15.298  0.2857  0.6903 -2.4409
  151DOPC  H16S18084   1.985   2.406  15.305  1.6561  1.6332  1.5643
  151DOPC  C21718085   2.094   2.412  15.109 -0.1492  0.0900  0.5692
  151DOPC  H17R18086   2.203   2.425  15.095  0.5426 -3.0536  2.0139
  151DOPC  H17S18087   2.037   2.493  15.058 -0.8529 -1.0891 -0.5765
  151DOPC  C21818088   2.047   2.280  15.039  0.0762 -1.0251  0.9891
  151DOPC  H18R18089   2.033   2.306  14.932  0.6317 -0.4888  1.0435
  151DOPC  H18S18090   1.944   2.258  15.075 -0.8602  0.6806 -0.4862
  151DOPC  H18T18091   2.114   2.194  15.061  0.9114  0.2036  3.8020
  151DOPC   C3318092   1.357   2.406  16.290 -0.0025  0.0318 -0.8648
  151DOPC   H3X18093   1.276   2.472  16.327 -2.0590 -2.5836 -0.3596
  151DOPC   H3Y18094   1.300   2.319  16.252  0.6702 -0.7394 -0.1865
  151DOPC   C3418095   1.443   2.457  16.173  0.3875  0.2351  0.4481
  151DOPC   H4X18096   1.513   2.378  16.138 -0.4529 -0.0660 -0.6015
  151DOPC   H4Y18097   1.487   2.556  16.195  0.4636 -0.1042  1.8772
  151DOPC   C3518098   1.342   2.482  16.055 -0.3052 -0.1181  0.2113
  151DOPC   H5X18099   1.281   2.570  16.084 -0.3278  0.1338 -0.5596
  151DOPC   H5Y18100   1.270   2.397  16.056  0.3774 -0.7023  0.1127
  151DOPC   C3618101   1.395   2.503  15.921 -0.1316  0.2254  0.7537
  151DOPC   H6X18102   1.482   2.571  15.933  0.2225  0.1097 -0.9537
  151DOPC   H6Y18103   1.444   2.406  15.897 -1.5071 -0.2195 -0.3882
  151DOPC   C3718104   1.287   2.544  15.832  0.3694 -0.9603 -0.3378
  151DOPC   H7X18105   1.289   2.483  15.739  1.2105 -0.7924 -0.4424
  151DOPC   H7Y18106   1.188   2.513  15.872  0.0550 -2.0011 -1.8430
  151DOPC   C3818107   1.289   2.695  15.802  0.0667 -0.2748  0.5667
  151DOPC   H8X18108   1.327   2.756  15.887  1.8760 -0.5272 -0.0271
  151DOPC   H8Y18109   1.183   2.723  15.783 -0.3978  0.3791  3.6776
  151DOPC   C3918110   1.380   2.727  15.688 -0.0670 -0.3201  0.0244
  151DOPC   H9X18111   1.487   2.729  15.714 -0.3113  0.6223  1.0078
  151DOPC  C31018112   1.343   2.713  15.558 -0.7545 -0.1139 -0.2127
  151DOPC  H10X18113   1.405   2.765  15.483 -1.9317  0.9495 -0.4892
  151DOPC  C31118114   1.208   2.672  15.504  0.0185  0.7552  0.2347
  151DOPC  H11X18115   1.152   2.759  15.463  1.4914  1.5020 -0.2414
  151DOPC  H11Y18116   1.153   2.614  15.582 -1.0946 -2.6769 -2.8569
  151DOPC  C31218117   1.232   2.583  15.380 -0.6656 -0.2896  0.6820
  151DOPC  H12X18118   1.276   2.648  15.302  0.4639 -2.0544 -0.2288
  151DOPC  H12Y18119   1.137   2.539  15.341  0.5969 -3.1137  0.5029
  151DOPC  C31318120   1.335   2.466  15.398  0.0559 -0.8793 -0.2985
  151DOPC  H13X18121   1.435   2.508  15.422  0.2370  1.2084 -3.9987
  151DOPC  H13Y18122   1.294   2.419  15.489 -0.7574  1.7382  0.7870
  151DOPC  C31418123   1.350   2.375  15.273 -0.1600 -0.7076  0.1413
  151DOPC  H14X18124   1.405   2.282  15.299 -0.1732 -0.3153  1.6886
  151DOPC  H14Y18125   1.254   2.335  15.233  0.2431 -0.7835 -0.7919
  151DOPC  C31518126   1.403   2.456  15.155  0.4185 -0.1630  0.0996
  151DOPC  H15X18127   1.494   2.511  15.187  0.0391  1.1719 -1.0345
  151DOPC  H15Y18128   1.333   2.530  15.111  1.7421  1.0762 -0.0081
  151DOPC  C31618129   1.438   2.367  15.038  0.1371  0.1315 -1.2009
  151DOPC  H16X18130   1.529   2.308  15.062 -0.3756 -0.6711 -1.1713
  151DOPC  H16Y18131   1.361   2.288  15.023  0.2482 -0.0349 -0.8987
  151DOPC  C31718132   1.455   2.438  14.900  0.1322 -0.7707  0.0537
  151DOPC  H17X18133   1.359   2.490  14.877  0.4553  0.6417  1.6878
  151DOPC  H17Y18134   1.524   2.522  14.920 -0.6993 -0.0256 -0.1418
  151DOPC  C31818135   1.508   2.343  14.799 -0.6611  0.1078  0.1679
  151DOPC  H18X18136   1.618   2.339  14.807 -0.6889  0.8788  1.1950
  151DOPC  H18Y18137   1.473   2.240  14.821 -2.9959  0.0749 -2.9033
  151DOPC  H18Z18138   1.474   2.366  14.696  1.5740 -0.5192 -0.7617
  152DOPC     N18139   4.640   0.400  17.312  0.3824 -0.1266  0.0271
  152DOPC   C1218140   4.689   0.380  17.166 -0.3043  1.2747  0.0557
  152DOPC  H12A18141   4.642   0.290  17.129  2.2374 -0.4512  0.7381
  152DOPC  H12B18142   4.794   0.355  17.166 -0.5402  0.2491  0.0924
  152DOPC   C1318143   4.701   0.300  17.403 -0.3630 -0.0557  0.1467
  152DOPC  H13A18144   4.673   0.309  17.507  0.7941 -0.9538  0.5711
  152DOPC  H13B18145   4.681   0.198  17.376  1.1385  0.1526 -2.0240
  152DOPC  H13C18146   4.809   0.311  17.412 -0.7088  2.3547  2.6421
  152DOPC   C1418147   4.493   0.388  17.325  0.1605  0.0917  0.1416
  152DOPC  H14A18148   4.473   0.402  17.430  1.4187 -0.2553  0.4527
  152DOPC  H14B18149   4.440   0.450  17.255 -0.8246 -0.1820  0.6380
  152DOPC  H14C18150   4.478   0.290  17.284 -0.8113 -0.1263  0.9933
  152DOPC   C1518151   4.679   0.537  17.372 -0.3372 -0.6148 -0.1131
  152DOPC  H15A18152   4.777   0.531  17.416 -0.5922  0.3522  0.6233
  152DOPC  H15B18153   4.606   0.560  17.448 -0.2618  0.4339 -0.3442
  152DOPC  H15C18154   4.664   0.608  17.292 -1.5325 -0.4095  0.2680
  152DOPC   C1118155   4.667   0.486  17.054  0.6575 -0.5451 -0.3621
  152DOPC  H11A18156   4.707   0.584  17.086 -0.4404 -0.0779 -0.3811
  152DOPC  H11B18157   4.724   0.456  16.963  1.6367  0.5572 -0.1243
  152DOPC     P18158   4.447   0.391  16.936 -0.4124  0.2896 -0.2248
  152DOPC   O1318159   4.306   0.431  16.943 -0.4703  0.2833 -0.1274
  152DOPC   O1418160   4.477   0.252  16.981 -0.5470 -0.2613 -0.0108
  152DOPC   O1218161   4.523   0.498  17.027  0.6544 -0.0674  0.0199
  152DOPC   O1118162   4.499   0.410  16.792 -0.5735  0.3673  0.2816
  152DOPC    C118163   4.528   0.543  16.732  0.3340 -0.2710 -0.2641
  152DOPC    HA18164   4.613   0.537  16.660  1.3558  0.4631  0.8351
  152DOPC    HB18165   4.545   0.618  16.812 -2.1471 -2.1868  2.2487
  152DOPC    C218166   4.414   0.594  16.635  0.1391 -0.5855  0.0092
  152DOPC    HS18167   4.312   0.578  16.678  0.7750 -1.5078  1.2282
  152DOPC   O2118168   4.422   0.517  16.511 -0.2050  0.7352 -0.4147
  152DOPC   C2118169   4.323   0.534  16.434 -0.2831 -0.3525  0.4084
  152DOPC   O2218170   4.230   0.612  16.450  0.0618  0.4927  0.5241
  152DOPC   C2218171   4.336   0.435  16.317  0.7877  0.2842 -0.4716
  152DOPC   H2R18172   4.234   0.411  16.280 -0.7036 -0.5649  3.7106
  152DOPC   H2S18173   4.363   0.333  16.352 -3.0003 -0.2343  1.3846
  152DOPC    C318174   4.439   0.747  16.614  0.8449 -0.0359  0.4524
  152DOPC    HX18175   4.421   0.791  16.715 -1.8491  1.6494 -0.6470
  152DOPC    HY18176   4.357   0.785  16.549  0.9791  0.2146  0.4272
  152DOPC   O3118177   4.573   0.784  16.566 -0.0776 -0.2706 -0.1425
  152DOPC   C3118178   4.557   0.912  16.524  0.5214 -0.6043  0.1480
  152DOPC   O3218179   4.460   0.979  16.549 -0.1024 -0.3477 -0.5443
  152DOPC   C3218180   4.675   0.957  16.443 -0.5329  0.7591  0.7400
  152DOPC   H2X18181   4.698   1.054  16.493  2.4598 -0.5186  2.0500
  152DOPC   H2Y18182   4.765   0.894  16.459  0.5574  1.9605 -0.3770
  152DOPC   C2318183   4.445   0.475  16.211 -0.1383  0.1923 -0.5250
  152DOPC   H3R18184   4.542   0.467  16.266 -0.6845  0.3232  0.4716
  152DOPC   H3S18185   4.421   0.577  16.173 -2.1475 -0.1140 -0.1533
  152DOPC   C2418186   4.446   0.383  16.091 -0.2256  0.2614  0.2080
  152DOPC   H4R18187   4.356   0.415  16.035  1.6417  0.6213 -2.8024
  152DOPC   H4S18188   4.436   0.273  16.097 -2.6033  0.2613 -2.2012
  152DOPC   C2518189   4.556   0.414  15.993  0.1165 -0.0855  0.3650
  152DOPC   H5R18190   4.648   0.356  16.014  1.3003  1.2616 -0.8845
  152DOPC   H5S18191   4.579   0.521  16.012 -1.2532  0.0097  1.7242
  152DOPC   C2618192   4.515   0.397  15.845  0.0724  0.1731  0.2635
  152DOPC   H6R18193   4.434   0.470  15.823  1.0327  0.8368 -1.2419
  152DOPC   H6S18194   4.465   0.300  15.826 -1.1495  0.3687  2.1856
  152DOPC   C2718195   4.636   0.405  15.751 -0.7587  0.0449 -0.5796
  152DOPC   H7R18196   4.614   0.392  15.643  1.9003 -1.0889 -1.0534
  152DOPC   H7S18197   4.700   0.324  15.791 -1.8776  0.1019  1.4707
  152DOPC   C2818198   4.723   0.533  15.769  0.7460 -0.6418  0.3735
  152DOPC   H8R18199   4.821   0.513  15.720  0.4915 -4.0981  1.0112
  152DOPC   H8S18200   4.735   0.554  15.878  1.5656 -0.5305  0.2663
  152DOPC   C2918201   4.648   0.649  15.703  0.7382  0.0725 -0.2273
  152DOPC   H9R18202   4.539   0.650  15.718  0.8621 -1.8063  1.2383
  152DOPC  C21018203   4.692   0.743  15.618  0.0301  0.2894 -0.9013
  152DOPC  H10R18204   4.620   0.816  15.580  0.8600  1.2694 -0.6282
  152DOPC  C21118205   4.829   0.759  15.567 -0.2505 -0.5099 -0.0744
  152DOPC  H11R18206   4.902   0.693  15.619  0.7978  0.5386 -0.1913
  152DOPC  H11S18207   4.873   0.861  15.562 -0.9967 -0.2479 -2.4811
  152DOPC  C21218208   4.831   0.725  15.413 -0.1450 -0.2293 -1.0269
  152DOPC  H12R18209   4.927   0.760  15.371  1.3339 -2.2701  0.4653
  152DOPC  H12S18210   4.754   0.789  15.363 -0.4477  0.6612  0.5162
  152DOPC  C21318211   4.814   0.577  15.369  0.4407 -0.1148 -0.2942
  152DOPC  H13R18212   4.723   0.539  15.420  1.4556 -0.5309  1.2423
  152DOPC  H13S18213   4.894   0.510  15.407 -1.9446 -2.6482  0.6317
  152DOPC  C21418214   4.814   0.557  15.216  0.5318  0.0685  0.3189
  152DOPC  H14R18215   4.819   0.447  15.209  1.4529  0.0556  0.9163
  152DOPC  H14S18216   4.905   0.599  15.166  0.2434 -0.9144 -1.0785
  152DOPC  C21518217   4.683   0.617  15.158 -0.2980 -0.1162  0.4550
  152DOPC  H15R18218   4.677   0.728  15.161 -0.8819 -0.0290 -1.6652
  152DOPC  H15S18219   4.592   0.574  15.204 -1.5038  2.2207  0.3931
  152DOPC  C21618220   4.683   0.576  15.009 -0.3247 -0.7131  0.6016
  152DOPC  H16R18221   4.641   0.477  14.982  1.3829 -0.9843 -1.3943
  152DOPC  H16S18222   4.787   0.591  14.973 -0.5931  1.6624  0.6122
  152DOPC  C21718223   4.593   0.670  14.929 -0.0771 -0.1916  0.3173
  152DOPC  H17R18224   4.632   0.772  14.949  0.7126 -0.5124  0.4695
  152DOPC  H17S18225   4.489   0.664  14.966 -0.7562  0.8205 -1.2792
  152DOPC  C21818226   4.594   0.628  14.785 -0.2685 -0.4091  0.1535
  152DOPC  H18R18227   4.579   0.706  14.708 -0.6247 -1.7703 -1.2250
  152DOPC  H18S18228   4.522   0.543  14.773 -0.5212 -0.2736  0.6875
  152DOPC  H18T18229   4.691   0.576  14.769  1.3604  2.5049 -0.0730
  152DOPC   C3318230   4.648   0.983  16.287 -0.0373  0.0225  0.3412
  152DOPC   H3X18231   4.737   1.028  16.238 -0.9722  0.7153 -0.7807
  152DOPC   H3Y18232   4.558   1.044  16.262 -0.8561 -1.6992 -1.1061
  152DOPC   C3418233   4.630   0.856  16.201 -0.5079  0.0937 -0.9538
  152DOPC   H4X18234   4.601   0.769  16.263  0.3390 -0.4693 -1.3414
  152DOPC   H4Y18235   4.733   0.838  16.164  0.1471  0.0233  0.8286
  152DOPC   C3518236   4.535   0.852  16.079 -0.0762  0.5762 -0.6222
  152DOPC   H5X18237   4.430   0.855  16.115 -0.4599 -2.4100 -1.2543
  152DOPC   H5Y18238   4.548   0.756  16.025 -0.9015 -0.4426  0.8902
  152DOPC   C3618239   4.558   0.962  15.967 -0.0293 -0.2072 -0.2101
  152DOPC   H6X18240   4.480   0.939  15.891 -0.7928 -1.0158  0.7917
  152DOPC   H6Y18241   4.527   1.055  16.020  0.3032 -0.6051  0.7037
  152DOPC   C3718242   4.703   0.969  15.926  0.5674 -0.3139 -0.1764
  152DOPC   H7X18243   4.768   1.013  16.005  0.2361  1.3808 -0.7999
  152DOPC   H7Y18244   4.738   0.866  15.902  1.3114  0.0566 -0.7273
  152DOPC   C3818245   4.718   1.048  15.797  0.0081 -0.1375  1.4241
  152DOPC   H8X18246   4.666   0.996  15.714 -0.5588  1.5834  0.6610
  152DOPC   H8Y18247   4.822   1.030  15.763 -0.6169 -0.7676 -0.2825
  152DOPC   C3918248   4.685   1.192  15.790  0.7700 -0.3646  0.6311
  152DOPC   H9X18249   4.736   1.254  15.865  0.3112 -1.1570  1.6206
  152DOPC  C31018250   4.591   1.255  15.723  0.1884 -0.3425 -0.2619
  152DOPC  H10X18251   4.584   1.364  15.739  0.9849 -0.2725 -0.3686
  152DOPC  C31118252   4.489   1.197  15.636  0.3023 -0.3722  0.4177
  152DOPC  H11X18253   4.387   1.238  15.656  1.5671  2.5625  1.3624
  152DOPC  H11Y18254   4.487   1.086  15.638  2.6309 -0.4501  2.1844
  152DOPC  C31218255   4.521   1.231  15.485  0.1349  0.2576 -0.3827
  152DOPC  H12X18256   4.557   1.336  15.479  1.9580 -0.1805  1.6883
  152DOPC  H12Y18257   4.432   1.209  15.423 -1.6109 -1.5549  2.5024
  152DOPC  C31318258   4.642   1.143  15.445 -0.0061  0.0751 -0.3285
  152DOPC  H13X18259   4.732   1.160  15.507 -0.1246  0.2661 -0.2092
  152DOPC  H13Y18260   4.601   1.040  15.456  0.9874 -0.4198 -1.0332
  152DOPC  C31418261   4.686   1.171  15.296  0.7096 -0.2412  0.5472
  152DOPC  H14X18262   4.600   1.173  15.225  1.2005  0.0839 -0.0421
  152DOPC  H14Y18263   4.729   1.273  15.296 -0.2829  0.1854  0.1922
  152DOPC  C31518264   4.784   1.060  15.243  0.4074 -0.6090  0.4037
  152DOPC  H15X18265   4.742   0.965  15.280  0.7073 -0.5457  0.9332
  152DOPC  H15Y18266   4.886   1.078  15.285  1.0226  1.1927 -1.6380
  152DOPC  C31618267   4.798   1.059  15.090 -0.4623 -0.1415  0.1399
  152DOPC  H16X18268   4.696   1.050  15.047 -0.1726  0.4602 -0.6915
  152DOPC  H16Y18269   4.823   1.161  15.056 -0.1089 -0.0539  0.6502
  152DOPC  C31718270   4.889   0.950  15.029 -0.2057 -0.1169  0.2761
  152DOPC  H17X18271   4.850   0.847  15.045 -0.1250 -0.0571  0.9109
  152DOPC  H17Y18272   4.893   0.962  14.919 -0.3984  0.9105  0.3729
  152DOPC  C31818273   5.035   0.955  15.074 -0.3812 -0.4722  0.8726
  152DOPC  H18X18274   5.052   0.922  15.178  2.1511 -1.8350  0.0968
  152DOPC  H18Y18275   5.098   0.893  15.006 -0.0683 -2.4482  2.8369
  152DOPC  H18Z18276   5.066   1.060  15.062  0.6356 -0.9552 -1.1379
  153DOPC     N18277   4.307   6.868  17.171 -0.1607 -0.1294  0.7079
  153DOPC   C1218278   4.321   6.779  17.055  0.1623 -0.2403  0.3992
  153DOPC  H12A18279   4.259   6.815  16.975  0.2719 -0.6372  0.1361
  153DOPC  H12B18280   4.282   6.683  17.085 -0.7969  0.0167 -0.0038
  153DOPC   C1318281   4.159   6.885  17.206  0.3261 -0.1324  0.9126
  153DOPC  H13A18282   4.127   6.787  17.236  1.0510 -0.1963  1.5169
  153DOPC  H13B18283   4.138   6.955  17.285  0.2673 -0.5730  1.2849
  153DOPC  H13C18284   4.101   6.916  17.120  0.7998 -1.0386  0.2394
  153DOPC   C1418285   4.357   7.002  17.143 -0.6868 -0.7109  0.1963
  153DOPC  H14A18286   4.325   7.070  17.221  0.3537  1.1893 -0.9474
  153DOPC  H14B18287   4.465   7.006  17.143 -0.6395  1.8182 -2.8397
  153DOPC  H14C18288   4.320   7.035  17.047 -0.2465 -0.1712  0.2061
  153DOPC   C1518289   4.370   6.810  17.292 -0.0341 -0.0613  0.3705
  153DOPC  H15A18290   4.472   6.781  17.270  0.2619 -0.0053  1.6259
  153DOPC  H15B18291   4.320   6.722  17.329  0.4378 -0.3973  0.2222
  153DOPC  H15C18292   4.387   6.880  17.371 -0.1919  1.6375 -1.0418
  153DOPC   C1118293   4.464   6.769  16.998 -0.6950  0.6596 -0.4348
  153DOPC  H11A18294   4.540   6.756  17.077  0.8966  0.8223 -1.8683
  153DOPC  H11B18295   4.456   6.669  16.950  0.4341 -0.0119  0.7063
  153DOPC     P18296   4.442   6.910  16.768 -0.0812  0.3125  0.0507
  153DOPC   O1318297   4.515   7.017  16.697  1.2284  0.1419 -0.5864
  153DOPC   O1418298   4.300   6.931  16.792  0.5988 -0.5301 -0.3796
  153DOPC   O1218299   4.507   6.871  16.910 -0.3984  0.5156  0.0732
  153DOPC   O1118300   4.442   6.775  16.676  0.2306  0.3100  0.0205
  153DOPC    C118301   4.573   6.717  16.649  0.4841 -0.7949 -0.9769
  153DOPC    HA18302   4.579   6.635  16.724  0.8463  1.4790  1.6443
  153DOPC    HB18303   4.659   6.780  16.676  1.0932 -2.0275  0.0398
  153DOPC    C218304   4.596   6.661  16.509  0.2570  0.6928  0.0108
  153DOPC    HS18305   4.680   6.589  16.512  0.1890  0.6461  1.2115
  153DOPC   O2118306   4.618   6.764  16.407 -0.2267  0.0479  0.1560
  153DOPC   C2118307   4.743   6.806  16.400  0.4055 -0.1780  0.3983
  153DOPC   O2218308   4.831   6.765  16.475  0.0590  0.7885 -0.2828
  153DOPC   C2218309   4.767   6.900  16.290  0.1484  0.2397  1.0283
  153DOPC   H2R18310   4.806   6.996  16.330  1.7134  0.3975 -0.7595
  153DOPC   H2S18311   4.668   6.924  16.245 -0.5512 -1.5984  1.5064
  153DOPC    C318312   4.470   6.572  16.459 -0.3283 -0.5279 -0.1315
  153DOPC    HX18313   4.391   6.650  16.459  2.4726  2.5404 -0.3807
  153DOPC    HY18314   4.444   6.493  16.532 -0.5181 -0.2584  0.0920
  153DOPC   O3118315   4.487   6.523  16.324 -0.0030  0.1079  0.2275
  153DOPC   C3118316   4.487   6.391  16.311 -0.6909  0.1648 -0.8288
  153DOPC   O3218317   4.475   6.311  16.403  0.2344 -0.3199 -0.0258
  153DOPC   C3218318   4.520   6.356  16.164  0.1773 -0.3294 -0.6107
  153DOPC   H2X18319   4.540   6.247  16.168 -0.8307 -0.6120 -2.3494
  153DOPC   H2Y18320   4.435   6.389  16.100 -0.3225 -1.0410 -0.3217
  153DOPC   C2318321   4.862   6.851  16.188 -0.6483  0.3706 -0.4328
  153DOPC   H3R18322   4.954   6.814  16.238  0.5734  2.0615 -1.2963
  153DOPC   H3S18323   4.904   6.939  16.134 -2.0736  0.3550 -1.6429
  153DOPC   C2418324   4.798   6.745  16.092  0.3034 -0.2279 -0.2688
  153DOPC   H4R18325   4.694   6.770  16.060 -0.3492 -1.6532  0.6417
  153DOPC   H4S18326   4.795   6.644  16.138 -0.2836  0.0162  0.2484
  153DOPC   C2518327   4.887   6.724  15.969  0.0934 -0.4905  0.0531
  153DOPC   H5R18328   4.911   6.827  15.932 -3.3517 -0.0211 -1.2434
  153DOPC   H5S18329   4.818   6.674  15.898 -0.4524 -1.6163  1.3425
  153DOPC   C2618330   5.010   6.640  15.995 -0.1722 -0.3023 -0.3768
  153DOPC   H6R18331   4.977   6.534  15.990 -1.0373 -0.0609 -0.0803
  153DOPC   H6S18332   5.058   6.660  16.093 -0.0484  0.2008 -0.5395
  153DOPC   C2718333   5.111   6.660  15.887  0.2162  0.3683  0.0585
  153DOPC   H7R18334   5.147   6.765  15.889 -0.0075  0.4407  1.1060
  153DOPC   H7S18335   5.053   6.635  15.795 -0.1796 -2.1522  0.9218
  153DOPC   C2818336   5.225   6.560  15.900 -0.2456 -0.5747 -0.0752
  153DOPC   H8R18337   5.259   6.551  16.005  0.3129  0.6698 -0.1389
  153DOPC   H8S18338   5.307   6.611  15.844 -3.0767  2.7801 -1.5487
  153DOPC   C2918339   5.202   6.423  15.837 -0.4897 -0.0391 -0.1349
  153DOPC   H9R18340   5.121   6.419  15.763 -0.7325  1.1990  0.0375
  153DOPC  C21018341   5.289   6.314  15.843 -0.3770 -0.0572 -0.4389
  153DOPC  H10R18342   5.272   6.215  15.797  1.8186 -1.2832  1.1816
  153DOPC  C21118343   5.420   6.316  15.927  0.5089  0.5920  0.5875
  153DOPC  H11R18344   5.447   6.413  15.974  0.5900  0.7638  0.1888
  153DOPC  H11S18345   5.510   6.284  15.871  1.1539  1.8008  0.9017
  153DOPC  C21218346   5.408   6.210  16.035  0.1224  0.4958 -0.0406
  153DOPC  H12R18347   5.322   6.234  16.101  0.6553  2.5502 -0.0335
  153DOPC  H12S18348   5.494   6.220  16.105  0.1052  2.9048 -0.2735
  153DOPC  C21318349   5.398   6.066  15.981 -0.1686 -0.0571 -0.4518
  153DOPC  H13R18350   5.469   6.054  15.897 -1.0206 -2.8869 -0.8454
  153DOPC  H13S18351   5.298   6.042  15.940  0.7088  0.9659 -3.4884
  153DOPC  C21418352   5.414   5.969  16.098  0.1735  0.4284  0.5147
  153DOPC  H14R18353   5.341   5.984  16.179 -1.3921  0.4391 -0.8542
  153DOPC  H14S18354   5.514   5.979  16.147  0.5138 -0.1663 -0.0266
  153DOPC  C21518355   5.404   5.823  16.060  0.2061  0.5456 -0.2227
  153DOPC  H15R18356   5.315   5.794  16.001  0.8712  1.4090 -1.7034
  153DOPC  H15S18357   5.398   5.762  16.153  1.9493 -1.9013 -1.6287
  153DOPC  C21618358   5.526   5.776  15.976 -0.7355 -0.0058  0.1397
  153DOPC  H16R18359   5.621   5.809  16.022 -0.6470  0.8693 -0.6463
  153DOPC  H16S18360   5.529   5.826  15.877 -0.0005  1.4102  0.8481
  153DOPC  C21718361   5.542   5.622  15.973 -0.6551 -0.1482 -0.3062
  153DOPC  H17R18362   5.468   5.579  15.902 -2.2899 -0.8040  1.6944
  153DOPC  H17S18363   5.523   5.579  16.073  1.5802  0.3616  0.3906
  153DOPC  C21818364   5.690   5.580  15.951 -0.6114  0.1047  0.0376
  153DOPC  H18R18365   5.707   5.470  15.958  1.1083  0.3736  0.6240
  153DOPC  H18S18366   5.753   5.619  16.034 -0.2118  2.5967 -1.3493
  153DOPC  H18T18367   5.729   5.627  15.858 -1.3443 -0.9756 -0.8427
  153DOPC   C3318368   4.650   6.430  16.120 -0.4738 -0.5850 -0.1892
  153DOPC   H3X18369   4.724   6.421  16.203 -0.7689  0.6946  0.2269
  153DOPC   H3Y18370   4.623   6.537  16.118 -1.0325 -0.7415 -1.5228
  153DOPC   C3418371   4.702   6.371  15.994 -0.2708 -0.8443  0.7711
  153DOPC   H4X18372   4.698   6.260  16.001 -2.2158 -0.9353 -0.8742
  153DOPC   H4Y18373   4.806   6.407  15.986 -1.3778  2.6546  0.2583
  153DOPC   C3518374   4.642   6.405  15.863 -0.0941  0.3528 -0.2581
  153DOPC   H5X18375   4.641   6.516  15.852  1.9980  0.4588  0.2716
  153DOPC   H5Y18376   4.536   6.374  15.859  0.6995 -3.3627  2.4234
  153DOPC   C3618377   4.720   6.350  15.741  0.9266  0.1848 -0.2258
  153DOPC   H6X18378   4.719   6.239  15.746 -0.1595  0.1031 -1.6672
  153DOPC   H6Y18379   4.664   6.383  15.652 -1.8200 -2.5426  0.3209
  153DOPC   C3718380   4.859   6.392  15.719 -0.1496  0.7862 -0.1383
  153DOPC   H7X18381   4.860   6.503  15.716  1.8168  0.7901 -0.8221
  153DOPC   H7Y18382   4.929   6.366  15.802 -1.8220  0.8259  1.3425
  153DOPC   C3818383   4.912   6.338  15.587 -0.2053 -0.6654  0.2808
  153DOPC   H8X18384   5.009   6.387  15.561 -0.5906  0.3801  0.7924
  153DOPC   H8Y18385   4.843   6.376  15.509  0.1333 -0.8257 -0.1023
  153DOPC   C3918386   4.937   6.191  15.572 -0.8396  0.1591  0.1821
  153DOPC   H9X18387   5.030   6.162  15.625 -1.4245  0.2232  1.2787
  153DOPC  C31018388   4.860   6.091  15.522 -0.0770 -0.0687  0.1120
  153DOPC  H10X18389   4.895   5.987  15.521  2.3662  0.6196  2.0264
  153DOPC  C31118390   4.719   6.107  15.473 -0.3630  0.0504  0.3689
  153DOPC  H11X18391   4.710   6.205  15.422 -0.8039 -0.4175 -0.4742
  153DOPC  H11Y18392   4.650   6.111  15.561 -0.3176 -0.5849  0.4345
  153DOPC  C31218393   4.675   5.984  15.388 -0.0734 -1.0048 -0.4279
  153DOPC  H12X18394   4.568   6.002  15.364 -0.2087  2.4008  2.0143
  153DOPC  H12Y18395   4.692   5.891  15.446  0.6800 -1.1832 -0.9137
  153DOPC  C31318396   4.749   6.000  15.253 -0.2261 -0.0072  0.2235
  153DOPC  H13X18397   4.764   6.107  15.229 -2.7264  1.0514  2.7261
  153DOPC  H13Y18398   4.850   5.962  15.280 -1.0347 -1.1797  1.7847
  153DOPC  C31418399   4.697   5.907  15.136 -0.1464 -0.0026  0.5334
  153DOPC  H14X18400   4.682   5.810  15.189 -2.8130  0.3788  0.6112
  153DOPC  H14Y18401   4.598   5.924  15.089  0.0930  0.1818  0.0905
  153DOPC  C31518402   4.801   5.876  15.028 -0.6325 -0.3026 -0.4365
  153DOPC  H15X18403   4.791   5.771  14.994  0.6144 -1.3376  2.1559
  153DOPC  H15Y18404   4.904   5.885  15.069 -1.3029  0.7259  1.1085
  153DOPC  C31618405   4.782   5.964  14.902 -0.5901  0.2350  0.3928
  153DOPC  H16X18406   4.686   5.935  14.853 -0.9634 -0.6299  1.5945
  153DOPC  H16Y18407   4.766   6.071  14.927  1.0061  0.4052  0.7859
  153DOPC  C31718408   4.904   5.950  14.806  0.2699  0.4281  0.1506
  153DOPC  H17X18409   4.990   5.924  14.872 -0.0278 -2.2823 -0.4128
  153DOPC  H17Y18410   4.883   5.863  14.740  0.1043  0.5429  0.0533
  153DOPC  C31818411   4.938   6.059  14.706 -0.6365  0.1755  0.0478
  153DOPC  H18X18412   5.018   6.028  14.636  0.7285  1.3054  1.0530
  153DOPC  H18Y18413   4.852   6.081  14.639  1.4918  0.7997 -2.6428
  153DOPC  H18Z18414   4.959   6.157  14.754 -0.4221  1.1632 -1.9452
  154DOPC     N18415   6.266   3.701  17.251  0.3371 -0.4301 -0.1420
  154DOPC   C1218416   6.259   3.684  17.104 -0.4950 -0.7470  0.5582
  154DOPC  H12A18417   6.264   3.578  17.082 -1.6809 -1.1331  1.9729
  154DOPC  H12B18418   6.340   3.733  17.052 -0.5440 -2.8998 -1.8066
  154DOPC   C1318419   6.380   3.604  17.290  0.6542 -0.3943 -0.1753
  154DOPC  H13A18420   6.471   3.627  17.236  0.3776  0.3809 -0.3162
  154DOPC  H13B18421   6.401   3.615  17.395 -3.2545  3.1549  0.4834
  154DOPC  H13C18422   6.363   3.504  17.253  3.1181 -0.6762 -0.7461
  154DOPC   C1418423   6.138   3.654  17.312  0.5433  0.7733  0.4201
  154DOPC  H14A18424   6.156   3.655  17.419 -0.7229 -0.2101  0.6608
  154DOPC  H14B18425   6.062   3.726  17.284  1.5153  0.6399 -2.9079
  154DOPC  H14C18426   6.112   3.553  17.284 -0.3980  1.2667 -0.5364
  154DOPC   C1518427   6.301   3.843  17.289  0.7966 -0.1143 -0.3683
  154DOPC  H15A18428   6.238   3.909  17.231 -1.5785 -3.1775 -1.5324
  154DOPC  H15B18429   6.401   3.865  17.253  0.6070 -1.3694 -1.7592
  154DOPC  H15C18430   6.282   3.862  17.393  1.0436  0.6411 -0.4541
  154DOPC   C1118431   6.133   3.735  17.029 -0.2572 -0.9264  0.9474
  154DOPC  H11A18432   6.140   3.696  16.925  0.5292  1.0596  0.2037
  154DOPC  H11B18433   6.032   3.697  17.057  0.1145 -2.4904  0.2483
  154DOPC     P18434   6.224   3.957  16.921  0.4261 -0.0650  0.3954
  154DOPC   O1318435   6.343   3.875  16.915 -0.2621  0.2619  0.4722
  154DOPC   O1418436   6.244   4.095  16.964  0.4591  0.7857  0.3294
  154DOPC   O1218437   6.136   3.880  17.032 -0.0480  0.3100  0.0210
  154DOPC   O1118438   6.140   3.956  16.789 -0.0339 -0.0437 -0.1991
  154DOPC    C118439   6.010   4.007  16.773 -0.2932  0.0914  0.6564
  154DOPC    HA18440   6.002   4.039  16.667  1.5549  0.5541  0.6152
  154DOPC    HB18441   5.996   4.098  16.834  1.4414  1.2605 -0.5840
  154DOPC    C218442   5.899   3.903  16.797  0.5219 -0.5815 -0.4126
  154DOPC    HS18443   5.910   3.862  16.900  1.8044 -0.7062 -0.5779
  154DOPC   O2118444   5.911   3.794  16.702  0.5347  0.3008  0.0875
  154DOPC   C2118445   5.842   3.689  16.728 -0.1369  0.1109 -0.8278
  154DOPC   O2218446   5.786   3.665  16.832  0.5381 -0.4188  0.2858
  154DOPC   C2218447   5.872   3.593  16.612 -0.1932  0.0448 -0.2617
  154DOPC   H2R18448   5.857   3.487  16.640 -0.4929 -0.0149 -0.6487
  154DOPC   H2S18449   5.978   3.602  16.580 -0.2484 -1.6313 -1.0092
  154DOPC    C318450   5.761   3.972  16.795  0.2539  0.7325  0.1191
  154DOPC    HX18451   5.766   4.059  16.864 -0.3871  0.9427 -0.0947
  154DOPC    HY18452   5.681   3.906  16.834  0.4003 -0.0397 -0.8588
  154DOPC   O3118453   5.741   4.016  16.657 -0.2916  0.1271 -0.4145
  154DOPC   C3118454   5.637   3.969  16.601 -0.2615  0.5928 -0.0613
  154DOPC   O3218455   5.559   3.895  16.656 -0.0354  0.0175 -0.5699
  154DOPC   C3218456   5.642   4.006  16.454  0.3225  0.2993 -0.4015
  154DOPC   H2X18457   5.709   3.933  16.404  0.7225  2.6844 -3.7305
  154DOPC   H2Y18458   5.541   4.010  16.407  0.7755  2.9356 -1.3431
  154DOPC   C2318459   5.785   3.630  16.495 -0.0335  0.3910 -0.2398
  154DOPC   H3R18460   5.814   3.735  16.473  2.2253  0.0434  0.8320
  154DOPC   H3S18461   5.675   3.642  16.503  0.1947  4.3956 -1.1752
  154DOPC   C2418462   5.799   3.539  16.374  0.1204 -0.3495  0.6710
  154DOPC   H4R18463   5.743   3.443  16.381 -1.9651  0.6637 -1.1504
  154DOPC   H4S18464   5.904   3.512  16.347 -0.0393 -1.1445  0.8046
  154DOPC   C2518465   5.734   3.598  16.242 -0.8956 -0.4345 -0.1462
  154DOPC   H5R18466   5.808   3.665  16.194 -1.8896  1.7028  1.1809
  154DOPC   H5S18467   5.641   3.654  16.266  0.0499  1.5843 -0.9896
  154DOPC   C2618468   5.708   3.494  16.127  0.0303 -0.0036 -0.1608
  154DOPC   H6R18469   5.786   3.415  16.119  0.2552  0.2647 -0.6298
  154DOPC   H6S18470   5.713   3.557  16.036  0.3934  1.8200  1.0725
  154DOPC   C2718471   5.566   3.444  16.143  0.0806  0.3774 -0.2870
  154DOPC   H7R18472   5.503   3.529  16.176 -0.0711  0.1097  0.1331
  154DOPC   H7S18473   5.565   3.357  16.213 -0.2283  0.7971  0.2358
  154DOPC   C2818474   5.498   3.379  16.021 -0.3022 -0.1034 -0.1756
  154DOPC   H8R18475   5.493   3.451  15.937 -1.3996  0.3302  0.2369
  154DOPC   H8S18476   5.390   3.365  16.044  0.0584 -0.7585  1.2105
  154DOPC   C2918477   5.557   3.250  15.969 -0.4356  0.2682  0.0562
  154DOPC   H9R18478   5.561   3.172  16.046 -2.5134  0.0458 -0.0071
  154DOPC  C21018479   5.620   3.241  15.853 -0.1465 -0.3348  0.3427
  154DOPC  H10R18480   5.659   3.143  15.822 -0.3948 -1.2853  2.8689
  154DOPC  C21118481   5.655   3.338  15.747 -0.1383  0.4786  0.5713
  154DOPC  H11R18482   5.761   3.338  15.715  0.2038  3.2716  1.4529
  154DOPC  H11S18483   5.652   3.434  15.802  1.6662  0.4870  0.7065
  154DOPC  C21218484   5.551   3.344  15.635  0.4887 -0.3796  0.3579
  154DOPC  H12R18485   5.453   3.368  15.681  0.4397 -0.3526  0.2383
  154DOPC  H12S18486   5.541   3.241  15.597 -0.3631  0.3720 -1.5485
  154DOPC  C21318487   5.595   3.441  15.521  0.4759 -0.3059 -0.5418
  154DOPC  H13R18488   5.687   3.412  15.466  0.3022  0.1276 -1.0625
  154DOPC  H13S18489   5.613   3.541  15.565 -0.8436  0.5699 -1.9316
  154DOPC  C21418490   5.488   3.449  15.411  0.1609 -0.4760  0.4069
  154DOPC  H14R18491   5.453   3.346  15.388  2.2334 -1.1567  0.0565
  154DOPC  H14S18492   5.540   3.482  15.318  0.6259 -1.9209  0.1333
  154DOPC  C21518493   5.370   3.545  15.440  0.5003  0.1400 -0.7392
  154DOPC  H15R18494   5.404   3.643  15.482 -0.7276 -0.0108  0.7149
  154DOPC  H15S18495   5.323   3.485  15.521  2.5397 -1.5478 -0.7263
  154DOPC  C21618496   5.265   3.556  15.327 -0.1998 -0.2232  0.1853
  154DOPC  H16R18497   5.260   3.453  15.283  1.2870 -0.7341  1.1201
  154DOPC  H16S18498   5.303   3.630  15.254  1.4003 -0.9143  0.2768
  154DOPC  C21718499   5.135   3.602  15.394  0.5238 -0.3389 -0.4108
  154DOPC  H17R18500   5.134   3.712  15.410 -1.3058 -0.1176 -1.7611
  154DOPC  H17S18501   5.107   3.565  15.495 -0.1388  0.3702 -0.3195
  154DOPC  C21818502   5.017   3.568  15.302 -0.7497  0.4055  0.5393
  154DOPC  H18R18503   4.928   3.613  15.350 -1.2391  1.9794 -1.6607
  154DOPC  H18S18504   5.000   3.459  15.311  0.4547  0.2309  0.9033
  154DOPC  H18T18505   5.009   3.611  15.200 -1.3004 -1.0022 -0.0290
  154DOPC   C3318506   5.713   4.141  16.413  0.1072  0.3536 -0.5254
  154DOPC   H3X18507   5.818   4.132  16.448  0.3654 -0.7525 -1.5058
  154DOPC   H3Y18508   5.672   4.233  16.459 -0.5384  0.1850 -0.7503
  154DOPC   C3418509   5.717   4.160  16.256 -0.1693 -0.1453 -0.2028
  154DOPC   H4X18510   5.750   4.056  16.234  1.1943 -0.2286  1.9421
  154DOPC   H4Y18511   5.793   4.236  16.226 -0.7389  0.2634 -0.6541
  154DOPC   C3518512   5.580   4.180  16.185  0.4206 -0.4522 -0.2527
  154DOPC   H5X18513   5.517   4.095  16.218 -0.0105  0.1599  0.5232
  154DOPC   H5Y18514   5.598   4.178  16.075  0.2747 -0.2474 -0.2808
  154DOPC   C3618515   5.518   4.321  16.218 -0.8628  0.5733 -0.7305
  154DOPC   H6X18516   5.419   4.338  16.170 -0.0681 -2.2640 -3.7950
  154DOPC   H6Y18517   5.503   4.341  16.326  2.4875  0.3073 -0.1202
  154DOPC   C3718518   5.600   4.437  16.151  0.0031 -0.2790 -0.1258
  154DOPC   H7X18519   5.551   4.533  16.176  0.0192 -0.8932  2.4804
  154DOPC   H7Y18520   5.699   4.443  16.201  0.8584  0.6392 -1.8170
  154DOPC   C3818521   5.631   4.433  15.995 -0.0695 -0.4023 -0.0391
  154DOPC   H8X18522   5.668   4.329  15.978  0.1392 -0.0946 -1.5232
  154DOPC   H8Y18523   5.717   4.500  15.976 -1.9820  2.1910  0.0190
  154DOPC   C3918524   5.512   4.444  15.902 -0.3978  0.0772  0.2184
  154DOPC   H9X18525   5.414   4.440  15.953  0.6189 -0.6237  2.2244
  154DOPC  C31018526   5.517   4.457  15.771  0.0896 -0.0192  0.2957
  154DOPC  H10X18527   5.428   4.476  15.710 -1.1255  0.3369  2.1048
  154DOPC  C31118528   5.643   4.467  15.683  0.3588 -0.1187 -0.5789
  154DOPC  H11X18529   5.734   4.428  15.732  1.0674  2.1900  0.0863
  154DOPC  H11Y18530   5.665   4.569  15.645  0.4526  0.3916  0.8004
  154DOPC  C31218531   5.621   4.381  15.558  0.8234 -0.1280  0.0208
  154DOPC  H12X18532   5.583   4.279  15.581  0.8339 -0.1183  0.0799
  154DOPC  H12Y18533   5.724   4.365  15.522  1.0398  1.5547 -0.1728
  154DOPC  C31318534   5.539   4.449  15.439  0.3260  0.3420  0.1012
  154DOPC  H13X18535   5.435   4.459  15.477  0.1230 -2.3677  0.4974
  154DOPC  H13Y18536   5.580   4.548  15.411  0.9613  0.1371  0.2943
  154DOPC  C31418537   5.535   4.370  15.311  0.6150 -1.4245  0.0502
  154DOPC  H14X18538   5.637   4.355  15.270 -0.0841 -2.0027 -1.5903
  154DOPC  H14Y18539   5.492   4.270  15.332 -1.7841 -1.0130 -2.2701
  154DOPC  C31518540   5.440   4.423  15.193 -0.1499  0.2077 -0.1502
  154DOPC  H15X18541   5.473   4.520  15.152 -3.5188  2.7904  2.6263
  154DOPC  H15Y18542   5.349   4.449  15.251 -0.2047  0.9031 -0.5381
  154DOPC  C31618543   5.415   4.323  15.088  0.1907 -0.2353 -0.2027
  154DOPC  H16X18544   5.367   4.232  15.132 -0.7785 -1.2220 -3.0953
  154DOPC  H16Y18545   5.334   4.368  15.027  0.0726  0.9265  0.7675
  154DOPC  C31718546   5.540   4.289  15.007  0.0151 -0.1555  0.5846
  154DOPC  H17X18547   5.586   4.384  14.972 -1.8271 -0.1870 -2.3186
  154DOPC  H17Y18548   5.615   4.245  15.075  0.1363  1.2527  1.3850
  154DOPC  C31818549   5.511   4.202  14.891  0.3224  0.7646 -0.0203
  154DOPC  H18X18550   5.594   4.132  14.867 -0.7300 -1.2617  1.9440
  154DOPC  H18Y18551   5.430   4.132  14.919  0.8689  0.3137  0.4308
  154DOPC  H18Z18552   5.471   4.247  14.797 -1.3881 -0.3145  0.1517
  155DOPC     N18553   1.159   2.099  17.399  0.3106  0.2544 -0.3854
  155DOPC   C1218554   1.202   1.968  17.325 -0.3705  0.3136 -1.0580
  155DOPC  H12A18555   1.147   1.882  17.358  1.8950 -0.5083  0.8899
  155DOPC  H12B18556   1.306   1.944  17.338 -0.8085 -0.1655  2.5548
  155DOPC   C1318557   1.012   2.129  17.370 -0.0997  0.1413 -0.0792
  155DOPC  H13A18558   0.975   2.223  17.409  0.3007 -0.6047  2.2629
  155DOPC  H13B18559   1.008   2.138  17.262  2.0763 -0.0056 -0.2029
  155DOPC  H13C18560   0.947   2.045  17.391  1.0242 -0.7536 -0.0975
  155DOPC   C1418561   1.246   2.212  17.360 -0.3243 -0.0083 -0.0765
  155DOPC  H14A18562   1.218   2.300  17.417 -0.3964 -1.2738  1.9445
  155DOPC  H14B18563   1.347   2.180  17.381 -0.8371 -1.6965 -0.0503
  155DOPC  H14C18564   1.233   2.234  17.255 -0.2208  1.4481  0.1891
  155DOPC   C1518565   1.178   2.079  17.550  0.5141  0.1998 -0.4482
  155DOPC  H15A18566   1.147   2.168  17.601 -0.5921  0.1398 -0.9938
  155DOPC  H15B18567   1.280   2.048  17.569  0.6298  0.6115 -0.4056
  155DOPC  H15C18568   1.108   2.005  17.586 -0.1785  1.6869  1.4423
  155DOPC   C1118569   1.174   1.979  17.175  0.8682  0.5262  0.0814
  155DOPC  H11A18570   1.228   1.893  17.130 -0.0668 -0.2647  0.4549
  155DOPC  H11B18571   1.066   1.958  17.157  1.4899 -0.3632 -3.4035
  155DOPC     P18572   1.125   2.161  16.987  0.5727 -0.0647  0.0888
  155DOPC   O1318573   1.225   2.244  16.918 -0.2908 -0.2671  0.2237
  155DOPC   O1418574   1.003   2.227  17.029  0.0306 -0.2605 -0.8368
  155DOPC   O1218575   1.203   2.103  17.107  0.4725  0.4179 -0.4167
  155DOPC   O1118576   1.093   2.042  16.892  0.5871  0.4257  0.4453
  155DOPC    C118577   1.196   1.948  16.846  0.2943 -0.2694  0.5895
  155DOPC    HA18578   1.155   1.845  16.856 -0.1241 -0.1808 -0.0901
  155DOPC    HB18579   1.292   1.951  16.901 -0.7001 -1.0152  2.4604
  155DOPC    C218580   1.225   1.981  16.697  0.5797 -0.2540  0.1144
  155DOPC    HS18581   1.280   2.078  16.697  1.6250 -0.8327  0.6093
  155DOPC   O2118582   1.105   1.983  16.623 -0.0275 -0.1385 -0.2613
  155DOPC   C2118583   1.101   2.062  16.515 -0.7776  0.0597 -0.3551
  155DOPC   O2218584   1.178   2.157  16.499 -0.4152  0.6530  0.5909
  155DOPC   C2218585   0.986   2.017  16.426  0.2917 -0.2287  0.4152
  155DOPC   H2R18586   0.910   1.987  16.501  1.1247  0.1780  1.4466
  155DOPC   H2S18587   1.022   1.926  16.372  0.3979  0.5222 -0.8223
  155DOPC    C318588   1.325   1.876  16.647  0.1785 -0.6315  0.3383
  155DOPC    HX18589   1.263   1.784  16.657 -0.6560 -0.2471 -0.9892
  155DOPC    HY18590   1.420   1.867  16.705 -0.0394 -0.2748  0.7511
  155DOPC   O3118591   1.345   1.887  16.505 -0.0827  0.3757 -0.3291
  155DOPC   C3118592   1.434   1.978  16.470 -0.7888  0.1928 -0.1044
  155DOPC   O3218593   1.494   2.053  16.545 -0.5426  0.0343  0.4899
  155DOPC   C3218594   1.453   1.952  16.319  0.4657  0.3848 -0.9964
  155DOPC   H2X18595   1.425   1.849  16.287  1.9136 -0.1621 -0.5988
  155DOPC   H2Y18596   1.379   2.022  16.276 -1.8699 -1.3394 -0.0291
  155DOPC   C2318597   0.938   2.125  16.329  0.5300  0.2753  0.2783
  155DOPC   H3R18598   1.022   2.176  16.277 -1.2081  3.2369  0.1923
  155DOPC   H3S18599   0.889   2.202  16.392  0.5381  1.3375 -0.9791
  155DOPC   C2418600   0.838   2.075  16.227  0.3662  0.0527  0.0229
  155DOPC   H4R18601   0.752   2.027  16.278 -1.1510  0.4291 -2.0815
  155DOPC   H4S18602   0.881   2.004  16.153 -1.1407 -0.3917 -0.4613
  155DOPC   C2518603   0.762   2.196  16.160  0.4663  0.7361 -0.8665
  155DOPC   H5R18604   0.831   2.275  16.124  2.1065 -1.4549 -2.8850
  155DOPC   H5S18605   0.712   2.244  16.246  2.5905  0.1057  0.8149
  155DOPC   C2618606   0.665   2.169  16.046 -0.2381 -0.0253 -0.3667
  155DOPC   H6R18607   0.634   2.269  16.008  0.9292 -0.5282 -2.8512
  155DOPC   H6S18608   0.577   2.118  16.091 -1.7548 -0.6681 -3.7911
  155DOPC   C2718609   0.736   2.091  15.939 -0.2059  0.3785 -1.1265
  155DOPC   H7R18610   0.730   1.984  15.970 -1.6209  0.1674 -2.0213
  155DOPC   H7S18611   0.842   2.124  15.942 -0.1135 -0.0081  0.4110
  155DOPC   C2818612   0.684   2.105  15.797  0.1545  0.4958 -0.0219
  155DOPC   H8R18613   0.756   2.052  15.731  0.8188  1.3569 -0.0155
  155DOPC   H8S18614   0.692   2.213  15.770  3.2191  0.6176  0.9009
  155DOPC   C2918615   0.540   2.051  15.794  0.5747  0.6307 -0.2575
  155DOPC   H9R18616   0.474   2.086  15.874  1.0086  2.3963 -0.6335
  155DOPC  C21018617   0.491   1.959  15.710 -0.7965  0.0377  0.0845
  155DOPC  H10R18618   0.383   1.944  15.695 -0.9789  1.2779  0.0439
  155DOPC  C21118619   0.567   1.893  15.600 -0.6915  0.1771  0.0768
  155DOPC  H11R18620   0.520   1.796  15.571 -1.5860  0.4590  0.5584
  155DOPC  H11S18621   0.669   1.869  15.639 -1.8320  0.1544  3.3696
  155DOPC  C21218622   0.581   1.969  15.470  0.0578  0.0642  0.0505
  155DOPC  H12R18623   0.628   2.070  15.477 -0.3303  0.3086 -0.7242
  155DOPC  H12S18624   0.481   1.978  15.423  0.1888  1.9777  0.0531
  155DOPC  C21318625   0.665   1.897  15.363 -0.2293 -0.5826  0.2320
  155DOPC  H13R18626   0.654   1.945  15.264  0.9802 -1.8473 -0.5506
  155DOPC  H13S18627   0.616   1.800  15.339 -0.5588 -0.1679 -0.8119
  155DOPC  C21418628   0.814   1.879  15.403  0.0196 -0.3977  0.0381
  155DOPC  H14R18629   0.853   1.809  15.326  0.8716 -0.9397  0.9337
  155DOPC  H14S18630   0.827   1.828  15.501  0.9293  0.5492  0.4167
  155DOPC  C21518631   0.901   2.015  15.410  0.2143  0.7266  0.1608
  155DOPC  H15R18632   1.007   1.984  15.421 -0.2374 -1.2774 -0.6842
  155DOPC  H15S18633   0.874   2.089  15.488 -2.2425  0.1687 -0.0927
  155DOPC  C21618634   0.883   2.086  15.277  0.5032  0.2901  0.1735
  155DOPC  H16R18635   0.776   2.112  15.266  0.1365  0.2827  2.8953
  155DOPC  H16S18636   0.918   2.016  15.198  2.0932 -2.0610  2.7745
  155DOPC  C21718637   0.950   2.219  15.269  0.4559  0.2034 -0.8609
  155DOPC  H17R18638   1.061   2.213  15.267  0.5536  1.5359 -0.7181
  155DOPC  H17S18639   0.920   2.291  15.349 -3.0407  0.2892 -2.0863
  155DOPC  C21818640   0.913   2.289  15.136  0.2105 -0.0906  0.2612
  155DOPC  H18R18641   0.808   2.265  15.108  0.5962 -2.1150  0.4144
  155DOPC  H18S18642   0.983   2.257  15.056 -0.8658  1.0914 -1.2043
  155DOPC  H18T18643   0.915   2.399  15.151  1.4952 -0.1601  0.7285
  155DOPC   C3318644   1.591   1.993  16.264 -0.3026  0.5330 -0.1650
  155DOPC   H3X18645   1.626   2.094  16.294 -1.1290  1.4372 -2.0243
  155DOPC   H3Y18646   1.597   1.987  16.153 -0.1360 -2.8848 -0.0820
  155DOPC   C3418647   1.690   1.882  16.306 -0.1732 -0.0701 -0.2309
  155DOPC   H4X18648   1.688   1.875  16.417  1.3110 -4.4181 -0.2991
  155DOPC   H4Y18649   1.793   1.921  16.290 -1.1012  4.0871  2.2143
  155DOPC   C3518650   1.678   1.743  16.249 -0.4274  0.0835 -0.5796
  155DOPC   H5X18651   1.733   1.729  16.153  0.0338 -2.1050 -0.0368
  155DOPC   H5Y18652   1.571   1.722  16.229 -0.9151 -1.2184  2.8402
  155DOPC   C3618653   1.726   1.638  16.341  0.3957 -0.4839  0.2957
  155DOPC   H6X18654   1.834   1.643  16.365  0.8914 -1.5637 -1.5364
  155DOPC   H6Y18655   1.669   1.655  16.435  1.8843 -0.2153  1.1814
  155DOPC   C3718656   1.689   1.496  16.291  0.5106 -0.0099  0.5802
  155DOPC   H7X18657   1.579   1.489  16.290  0.3148  1.7957  2.4571
  155DOPC   H7Y18658   1.731   1.490  16.188  4.6672  2.6246  1.8610
  155DOPC   C3818659   1.745   1.378  16.366 -0.5330  0.3156  0.2911
  155DOPC   H8X18660   1.703   1.285  16.323 -0.4821 -0.8149  2.5053
  155DOPC   H8Y18661   1.719   1.383  16.474 -2.0601 -2.1946  0.1034
  155DOPC   C3918662   1.894   1.366  16.359 -0.2542  0.1125 -0.1712
  155DOPC   H9X18663   1.954   1.435  16.421  0.9724  0.2454 -1.4530
  155DOPC  C31018664   1.972   1.281  16.288 -0.0209 -0.2410 -0.2861
  155DOPC  H10X18665   2.080   1.281  16.308  0.2538 -0.4255 -1.6791
  155DOPC  C31118666   1.918   1.168  16.194 -0.2065 -0.9182  0.3644
  155DOPC  H11X18667   1.831   1.120  16.244 -0.6900 -0.2843  0.1336
  155DOPC  H11Y18668   1.985   1.080  16.181  1.7584  0.3862  1.2695
  155DOPC  C31218669   1.886   1.228  16.046 -0.0092 -0.3907 -0.0316
  155DOPC  H12X18670   1.832   1.324  16.059  2.4548  0.8984  1.3677
  155DOPC  H12Y18671   1.815   1.164  15.990  3.6527 -1.9018 -3.4330
  155DOPC  C31318672   2.012   1.253  15.963  0.4138  0.2526 -0.5615
  155DOPC  H13X18673   2.079   1.330  16.006  0.9785 -0.4666 -0.1312
  155DOPC  H13Y18674   2.063   1.155  15.953 -0.3599 -0.1504 -0.6493
  155DOPC  C31418675   1.988   1.304  15.820 -0.2809  0.4094  0.5122
  155DOPC  H14X18676   1.905   1.257  15.762 -1.1815  2.6027 -0.0764
  155DOPC  H14Y18677   1.953   1.409  15.830  0.1913  0.5575  0.6013
  155DOPC  C31518678   2.108   1.299  15.729 -0.4275 -0.3843  0.4881
  155DOPC  H15X18679   2.183   1.372  15.765  2.1525 -1.4508 -2.2661
  155DOPC  H15Y18680   2.085   1.334  15.626  0.7643 -1.0644 -0.0394
  155DOPC  C31618681   2.182   1.165  15.711 -0.2601  0.1328 -0.3453
  155DOPC  H16X18682   2.244   1.144  15.801 -1.7723 -3.1563  0.0728
  155DOPC  H16Y18683   2.104   1.089  15.688 -1.7445  2.1030 -2.2702
  155DOPC  C31718684   2.287   1.159  15.596  0.9545 -0.2964 -0.0160
  155DOPC  H17X18685   2.344   1.254  15.593 -1.3088  1.1625  0.3434
  155DOPC  H17Y18686   2.352   1.072  15.619  1.5772  0.4661  1.2418
  155DOPC  C31818687   2.226   1.128  15.463  0.1414  0.6004  0.1511
  155DOPC  H18X18688   2.192   1.213  15.399 -0.3612 -0.5343 -1.1569
  155DOPC  H18Y18689   2.302   1.066  15.410 -1.5431 -2.0319  0.5863
  155DOPC  H18Z18690   2.138   1.061  15.477  0.7491 -0.7070 -1.8572
  156DOPC     N18691   6.388   7.104  16.787 -0.3998 -0.5588  0.1204
  156DOPC   C1218692   6.497   7.036  16.864 -0.5944  0.0541  0.1570
  156DOPC  H12A18693   6.566   7.095  16.922  0.9567 -1.8086  0.3414
  156DOPC  H12B18694   6.555   6.982  16.790  0.1731  1.8192 -0.5631
  156DOPC   C1318695   6.299   7.006  16.722  0.8940  0.6725 -0.0383
  156DOPC  H13A18696   6.360   6.954  16.649 -0.1389 -0.3849 -0.1847
  156DOPC  H13B18697   6.269   6.931  16.794  0.7081  2.1830  1.5311
  156DOPC  H13C18698   6.214   7.047  16.671 -0.2457 -1.5834 -0.1059
  156DOPC   C1418699   6.458   7.188  16.675  0.4256 -0.4947 -0.1268
  156DOPC  H14A18700   6.517   7.127  16.608  0.2121 -1.8859  0.9128
  156DOPC  H14B18701   6.377   7.244  16.630  0.9151  2.6125  2.4841
  156DOPC  H14C18702   6.528   7.249  16.730  1.1681 -1.0460 -0.4368
  156DOPC   C1518703   6.307   7.198  16.869  0.5122 -0.0249 -0.6282
  156DOPC  H15A18704   6.230   7.244  16.808  1.0752 -0.4409 -1.6858
  156DOPC  H15B18705   6.365   7.281  16.905  0.9530  0.3989 -2.2137
  156DOPC  H15C18706   6.256   7.147  16.950 -1.6133  0.7818 -1.3717
  156DOPC   C1118707   6.456   6.930  16.970 -0.3598 -0.2216  0.4537
  156DOPC  H11A18708   6.542   6.922  17.039  2.0847  0.1506 -2.3250
  156DOPC  H11B18709   6.372   6.973  17.028  0.4252  1.3356  0.4735
  156DOPC     P18710   6.448   6.669  16.975 -0.1780  0.1760 -0.0601
  156DOPC   O1318711   6.362   6.566  16.916  0.0448 -0.6612 -0.8905
  156DOPC   O1418712   6.437   6.696  17.123 -0.1436 -0.3724 -0.4349
  156DOPC   O1218713   6.408   6.805  16.909 -0.0248  0.2630 -0.2011
  156DOPC   O1118714   6.604   6.647  16.938 -0.2209  0.6607  0.0048
  156DOPC    C118715   6.675   6.707  16.831 -0.7013  0.0284  0.1162
  156DOPC    HA18716   6.774   6.657  16.830 -1.6320 -1.9534  0.6559
  156DOPC    HB18717   6.693   6.815  16.848 -1.7528  0.4510 -1.1854
  156DOPC    C218718   6.609   6.682  16.691  0.4540  0.2838 -0.2333
  156DOPC    HS18719   6.539   6.768  16.684 -1.9206 -1.3792  1.6368
  156DOPC   O2118720   6.545   6.553  16.692  0.1337  0.4323 -0.0498
  156DOPC   C2118721   6.439   6.550  16.620 -0.1786 -0.1699 -0.4291
  156DOPC   O2218722   6.395   6.645  16.556  0.2905  0.1390 -0.2685
  156DOPC   C2218723   6.390   6.404  16.615 -0.1964 -0.3540 -1.0129
  156DOPC   H2R18724   6.392   6.364  16.718  0.0952  0.9619 -0.4855
  156DOPC   H2S18725   6.457   6.350  16.544  0.6055 -0.1626 -0.4206
  156DOPC    C318726   6.724   6.691  16.587 -0.5614  0.2442  0.6128
  156DOPC    HX18727   6.794   6.610  16.616  0.7368  1.3868  0.8280
  156DOPC    HY18728   6.795   6.777  16.591 -0.9678  0.5680  1.0379
  156DOPC   O3118729   6.672   6.672  16.455  0.7587  0.2359 -0.0923
  156DOPC   C3118730   6.609   6.789  16.408 -1.5990 -0.4739 -0.2112
  156DOPC   O3218731   6.603   6.890  16.474  0.2472  0.3838 -0.1797
  156DOPC   C3218732   6.555   6.773  16.277  0.7705  0.3119 -0.5825
  156DOPC   H2X18733   6.581   6.669  16.249  0.7364  0.6229 -1.8291
  156DOPC   H2Y18734   6.445   6.780  16.284  0.7024 -0.3520 -0.9272
  156DOPC   C2318735   6.242   6.402  16.559 -0.3184 -0.4442 -0.1463
  156DOPC   H3R18736   6.185   6.480  16.613  2.7150  0.2849  2.3075
  156DOPC   H3S18737   6.193   6.304  16.579  1.0422 -0.6922  2.3459
  156DOPC   C2418738   6.227   6.430  16.409 -0.4369 -0.3655 -0.3631
  156DOPC   H4R18739   6.227   6.542  16.408  0.8032 -0.1608  3.8912
  156DOPC   H4S18740   6.128   6.404  16.364  0.7507 -4.0232 -1.1588
  156DOPC   C2518741   6.332   6.365  16.320  0.2105  0.1897  0.6631
  156DOPC   H5R18742   6.321   6.258  16.347 -0.2245  0.3004  0.9206
  156DOPC   H5S18743   6.431   6.409  16.346  0.7293  0.1989 -1.1957
  156DOPC   C2618744   6.290   6.370  16.172 -0.1593  0.0454 -0.0614
  156DOPC   H6R18745   6.260   6.474  16.147 -2.9616 -0.4166  0.9218
  156DOPC   H6S18746   6.203   6.303  16.155  0.7163 -1.2589  0.4323
  156DOPC   C2718747   6.408   6.331  16.082 -0.6757 -0.3643  0.0749
  156DOPC   H7R18748   6.477   6.258  16.130  0.1372 -0.7711 -1.6041
  156DOPC   H7S18749   6.475   6.419  16.083  1.9941 -2.2481  1.9840
  156DOPC   C2818750   6.365   6.269  15.948  0.2122  0.3573  0.5495
  156DOPC   H8R18751   6.292   6.186  15.960  0.0602  0.3853 -0.1376
  156DOPC   H8S18752   6.452   6.220  15.900 -0.5853 -1.6708  1.0796
  156DOPC   C2918753   6.308   6.369  15.847  0.4015 -0.8489 -0.3049
  156DOPC   H9R18754   6.294   6.469  15.890 -1.4555 -2.1094  2.2627
  156DOPC  C21018755   6.278   6.345  15.717  0.6697 -0.1210  0.1237
  156DOPC  H10R18756   6.261   6.434  15.654 -1.7740 -0.4569  0.2152
  156DOPC  C21118757   6.297   6.211  15.648  0.2133  0.0254 -0.6219
  156DOPC  H11R18758   6.202   6.171  15.607  0.4621 -1.1261 -0.1268
  156DOPC  H11S18759   6.328   6.141  15.729 -1.8246  0.4869  0.6483
  156DOPC  C21218760   6.418   6.227  15.557 -0.5033 -0.2323  0.1130
  156DOPC  H12R18761   6.439   6.124  15.520 -0.4993 -0.4992  0.8351
  156DOPC  H12S18762   6.510   6.259  15.611 -0.5127  0.5439 -0.3276
  156DOPC  C21318763   6.397   6.306  15.428  0.0333 -0.2351 -0.2641
  156DOPC  H13R18764   6.491   6.299  15.370 -0.3486 -0.5223 -0.8570
  156DOPC  H13S18765   6.391   6.415  15.449 -0.6522 -0.4404  0.6675
  156DOPC  C21418766   6.278   6.270  15.337 -0.5833 -0.0464 -0.5084
  156DOPC  H14R18767   6.290   6.339  15.251  3.2404  1.2465  0.8629
  156DOPC  H14S18768   6.190   6.300  15.399  0.3845  0.4610  0.6551
  156DOPC  C21518769   6.265   6.127  15.293  0.6969  1.0318  0.1814
  156DOPC  H15R18770   6.222   6.080  15.384 -0.4013  0.3648 -0.6535
  156DOPC  H15S18771   6.356   6.068  15.270 -0.6754 -1.4765  0.7610
  156DOPC  C21618772   6.159   6.110  15.177  0.3774  0.2880  0.0832
  156DOPC  H16R18773   6.176   6.169  15.085  0.6075 -1.2467 -0.8871
  156DOPC  H16S18774   6.059   6.146  15.210 -0.4956 -3.3924  1.9140
  156DOPC  C21718775   6.128   5.966  15.149  0.2844  0.3076  0.8392
  156DOPC  H17R18776   6.079   5.923  15.239 -0.9735 -0.6951 -0.2860
  156DOPC  H17S18777   6.226   5.919  15.126  0.0470  0.6364 -1.0462
  156DOPC  C21818778   6.039   5.951  15.028  0.2765 -0.2965  0.0857
  156DOPC  H18R18779   5.947   6.012  15.026  1.9701  2.3851 -1.1331
  156DOPC  H18S18780   6.015   5.845  15.004 -0.4646  0.3127 -2.0516
  156DOPC  H18T18781   6.095   5.988  14.939 -0.7934 -0.0503 -0.4982
  156DOPC   C3318782   6.621   6.865  16.171  0.4926  0.2735  0.3017
  156DOPC   H3X18783   6.728   6.844  16.149  0.6629  1.2151  0.2054
  156DOPC   H3Y18784   6.621   6.969  16.210 -0.1705 -0.0554  1.2095
  156DOPC   C3418785   6.540   6.870  16.033 -0.1111 -0.3648 -0.0247
  156DOPC   H4X18786   6.588   6.950  15.972  2.9894 -0.1248  2.4501
  156DOPC   H4Y18787   6.436   6.899  16.060 -0.2789 -0.4495 -0.5688
  156DOPC   C3518788   6.537   6.730  15.961 -0.7743 -1.0083 -0.4352
  156DOPC   H5X18789   6.506   6.654  16.036 -0.8031 -0.4007  0.1829
  156DOPC   H5Y18790   6.635   6.697  15.922  1.2107  0.4561  2.8481
  156DOPC   C3618791   6.422   6.718  15.859 -0.0969 -0.0618  0.6039
  156DOPC   H6X18792   6.427   6.620  15.807  0.7670  0.3689 -0.1638
  156DOPC   H6Y18793   6.323   6.726  15.908 -1.7125 -0.4011 -2.3510
  156DOPC   C3718794   6.438   6.830  15.742  0.0662 -0.2665  0.4524
  156DOPC   H7X18795   6.462   6.928  15.787 -1.2015 -0.4073  1.4837
  156DOPC   H7Y18796   6.527   6.793  15.686 -0.0326  0.6247 -0.3188
  156DOPC   C3818797   6.312   6.860  15.659  0.2852 -0.2120  0.3811
  156DOPC   H8X18798   6.329   6.943  15.588 -4.0407  1.2119  0.7390
  156DOPC   H8Y18799   6.241   6.905  15.731 -1.1902  0.1632 -1.2539
  156DOPC   C3918800   6.256   6.741  15.587  0.4477 -0.5227 -0.3403
  156DOPC   H9X18801   6.337   6.668  15.573  2.2569  1.1933  0.6477
  156DOPC  C31018802   6.131   6.712  15.556 -0.4151 -0.1244 -0.2611
  156DOPC  H10X18803   6.113   6.618  15.502  0.9624  0.0238 -1.0405
  156DOPC  C31118804   6.007   6.794  15.588  0.0344  1.1036  0.3247
  156DOPC  H11X18805   6.037   6.883  15.648 -0.7972  0.4388  1.7752
  156DOPC  H11Y18806   5.927   6.737  15.639  1.0830 -1.8178 -1.0597
  156DOPC  C31218807   5.958   6.862  15.453  0.1725 -0.0588 -0.2669
  156DOPC  H12X18808   6.048   6.917  15.421  2.0407 -1.9564  1.4291
  156DOPC  H12Y18809   5.869   6.925  15.476 -1.3057 -0.8707 -3.2734
  156DOPC  C31318810   5.913   6.776  15.327  0.4479 -0.2903  0.3049
  156DOPC  H13X18811   5.880   6.836  15.240 -0.9603 -0.3754  0.7511
  156DOPC  H13Y18812   6.007   6.720  15.307  1.2330  1.0875  0.0059
  156DOPC  C31418813   5.788   6.695  15.359  0.4679  0.2718 -0.1092
  156DOPC  H14X18814   5.810   6.632  15.448  3.7994  4.5883  2.4710
  156DOPC  H14Y18815   5.706   6.760  15.396  0.1371 -0.8533  1.2228
  156DOPC  C31518816   5.729   6.607  15.249 -0.0529 -0.2849 -0.1328
  156DOPC  H15X18817   5.803   6.530  15.216  0.1182  0.2172 -0.9743
  156DOPC  H15Y18818   5.725   6.665  15.154 -4.2835 -1.3901 -0.8320
  156DOPC  C31618819   5.592   6.551  15.289  0.6380  0.6777 -0.9246
  156DOPC  H16X18820   5.610   6.465  15.358 -0.4392 -0.8092 -2.4264
  156DOPC  H16Y18821   5.544   6.640  15.334 -3.6395 -1.0158 -1.6311
  156DOPC  C31718822   5.497   6.524  15.177 -0.4720  0.1265 -0.8889
  156DOPC  H17X18823   5.413   6.463  15.217 -0.1784  0.7930  0.8100
  156DOPC  H17Y18824   5.455   6.624  15.153  0.1851  1.0745  1.6248
  156DOPC  C31818825   5.556   6.454  15.054  0.6229  0.1548  0.0228
  156DOPC  H18X18826   5.599   6.357  15.086  0.1802  0.1717  0.6827
  156DOPC  H18Y18827   5.488   6.449  14.966  2.1177  0.7483 -1.2111
  156DOPC  H18Z18828   5.650   6.506  15.026  0.8066  0.6376  1.4651
  157DOPC     N18829   5.772   2.709  17.125 -0.2681  0.1275 -0.3903
  157DOPC   C1218830   5.810   2.710  16.968 -0.9583  0.5178  0.0597
  157DOPC  H12A18831   5.916   2.726  16.969 -0.7489 -0.7462  0.0258
  157DOPC  H12B18832   5.759   2.790  16.918 -1.6182 -1.2821 -2.3273
  157DOPC   C1318833   5.761   2.857  17.171  0.7996  0.1781  0.5292
  157DOPC  H13A18834   5.726   2.859  17.273 -1.5326  0.6408 -0.2440
  157DOPC  H13B18835   5.862   2.896  17.166  0.2353  1.5166 -2.2479
  157DOPC  H13C18836   5.700   2.923  17.111  0.2307 -1.1868 -0.4582
  157DOPC   C1418837   5.876   2.636  17.196  0.3322  0.4058 -0.1525
  157DOPC  H14A18838   5.840   2.611  17.295  0.1682 -1.7770 -0.7314
  157DOPC  H14B18839   5.903   2.541  17.153  1.0690 -0.0497  1.2433
  157DOPC  H14C18840   5.971   2.689  17.202  0.2694  0.6760 -1.3919
  157DOPC   C1518841   5.637   2.648  17.154  0.4992  0.4736 -0.1230
  157DOPC  H15A18842   5.636   2.541  17.138 -1.7693  0.3923  0.1931
  157DOPC  H15B18843   5.568   2.698  17.087 -0.8117 -0.5514  0.3979
  157DOPC  H15C18844   5.613   2.675  17.256  0.7724  1.6393 -0.3534
  157DOPC   C1118845   5.784   2.585  16.868 -0.7529  0.1368  0.2941
  157DOPC  H11A18846   5.675   2.566  16.858 -0.2407 -3.2508  0.0044
  157DOPC  H11B18847   5.825   2.620  16.771  3.7424 -0.2800  1.8016
  157DOPC     P18848   6.002   2.453  16.886 -0.0188 -0.0051 -0.4420
  157DOPC   O1318849   6.038   2.311  16.917  0.1323  0.4260  0.1453
  157DOPC   O1418850   6.076   2.561  16.949 -0.4479  0.5487 -0.1506
  157DOPC   O1218851   5.854   2.473  16.911 -0.9427 -0.0444 -0.3092
  157DOPC   O1118852   6.026   2.474  16.730  0.3845  0.3435  0.2517
  157DOPC    C118853   5.939   2.407  16.634 -0.8128  0.2514 -0.1321
  157DOPC    HA18854   5.855   2.476  16.610 -0.3738  0.5876 -0.7503
  157DOPC    HB18855   5.900   2.306  16.660 -2.7661  0.3511 -2.2990
  157DOPC    C218856   6.005   2.398  16.494  0.2067 -0.6914  0.6891
  157DOPC    HS18857   6.083   2.319  16.499  1.3893  0.4365  0.9134
  157DOPC   O2118858   6.063   2.526  16.456 -0.2908 -0.1991  0.2444
  157DOPC   C2118859   6.168   2.521  16.377 -0.2896  0.3037 -0.2404
  157DOPC   O2218860   6.214   2.420  16.331 -0.4236  0.8431  0.6786
  157DOPC   C2218861   6.206   2.668  16.341  0.0887 -0.2310 -0.2612
  157DOPC   H2R18862   6.238   2.727  16.429  2.9784 -0.7529 -0.8814
  157DOPC   H2S18863   6.110   2.713  16.307  0.1371  0.5153  0.5468
  157DOPC    C318864   5.895   2.346  16.396 -0.0328 -0.0435 -0.3581
  157DOPC    HX18865   5.825   2.431  16.377 -0.4535 -0.0425  1.0834
  157DOPC    HY18866   5.838   2.264  16.446 -1.7111 -0.1153 -2.2792
  157DOPC   O3118867   5.941   2.296  16.271  0.7092 -0.2695  0.0369
  157DOPC   C3118868   6.018   2.187  16.275 -0.1111  0.4025  0.3844
  157DOPC   O3218869   6.048   2.126  16.373 -0.1147 -0.1666  0.4656
  157DOPC   C3218870   6.055   2.147  16.137  0.4885  0.8033 -0.3450
  157DOPC   H2X18871   6.132   2.220  16.104  0.6268  2.3880  3.0657
  157DOPC   H2Y18872   6.095   2.044  16.141 -1.0604  0.1206 -1.6154
  157DOPC   C2318873   6.311   2.677  16.228 -0.9532  0.3599 -0.5709
  157DOPC   H3R18874   6.269   2.612  16.148 -0.8406 -3.2189  2.0066
  157DOPC   H3S18875   6.409   2.635  16.260 -1.4987 -0.4287  0.1018
  157DOPC   C2418876   6.307   2.816  16.166  0.4270  0.2732  0.0237
  157DOPC   H4R18877   6.204   2.846  16.139  1.2229  0.9780 -2.5529
  157DOPC   H4S18878   6.359   2.813  16.068 -0.8922  1.3994 -0.7342
  157DOPC   C2518879   6.363   2.933  16.250  0.4575  0.1842 -0.2118
  157DOPC   H5R18880   6.297   2.951  16.338  2.3341  3.9767  0.6208
  157DOPC   H5S18881   6.373   3.016  16.177  1.6616  0.6728  0.4794
  157DOPC   C2618882   6.497   2.885  16.314  0.0317 -0.7349 -0.7549
  157DOPC   H6R18883   6.485   2.800  16.384  2.0165 -0.2854  0.2060
  157DOPC   H6S18884   6.520   2.967  16.386 -1.0255 -0.8164 -0.2934
  157DOPC   C2718885   6.609   2.863  16.207 -0.1093 -0.0135  0.9396
  157DOPC   H7R18886   6.570   2.803  16.121 -0.6596 -0.2031  1.3225
  157DOPC   H7S18887   6.686   2.799  16.255  1.5375  0.4502 -0.8992
  157DOPC   C2818888   6.676   2.996  16.168 -0.0262 -0.6509 -0.4927
  157DOPC   H8R18889   6.700   3.058  16.257  2.5202 -0.4854 -1.1954
  157DOPC   H8S18890   6.613   3.055  16.098  3.4540 -0.5780 -3.8924
  157DOPC   C2918891   6.802   2.976  16.101  0.1468  0.1445  0.9212
  157DOPC   H9R18892   6.880   2.932  16.164  0.4087  0.2498  0.6714
  157DOPC  C21018893   6.826   2.992  15.969 -0.3139  0.0219 -0.4336
  157DOPC  H10R18894   6.929   2.976  15.933  0.3970  0.2761  1.3875
  157DOPC  C21118895   6.724   3.029  15.867 -0.2871 -0.1722 -0.5442
  157DOPC  H11R18896   6.736   3.135  15.839  0.9331 -0.0326  0.4032
  157DOPC  H11S18897   6.618   3.005  15.889 -0.0651 -1.0497 -0.3905
  157DOPC  C21218898   6.739   2.947  15.736  0.6239 -0.0579  0.8077
  157DOPC  H12R18899   6.837   2.958  15.686 -1.0842  0.4135 -2.7607
  157DOPC  H12S18900   6.667   2.978  15.657  1.1505 -2.0131 -0.5142
  157DOPC  C21318901   6.716   2.794  15.751  0.6820 -0.1771 -0.1977
  157DOPC  H13R18902   6.784   2.741  15.821  0.1487  0.8762  1.1509
  157DOPC  H13S18903   6.725   2.740  15.654 -1.9687  1.6116 -1.5901
  157DOPC  C21418904   6.569   2.762  15.794 -0.5423 -0.2060  0.5363
  157DOPC  H14R18905   6.503   2.830  15.736 -0.4919  0.5127  1.3020
  157DOPC  H14S18906   6.557   2.794  15.899 -0.1695  0.8780  0.2566
  157DOPC  C21518907   6.528   2.615  15.783  0.6184  0.1728  0.1577
  157DOPC  H15R18908   6.598   2.546  15.835  1.2427 -1.1200 -2.2332
  157DOPC  H15S18909   6.539   2.590  15.675 -2.8601 -1.9412  0.1297
  157DOPC  C21618910   6.391   2.584  15.838 -0.2696 -0.2866 -0.2815
  157DOPC  H16R18911   6.382   2.616  15.944  0.2301 -0.5821 -0.1490
  157DOPC  H16S18912   6.366   2.476  15.831 -1.1363 -0.2245  1.3252
  157DOPC  C21718913   6.285   2.666  15.770 -0.2939  0.2709 -0.0430
  157DOPC  H17R18914   6.293   2.684  15.661 -1.4637 -0.7048 -0.3117
  157DOPC  H17S18915   6.290   2.762  15.827  1.7889 -0.1444  0.5592
  157DOPC  C21818916   6.151   2.589  15.793 -0.2794 -0.4209 -0.1642
  157DOPC  H18R18917   6.128   2.583  15.902 -0.9002 -0.9358 -0.3182
  157DOPC  H18S18918   6.166   2.485  15.759 -0.8694 -0.2074 -1.0866
  157DOPC  H18T18919   6.064   2.638  15.745 -0.0417  1.5002  1.2104
  157DOPC   C3318920   5.945   2.150  16.021  0.1322  0.7786  0.1448
  157DOPC   H3X18921   5.920   2.258  16.015  1.1203  0.9614 -1.0524
  157DOPC   H3Y18922   5.851   2.102  16.055  0.3339  0.7373  0.6626
  157DOPC   C3418923   6.005   2.107  15.883  0.6492  0.0477 -0.4387
  157DOPC   H4X18924   5.989   1.998  15.868 -0.3529 -0.5115  3.6187
  157DOPC   H4Y18925   6.113   2.130  15.870  0.9561 -1.1906 -0.1919
  157DOPC   C3518926   5.942   2.186  15.761 -0.4497  0.1954 -0.0651
  157DOPC   H5X18927   5.921   2.290  15.793  0.3879  0.7554 -1.2582
  157DOPC   H5Y18928   5.848   2.133  15.733  0.0075 -0.9791  0.5346
  157DOPC   C3618929   6.029   2.182  15.636  0.4091  0.4516 -0.0849
  157DOPC   H6X18930   6.114   2.251  15.657  0.0472  0.4070  1.7506
  157DOPC   H6Y18931   6.062   2.077  15.625 -0.0531  0.3852 -0.9310
  157DOPC   C3718932   5.956   2.216  15.499  0.2364 -0.0223  0.5473
  157DOPC   H7X18933   6.039   2.242  15.430 -0.8267 -0.7954 -1.0779
  157DOPC   H7Y18934   5.898   2.129  15.462 -0.7090  1.1951 -0.9118
  157DOPC   C3818935   5.857   2.339  15.506 -0.5134 -0.1135  0.0152
  157DOPC   H8X18936   5.898   2.414  15.577 -0.8663  1.3325 -1.2395
  157DOPC   H8Y18937   5.760   2.302  15.547  0.4204 -2.6637  0.0714
  157DOPC   C3918938   5.831   2.393  15.369 -0.3901  0.2958 -0.3862
  157DOPC   H9X18939   5.745   2.352  15.313 -2.1548  3.1430  0.0290
  157DOPC  C31018940   5.907   2.481  15.300 -0.0274 -0.4352  0.1300
  157DOPC  H10X18941   5.885   2.505  15.195 -0.5375 -1.0181  0.0925
  157DOPC  C31118942   6.043   2.534  15.355  0.9311 -0.0025  0.1321
  157DOPC  H11X18943   6.118   2.552  15.274  1.5252 -0.1283  0.6454
  157DOPC  H11Y18944   6.101   2.454  15.407  1.9697 -0.9820 -2.3432
  157DOPC  C31218945   6.025   2.665  15.425 -0.2118  0.4607 -0.4405
  157DOPC  H12X18946   6.129   2.701  15.442  0.2875 -0.9883 -0.2341
  157DOPC  H12Y18947   5.980   2.639  15.523 -0.5102 -0.1247 -0.7288
  157DOPC  C31318948   5.946   2.772  15.347 -0.2242  0.2561 -0.6050
  157DOPC  H13X18949   5.984   2.767  15.243  3.1442 -1.7780  0.5605
  157DOPC  H13Y18950   5.837   2.751  15.351 -0.2250  0.4278  1.7269
  157DOPC  C31418951   5.958   2.910  15.420 -0.3084 -0.3447  0.2599
  157DOPC  H14X18952   5.875   2.931  15.491 -0.1114 -1.3889  0.8128
  157DOPC  H14Y18953   6.055   2.928  15.471 -0.3934 -2.0815  1.1057
  157DOPC  C31518954   5.945   3.037  15.327 -0.7351 -0.4664  0.5098
  157DOPC  H15X18955   6.035   3.023  15.263 -0.4895 -0.8922  0.9453
  157DOPC  H15Y18956   5.961   3.136  15.375 -0.2297  0.4203 -1.3802
  157DOPC  C31618957   5.809   3.054  15.262 -0.4451  0.5444  0.1912
  157DOPC  H16X18958   5.819   3.132  15.184  1.1323  0.0865 -0.1119
  157DOPC  H16Y18959   5.791   2.960  15.204 -3.1771  0.1173  1.5364
  157DOPC  C31718960   5.694   3.080  15.352 -0.9164 -0.3354  0.1087
  157DOPC  H17X18961   5.678   3.019  15.443  0.7191 -1.9165 -0.6020
  157DOPC  H17Y18962   5.710   3.177  15.405 -3.3820  0.7866 -1.0504
  157DOPC  C31818963   5.564   3.084  15.273  0.5133 -0.0008 -1.0061
  157DOPC  H18X18964   5.538   3.180  15.223 -0.8802 -0.0432 -0.4184
  157DOPC  H18Y18965   5.562   3.007  15.193  0.7056 -0.6293 -0.4153
  157DOPC  H18Z18966   5.474   3.069  15.336 -1.6796 -0.7342 -4.0488
  158DOPC     N18967   3.812   6.228  17.336  0.7343  0.3653 -0.1715
  158DOPC   C1218968   3.838   6.345  17.251  0.3414  0.2919  0.0079
  158DOPC  H12A18969   3.944   6.344  17.235  1.1459  1.8478  3.9364
  158DOPC  H12B18970   3.820   6.429  17.317  0.6803 -0.3973  1.0048
  158DOPC   C1318971   3.937   6.214  17.431  0.0731  0.4351  0.5125
  158DOPC  H13A18972   4.030   6.208  17.377  0.9485 -2.3050  2.1329
  158DOPC  H13B18973   3.942   6.293  17.505  0.6675 -0.3789  1.3706
  158DOPC  H13C18974   3.938   6.123  17.489  0.2767  0.1289  0.0328
  158DOPC   C1418975   3.823   6.108  17.244  0.1247  0.1227  0.5189
  158DOPC  H14A18976   3.925   6.099  17.208  0.2391  0.1357  0.8341
  158DOPC  H14B18977   3.789   6.017  17.292  2.4275 -1.8728 -1.3413
  158DOPC  H14C18978   3.762   6.125  17.156 -3.5875  0.1879  2.8975
  158DOPC   C1518979   3.689   6.222  17.414  0.5280 -1.0557 -0.3291
  158DOPC  H15A18980   3.606   6.209  17.346 -2.0194 -1.3389  2.6186
  158DOPC  H15B18981   3.670   6.310  17.473  1.5820 -1.5139  0.7446
  158DOPC  H15C18982   3.689   6.136  17.478  0.0294 -0.7598  0.0745
  158DOPC   C1118983   3.751   6.362  17.125  0.3416 -0.4818  0.3795
  158DOPC  H11A18984   3.642   6.357  17.148  0.5361 -1.0099  1.2150
  158DOPC  H11B18985   3.767   6.469  17.099  0.0122 -0.7015 -0.7913
  158DOPC     P18986   3.903   6.320  16.924 -0.0294 -0.0491 -0.3318
  158DOPC   O1318987   3.915   6.230  16.810 -0.5859 -0.3135  0.0070
  158DOPC   O1418988   4.022   6.333  17.014  0.2953 -0.8318  0.2623
  158DOPC   O1218989   3.778   6.271  17.010  0.2195 -0.2727 -0.0252
  158DOPC   O1118990   3.863   6.468  16.881  0.5794  0.1937  0.1925
  158DOPC    C118991   3.742   6.493  16.809 -0.4497  0.2328 -0.3007
  158DOPC    HA18992   3.662   6.516  16.883 -0.1113  2.0280 -0.4554
  158DOPC    HB18993   3.698   6.404  16.760 -0.3650  0.0028  0.0404
  158DOPC    C218994   3.762   6.598  16.696  0.7146  0.2799 -0.2882
  158DOPC    HS18995   3.671   6.598  16.632 -0.1929 -1.8423  0.8844
  158DOPC   O2118996   3.873   6.566  16.616 -0.6972 -0.7284 -0.1751
  158DOPC   C2118997   3.860   6.457  16.546  0.4963  0.5610 -0.4905
  158DOPC   O2218998   3.760   6.388  16.534  0.1712 -0.3085  0.8787
  158DOPC   C2218999   3.984   6.450  16.476 -0.6335  0.0250 -0.3136
  158DOPC   H2R19000   4.065   6.427  16.549 -0.1338  0.5298 -0.6946
  158DOPC   H2S19001   3.991   6.548  16.424 -1.9149  0.7828  0.8539
  158DOPC    C319002   3.771   6.742  16.753  0.3317  0.3875 -0.0250
  158DOPC    HX19003   3.806   6.722  16.857 -0.7867 -2.8287 -0.1816
  158DOPC    HY19004   3.667   6.782  16.761 -1.2501 -3.1263 -1.0326
  158DOPC   O3119005   3.856   6.833  16.682  0.2057  0.1154 -0.9001
  158DOPC   C3119006   3.805   6.880  16.569 -0.5846 -0.4687 -0.4337
  158DOPC   O3219007   3.698   6.845  16.524 -0.0293 -0.1187  0.1530
  158DOPC   C3219008   3.890   6.991  16.502 -0.4620 -0.1454 -0.5458
  158DOPC   H2X19009   3.843   7.088  16.526 -0.4740 -0.0525 -0.9529
  158DOPC   H2Y19010   3.986   6.988  16.557 -1.7095 -1.5732  1.7627
  158DOPC   C2319011   3.996   6.327  16.379  0.4472 -0.5371  0.4947
  158DOPC   H3R19012   3.919   6.344  16.300  2.8004  0.4712 -1.7124
  158DOPC   H3S19013   3.973   6.232  16.432 -1.6088 -0.6705 -0.5457
  158DOPC   C2419014   4.134   6.318  16.309  0.6438  0.0221  0.2776
  158DOPC   H4R19015   4.215   6.347  16.380  1.7882  1.9390 -1.6682
  158DOPC   H4S19016   4.151   6.390  16.225  0.9341  0.5322  0.7646
  158DOPC   C2519017   4.173   6.178  16.263  0.2919 -0.3899  0.0045
  158DOPC   H5R19018   4.185   6.128  16.362  0.5772 -1.0595 -0.3615
  158DOPC   H5S19019   4.271   6.196  16.214 -0.0878 -0.8685 -0.9526
  158DOPC   C2619020   4.081   6.103  16.170  0.0639  0.0798  0.2345
  158DOPC   H6R19021   3.979   6.078  16.206  1.1155 -2.8819  1.4450
  158DOPC   H6S19022   4.124   6.005  16.141  0.4586 -0.6382  2.9733
  158DOPC   C2719023   4.058   6.176  16.034 -0.2902  0.2701 -0.4044
  158DOPC   H7R19024   4.153   6.215  15.991  0.1413  0.9755  1.1111
  158DOPC   H7S19025   4.003   6.272  16.050  0.9364  0.8350  0.6659
  158DOPC   C2819026   3.994   6.081  15.932  0.2886 -0.1173  0.1527
  158DOPC   H8R19027   3.890   6.059  15.963  0.9495 -3.6056  0.2975
  158DOPC   H8S19028   4.055   5.989  15.940  0.8054 -0.1177 -2.6420
  158DOPC   C2919029   4.005   6.126  15.786  0.3946 -0.3642 -0.2648
  158DOPC   H9R19030   4.100   6.107  15.735  0.7053  1.0765 -0.2693
  158DOPC  C21019031   3.903   6.200  15.733 -0.4264  0.3373 -0.3592
  158DOPC  H10R19032   3.917   6.243  15.633  1.5334  0.7090  0.0191
  158DOPC  C21119033   3.776   6.245  15.797 -0.3363 -0.1075 -0.5669
  158DOPC  H11R19034   3.808   6.313  15.878  0.8750 -1.6569  0.2937
  158DOPC  H11S19035   3.722   6.153  15.829 -1.2328 -0.5578 -3.0619
  158DOPC  C21219036   3.679   6.333  15.710 -0.2132 -0.9366 -0.7608
  158DOPC  H12R19037   3.584   6.328  15.766  1.4720  0.2672  2.4852
  158DOPC  H12S19038   3.665   6.302  15.604 -0.2479 -0.2759 -0.9545
  158DOPC  C21319039   3.715   6.485  15.705 -0.9969  0.3818 -0.1242
  158DOPC  H13R19040   3.809   6.500  15.649  0.2066  0.3538  1.7766
  158DOPC  H13S19041   3.738   6.518  15.809  3.2200  2.1800 -1.4211
  158DOPC  C21419042   3.602   6.562  15.636  0.4570  0.0158 -0.1381
  158DOPC  H14R19043   3.505   6.514  15.664  0.6664  0.1451  0.8388
  158DOPC  H14S19044   3.610   6.564  15.526 -1.0019 -0.9057 -0.2889
  158DOPC  C21519045   3.595   6.710  15.687 -0.8392  0.3183  0.8439
  158DOPC  H15R19046   3.532   6.764  15.613 -2.1742  0.4451  2.0265
  158DOPC  H15S19047   3.699   6.748  15.688  0.1039 -2.0095 -0.2298
  158DOPC  C21619048   3.531   6.710  15.826 -0.0322 -0.3166  0.2435
  158DOPC  H16R19049   3.594   6.644  15.889 -0.7905 -0.9354  0.3646
  158DOPC  H16S19050   3.424   6.680  15.831  0.5953 -2.7154  0.4196
  158DOPC  C21719051   3.529   6.850  15.884  0.2536  0.4324  0.7415
  158DOPC  H17R19052   3.470   6.918  15.820  3.2046  1.7090 -0.8117
  158DOPC  H17S19053   3.629   6.898  15.879  0.4241 -0.0206 -0.9843
  158DOPC  C21819054   3.486   6.856  16.033  0.2004  0.0205  0.6212
  158DOPC  H18R19055   3.493   6.751  16.070 -1.3930  0.2779  1.7481
  158DOPC  H18S19056   3.384   6.898  16.044  0.1811  0.4253 -0.8459
  158DOPC  H18T19057   3.556   6.914  16.097  0.5829  0.8684 -0.5368
  158DOPC   C3319058   3.889   6.976  16.348  0.1923  0.1856 -0.6521
  158DOPC   H3X19059   3.897   7.074  16.296  2.2825  1.2364  1.4760
  158DOPC   H3Y19060   3.789   6.936  16.319 -0.7521  0.7560  1.6678
  158DOPC   C3419061   3.999   6.881  16.301  0.5197 -0.1421 -0.3702
  158DOPC   H4X19062   3.988   6.786  16.358  0.6411  0.4999  0.7527
  158DOPC   H4Y19063   4.091   6.930  16.341  0.8691 -0.2219 -1.0598
  158DOPC   C3519064   4.004   6.868  16.149  0.5751  0.2770 -0.4193
  158DOPC   H5X19065   4.062   6.956  16.113  1.0408 -0.7650 -2.3398
  158DOPC   H5Y19066   3.898   6.872  16.115 -0.3998 -0.0318  2.3325
  158DOPC   C3619067   4.075   6.744  16.090 -0.1885  0.1330 -0.5401
  158DOPC   H6X19068   4.043   6.655  16.148 -1.0547  1.3916  0.9671
  158DOPC   H6Y19069   4.047   6.722  15.984  1.1143  0.0359 -0.8849
  158DOPC   C3719070   4.235   6.743  16.089  0.3318  0.4142 -0.1517
  158DOPC   H7X19071   4.285   6.841  16.075 -1.4506  1.2414 -1.0201
  158DOPC   H7Y19072   4.248   6.712  16.195 -0.8344 -0.9911 -0.3919
  158DOPC   C3819073   4.288   6.644  15.995 -0.6324  0.1169  0.1417
  158DOPC   H8X19074   4.236   6.547  15.996  0.6226 -0.5952  2.5900
  158DOPC   H8Y19075   4.391   6.613  16.024 -0.8304 -1.8207 -1.0766
  158DOPC   C3919076   4.278   6.702  15.856  0.0659 -0.2055 -0.0591
  158DOPC   H9X19077   4.323   6.802  15.850  1.0642 -0.7377 -3.2069
  158DOPC  C31019078   4.229   6.658  15.736  0.0390 -0.0987  0.4690
  158DOPC  H10X19079   4.235   6.723  15.647  0.4179  2.0904  2.0147
  158DOPC  C31119080   4.169   6.527  15.706  0.0087  0.2693  0.0027
  158DOPC  H11X19081   4.071   6.544  15.657 -0.2332 -3.7487 -1.2127
  158DOPC  H11Y19082   4.147   6.468  15.798  0.4919 -0.0188 -0.0660
  158DOPC  C31219083   4.249   6.428  15.620  1.1589  0.0878  0.4721
  158DOPC  H12X19084   4.202   6.331  15.647 -0.2753 -0.5042 -3.5042
  158DOPC  H12Y19085   4.355   6.426  15.654  1.5458  1.4889 -0.5522
  158DOPC  C31319086   4.238   6.432  15.471  0.2144  0.0902  0.0040
  158DOPC  H13X19087   4.134   6.407  15.442  0.9023 -1.3752 -1.3781
  158DOPC  H13Y19088   4.271   6.530  15.431 -0.4667  0.7083  0.9170
  158DOPC  C31419089   4.331   6.323  15.409  0.4772 -0.1488  0.1437
  158DOPC  H14X19090   4.326   6.324  15.298  2.3325  0.0762  0.0421
  158DOPC  H14Y19091   4.438   6.345  15.428  0.9496 -2.1006 -0.0611
  158DOPC  C31519092   4.314   6.177  15.451  0.7309  1.2398 -0.1089
  158DOPC  H15X19093   4.320   6.165  15.561  0.3701 -1.1400 -0.3097
  158DOPC  H15Y19094   4.396   6.118  15.405 -0.0081  1.4894 -1.8003
  158DOPC  C31619095   4.186   6.114  15.395  0.2633  1.1236  0.3675
  158DOPC  H16X19096   4.095   6.163  15.436 -1.0789 -1.4687  0.7564
  158DOPC  H16Y19097   4.188   6.140  15.287  0.4698  0.4517  0.2047
  158DOPC  C31719098   4.179   5.960  15.409 -0.1322 -0.1256  0.4468
  158DOPC  H17X19099   4.167   5.923  15.514 -1.4686  1.0150  0.7256
  158DOPC  H17Y19100   4.091   5.925  15.352  1.2986  1.2432 -2.8181
  158DOPC  C31819101   4.296   5.885  15.349  0.0950  0.3357  0.0448
  158DOPC  H18X19102   4.258   5.780  15.349 -1.5311  0.8570  2.0431
  158DOPC  H18Y19103   4.323   5.927  15.250 -1.2320  3.3107  0.8349
  158DOPC  H18Z19104   4.385   5.878  15.416  0.1778 -0.8276 -0.1629
  159DOPC     N19105   6.293   2.080  16.733  0.1513  0.6094  0.6064
  159DOPC   C1219106   6.342   2.175  16.638  0.0908 -0.9836 -0.4427
  159DOPC  H12A19107   6.287   2.160  16.546 -2.0157  2.7052  0.0117
  159DOPC  H12B19108   6.449   2.184  16.623  0.3951  2.5361  2.1987
  159DOPC   C1319109   6.141   2.082  16.733  0.2192  0.0559  0.4830
  159DOPC  H13A19110   6.101   2.055  16.637 -1.0938  0.5461  0.8805
  159DOPC  H13B19111   6.094   2.016  16.804 -0.4571  0.6690  0.6070
  159DOPC  H13C19112   6.112   2.183  16.756 -2.1901 -0.8295  1.6929
  159DOPC   C1419113   6.326   2.104  16.881 -0.9106  0.9643 -0.4594
  159DOPC  H14A19114   6.279   2.191  16.926  1.5949  2.1011  0.1608
  159DOPC  H14B19115   6.299   2.019  16.941  0.9436  0.6742  0.0215
  159DOPC  H14C19116   6.433   2.112  16.891 -0.6690  0.2842 -2.1022
  159DOPC   C1519117   6.335   1.935  16.712 -0.1613 -0.1681  0.0115
  159DOPC  H15A19118   6.311   1.914  16.609 -0.4190  3.3592 -0.7605
  159DOPC  H15B19119   6.281   1.871  16.780  0.9660  0.4328  1.5375
  159DOPC  H15C19120   6.442   1.931  16.723  0.1477 -1.6692 -2.7722
  159DOPC   C1119121   6.317   2.324  16.674  0.4267 -0.1280  0.5744
  159DOPC  H11A19122   6.308   2.388  16.584 -0.2693  0.4781  1.0657
  159DOPC  H11B19123   6.216   2.334  16.720  1.1419  0.0394  2.1560
  159DOPC     P19124   6.567   2.396  16.714  0.3257  0.2017  0.0254
  159DOPC   O1319125   6.636   2.271  16.672 -0.1482 -0.6013 -0.3383
  159DOPC   O1419126   6.622   2.481  16.825  0.2841  0.4935 -0.3239
  159DOPC   O1219127   6.419   2.369  16.759  0.1670 -0.0007 -0.3989
  159DOPC   O1119128   6.538   2.486  16.583  0.4464 -0.3194 -0.2059
  159DOPC    C119129   6.628   2.469  16.477 -0.3284  0.3004  0.4231
  159DOPC    HA19130   6.583   2.528  16.394  0.6332 -1.0081 -1.0952
  159DOPC    HB19131   6.626   2.364  16.441  0.5662 -0.2967  2.0227
  159DOPC    C219132   6.773   2.520  16.514 -0.1089 -0.6951  0.3650
  159DOPC    HS19133   6.806   2.474  16.610  0.9878  1.2165  0.9430
  159DOPC   O2119134   6.768   2.663  16.518  0.2972 -0.4953 -0.0796
  159DOPC   C2119135   6.850   2.719  16.596  0.1361 -0.5603  0.3952
  159DOPC   O2219136   6.937   2.664  16.664 -0.2080 -0.1387 -0.7424
  159DOPC   C2219137   6.838   2.872  16.583  0.0757  0.7409  0.3054
  159DOPC   H2R19138   6.760   2.912  16.652 -1.5325  1.3021 -1.7133
  159DOPC   H2S19139   6.809   2.909  16.482  0.7004  1.7035  0.4591
  159DOPC    C319140   6.882   2.486  16.410 -0.0670  0.1359  0.0973
  159DOPC    HX19141   6.877   2.375  16.407  1.4404  0.0466 -3.0995
  159DOPC    HY19142   6.979   2.522  16.451  1.2970 -2.4518 -0.6291
  159DOPC   O3119143   6.861   2.538  16.281  0.1259  0.0596 -0.1834
  159DOPC   C3119144   6.797   2.466  16.195 -0.6029  0.0150  0.0541
  159DOPC   O3219145   6.756   2.355  16.222 -0.2350  0.1063 -0.6806
  159DOPC   C3219146   6.833   2.516  16.058 -0.0057 -0.2031 -0.2752
  159DOPC   H2X19147   6.743   2.564  16.014  1.3784  1.4946 -1.4062
  159DOPC   H2Y19148   6.907   2.597  16.076 -0.5440  0.1823  0.2515
  159DOPC   C2319149   6.974   2.942  16.601  0.5017 -0.0463  0.1851
  159DOPC   H3R19150   7.023   2.898  16.691  0.4907 -0.1749  0.1294
  159DOPC   H3S19151   6.961   3.048  16.629  0.4171  0.3172 -1.1598
  159DOPC   C2419152   7.058   2.957  16.476  0.3575 -0.2718 -0.1412
  159DOPC   H4R19153   7.151   3.011  16.505  0.5632 -0.7736  0.1478
  159DOPC   H4S19154   6.996   3.015  16.405 -1.9783 -2.4343 -0.0002
  159DOPC   C2519155   7.087   2.827  16.394 -0.0888 -0.3755 -0.3559
  159DOPC   H5R19156   6.995   2.793  16.343 -1.4493  1.1897  0.9327
  159DOPC   H5S19157   7.109   2.753  16.474  1.7310 -1.7362 -2.0166
  159DOPC   C2619158   7.206   2.838  16.298  0.5325  0.1283  0.6048
  159DOPC   H6R19159   7.289   2.894  16.346 -0.1233  0.4926  1.3298
  159DOPC   H6S19160   7.181   2.895  16.206 -1.1639 -0.5620  0.6076
  159DOPC   C2719161   7.263   2.708  16.242  0.8050 -0.1803  0.2630
  159DOPC   H7R19162   7.341   2.723  16.165  1.8313 -2.2688  0.8168
  159DOPC   H7S19163   7.179   2.659  16.189  0.6445 -0.9264  1.1736
  159DOPC   C2819164   7.318   2.613  16.351  0.2955 -0.0853  0.6293
  159DOPC   H8R19165   7.244   2.575  16.425  0.5438 -1.7862  0.0360
  159DOPC   H8S19166   7.391   2.675  16.408  0.3503  1.2460 -0.8193
  159DOPC   C2919167   7.397   2.504  16.287  0.3043 -0.8508  0.2753
  159DOPC   H9R19168   7.503   2.526  16.264 -0.4748  2.0682 -1.0852
  159DOPC  C21019169   7.366   2.372  16.270 -0.0614 -0.3033  0.3814
  159DOPC  H10R19170   7.441   2.302  16.228 -0.4115 -1.0732  1.0118
  159DOPC  C21119171   7.243   2.316  16.319  0.2411 -0.6465 -0.5844
  159DOPC  H11R19172   7.162   2.392  16.327  0.8192 -0.0522 -0.3735
  159DOPC  H11S19173   7.257   2.276  16.421  0.7325  0.1268 -0.3420
  159DOPC  C21219174   7.182   2.207  16.223  0.0723  0.2356 -0.3195
  159DOPC  H12R19175   7.184   2.252  16.121 -1.9708  2.5792  0.5840
  159DOPC  H12S19176   7.074   2.193  16.244 -0.0477  0.4308 -0.7728
  159DOPC  C21319177   7.256   2.074  16.231 -0.3103  0.0597  0.2885
  159DOPC  H13R19178   7.252   2.031  16.333 -0.0503 -0.0775  0.2409
  159DOPC  H13S19179   7.363   2.087  16.205 -0.6294 -0.0120 -1.1171
  159DOPC  C21419180   7.205   1.980  16.118  0.5603  0.1986  0.2818
  159DOPC  H14R19181   7.281   1.903  16.094  0.4052 -0.0494  0.5879
  159DOPC  H14S19182   7.190   2.048  16.031 -1.4704 -1.3249 -0.6492
  159DOPC  C21519183   7.085   1.896  16.158  0.2526 -0.6109 -0.1626
  159DOPC  H15R19184   6.992   1.955  16.176 -0.0580 -0.8856 -0.8323
  159DOPC  H15S19185   7.113   1.842  16.251 -0.8908 -0.9926 -0.0280
  159DOPC  C21619186   7.065   1.786  16.053 -1.1042  0.5675 -0.4448
  159DOPC  H16R19187   7.004   1.713  16.111  1.2057 -0.3542  0.9706
  159DOPC  H16S19188   7.158   1.729  16.030 -0.1371  1.2297  1.6268
  159DOPC  C21719189   7.003   1.813  15.915  0.0486 -0.1721 -0.0972
  159DOPC  H17R19190   7.003   1.712  15.868  2.2399 -0.8955  1.3237
  159DOPC  H17S19191   7.059   1.885  15.851 -1.6085  2.3718  1.1644
  159DOPC  C21819192   6.862   1.862  15.917  0.1928 -0.2626  0.3078
  159DOPC  H18R19193   6.853   1.973  15.923  0.9442 -0.0696 -1.5392
  159DOPC  H18S19194   6.802   1.814  15.997  1.4485 -1.9523  0.3062
  159DOPC  H18T19195   6.825   1.846  15.814  2.0524  0.3146 -0.4989
  159DOPC   C3319196   6.891   2.411  15.959  0.3311  0.0517 -0.5089
  159DOPC   H3X19197   6.819   2.326  15.956  1.5663 -1.1056  0.8536
  159DOPC   H3Y19198   6.987   2.379  16.003  1.1492 -0.0884 -2.3247
  159DOPC   C3419199   6.924   2.466  15.817  0.3211 -0.3489  0.1731
  159DOPC   H4X19200   7.010   2.533  15.842  0.1242 -0.1544  0.3314
  159DOPC   H4Y19201   6.832   2.519  15.785  1.9482  1.4863 -1.7443
  159DOPC   C3519202   6.969   2.357  15.724 -0.4292 -0.3053  0.2142
  159DOPC   H5X19203   6.899   2.271  15.730  0.3600 -0.9009  1.2163
  159DOPC   H5Y19204   7.074   2.329  15.747  0.5468  0.7772 -2.5203
  159DOPC   C3619205   6.965   2.403  15.574  0.6963  0.7426 -0.4874
  159DOPC   H6X19206   7.040   2.484  15.558  0.5039  1.4986  2.0462
  159DOPC   H6Y19207   7.001   2.318  15.512 -0.5922 -0.3158  0.1635
  159DOPC   C3719208   6.818   2.448  15.530  0.2533 -1.0850 -0.3853
  159DOPC   H7X19209   6.734   2.376  15.538 -0.5971 -0.1469 -0.5350
  159DOPC   H7Y19210   6.794   2.537  15.592 -0.5667 -1.3452 -0.3207
  159DOPC   C3819211   6.821   2.502  15.380  0.0115  0.9736  0.5919
  159DOPC   H8X19212   6.857   2.424  15.309 -1.9685  1.6053 -1.2208
  159DOPC   H8Y19213   6.899   2.579  15.365  0.6153  0.0159 -1.7100
  159DOPC   C3919214   6.691   2.567  15.340 -0.8354  0.4707  0.3281
  159DOPC   H9X19215   6.673   2.663  15.390 -1.0050 -0.2623  1.7010
  159DOPC  C31019216   6.604   2.524  15.246  0.5769  0.2238 -0.4598
  159DOPC  H10X19217   6.512   2.582  15.227 -0.0368 -0.9771 -1.2779
  159DOPC  C31119218   6.619   2.395  15.165 -0.4261 -0.3111  0.0011
  159DOPC  H11X19219   6.704   2.332  15.198  0.3503  1.2420  1.0871
  159DOPC  H11Y19220   6.652   2.426  15.064  0.4045  1.4365  0.7621
  159DOPC  C31219221   6.499   2.301  15.157  0.2867  0.6805  0.7260
  159DOPC  H12X19222   6.534   2.203  15.116  1.9668  0.3413  2.8105
  159DOPC  H12Y19223   6.430   2.342  15.080  0.4669 -2.6982 -1.4494
  159DOPC  C31319224   6.421   2.285  15.286  0.3519  0.2824 -0.3204
  159DOPC  H13X19225   6.392   2.385  15.325 -0.3041 -0.1896  0.4048
  159DOPC  H13Y19226   6.328   2.238  15.247  0.5157  0.7929 -1.3794
  159DOPC  C31419227   6.480   2.182  15.385  0.3049 -0.0084  0.2151
  159DOPC  H14X19228   6.498   2.091  15.324 -1.6494  0.7489 -1.6245
  159DOPC  H14Y19229   6.576   2.228  15.418  2.1090 -2.4560 -1.3032
  159DOPC  C31519230   6.391   2.149  15.500  0.0225  0.6835  0.6271
  159DOPC  H15X19231   6.313   2.075  15.471  0.8882 -0.3487  0.8863
  159DOPC  H15Y19232   6.333   2.242  15.520 -0.9101  0.0948  0.7159
  159DOPC  C31619233   6.471   2.111  15.626  1.0288 -0.4850  0.4085
  159DOPC  H16X19234   6.420   2.043  15.698 -1.5270  0.7047 -0.1502
  159DOPC  H16Y19235   6.568   2.066  15.594  1.4263  0.5385  0.1466
  159DOPC  C31719236   6.499   2.238  15.710  0.0875  0.0801  0.3136
  159DOPC  H17X19237   6.571   2.304  15.658 -0.0756  1.5488  1.8708
  159DOPC  H17Y19238   6.403   2.293  15.706 -0.1282 -0.3723 -2.6674
  159DOPC  C31819239   6.520   2.214  15.856  0.3083  0.5085 -1.0157
  159DOPC  H18X19240   6.600   2.137  15.861  0.3170  0.5669 -0.0634
  159DOPC  H18Y19241   6.557   2.311  15.896 -0.3137  0.8630 -1.2838
  159DOPC  H18Z19242   6.424   2.182  15.901  0.7371 -1.0912 -1.1988
  160DOPC     N19243   1.680   6.436  17.262 -0.5058  0.4326  0.0679
  160DOPC   C1219244   1.609   6.408  17.134  0.6194 -0.1603  0.3256
  160DOPC  H12A19245   1.612   6.492  17.065 -1.0811 -0.2609  0.0993
  160DOPC  H12B19246   1.508   6.390  17.166  0.7517  0.3958  1.0698
  160DOPC   C1319247   1.710   6.312  17.344  0.3918  0.1963  0.8585
  160DOPC  H13A19248   1.777   6.340  17.424  0.6156  1.8857  0.1331
  160DOPC  H13B19249   1.617   6.270  17.381  0.6744  2.4157  4.5382
  160DOPC  H13C19250   1.760   6.239  17.283 -0.9858  2.5836 -3.5653
  160DOPC   C1419251   1.608   6.530  17.352 -1.2002 -0.6178  0.3789
  160DOPC  H14A19252   1.512   6.490  17.380 -0.7139 -0.7716  1.8872
  160DOPC  H14B19253   1.672   6.544  17.438  2.9348  1.1532 -2.6375
  160DOPC  H14C19254   1.596   6.627  17.307  1.3098  0.2052  1.3344
  160DOPC   C1519255   1.820   6.491  17.232  0.8961 -0.0705 -0.1481
  160DOPC  H15A19256   1.843   6.560  17.311  2.0100  0.4734 -0.9236
  160DOPC  H15B19257   1.814   6.564  17.153 -2.5874 -0.6724 -0.6271
  160DOPC  H15C19258   1.894   6.415  17.216 -1.1515 -2.8253  2.2525
  160DOPC   C1119259   1.646   6.274  17.055 -0.0236  0.0362 -0.3697
  160DOPC  H11A19260   1.628   6.190  17.126  0.2778  0.3939  0.1431
  160DOPC  H11B19261   1.576   6.247  16.974  0.3569 -2.0610 -0.0430
  160DOPC     P19262   1.813   6.339  16.865 -0.2222 -0.2334 -0.0204
  160DOPC   O1319263   1.949   6.305  16.820 -0.1379  0.5238  0.2467
  160DOPC   O1419264   1.777   6.485  16.871 -0.4040 -0.4324  0.0218
  160DOPC   O1219265   1.784   6.275  17.015  0.3605 -0.0554  0.4217
  160DOPC   O1119266   1.715   6.265  16.774  0.5466  0.5061  0.1976
  160DOPC    C119267   1.685   6.314  16.646  0.5991  0.0395  0.3673
  160DOPC    HA19268   1.734   6.412  16.630  0.8126  0.2827  2.2739
  160DOPC    HB19269   1.577   6.343  16.642  0.7486  0.4584 -1.8583
  160DOPC    C219270   1.714   6.211  16.530 -0.2983  0.0952 -0.5016
  160DOPC    HS19271   1.824   6.195  16.533 -0.3223  0.0078  0.5767
  160DOPC   O2119272   1.662   6.264  16.410 -0.3683 -0.0038  0.5049
  160DOPC   C2119273   1.746   6.343  16.342  0.4843  0.5918  0.3212
  160DOPC   O2219274   1.853   6.367  16.382 -0.6519  0.1453  0.0919
  160DOPC   C2219275   1.683   6.393  16.216 -0.5567 -0.0458 -0.2825
  160DOPC   H2R19276   1.729   6.485  16.174 -1.9010  1.4419  1.3320
  160DOPC   H2S19277   1.583   6.433  16.243  0.3209  1.5591  0.7305
  160DOPC    C319278   1.645   6.073  16.556  0.1527 -0.0741  0.1363
  160DOPC    HX19279   1.534   6.077  16.558  0.1547  0.0461  0.0151
  160DOPC    HY19280   1.670   6.048  16.662  0.7549 -0.3038 -0.0589
  160DOPC   O3119281   1.687   5.969  16.470 -0.7073 -0.1560  0.2477
  160DOPC   C3119282   1.621   5.944  16.365  0.0508  0.3385  0.5283
  160DOPC   O3219283   1.525   6.000  16.317 -0.2440 -0.5024 -0.1360
  160DOPC   C3219284   1.682   5.812  16.311  0.0814 -0.4032 -0.5767
  160DOPC   H2X19285   1.781   5.844  16.272  0.1789 -3.2289 -3.0631
  160DOPC   H2Y19286   1.690   5.747  16.401 -1.1572 -0.9007 -0.8144
  160DOPC   C2319287   1.663   6.274  16.117 -0.2046 -0.2846  0.0815
  160DOPC   H3R19288   1.570   6.218  16.140 -1.3733  0.5978 -2.0919
  160DOPC   H3S19289   1.748   6.205  16.135 -0.3504 -0.2469  0.9227
  160DOPC   C2419290   1.655   6.324  15.973 -0.0747  0.3175  0.5426
  160DOPC   H4R19291   1.756   6.356  15.940  1.0221 -2.7551  0.6215
  160DOPC   H4S19292   1.602   6.421  15.974 -0.4350  0.1200  0.8763
  160DOPC   C2519293   1.604   6.218  15.875 -0.3529  1.1982 -1.1580
  160DOPC   H5R19294   1.515   6.158  15.906 -0.5168  2.2055  0.4825
  160DOPC   H5S19295   1.686   6.144  15.866  0.6889  2.2520 -0.5860
  160DOPC   C2619296   1.597   6.291  15.744  0.0036 -0.5112  0.1809
  160DOPC   H6R19297   1.695   6.342  15.737  0.1314 -0.4978  1.7284
  160DOPC   H6S19298   1.521   6.372  15.740  0.6957  0.3260  2.7054
  160DOPC   C2719299   1.581   6.191  15.630  0.4203 -0.5403  0.6122
  160DOPC   H7R19300   1.505   6.119  15.666 -0.9564  1.1468  1.1738
  160DOPC   H7S19301   1.681   6.143  15.617  0.3022 -0.9326  1.1398
  160DOPC   C2819302   1.530   6.260  15.499 -0.0043  0.5638  0.4479
  160DOPC   H8R19303   1.441   6.324  15.519  1.0171  1.7414  1.4746
  160DOPC   H8S19304   1.490   6.182  15.431  0.6230  0.2470  0.4354
  160DOPC   C2919305   1.645   6.342  15.439 -0.0178 -0.0540 -0.1703
  160DOPC   H9R19306   1.730   6.291  15.390  0.6649  2.3280 -1.6501
  160DOPC  C21019307   1.662   6.475  15.427  0.0882  0.7502  0.1804
  160DOPC  H10R19308   1.740   6.504  15.355  0.5847  2.8931  1.4838
  160DOPC  C21119309   1.573   6.584  15.483  0.6437  0.1895  0.4059
  160DOPC  H11R19310   1.641   6.632  15.556  1.0228 -1.4600  1.2000
  160DOPC  H11S19311   1.486   6.545  15.540 -0.0066 -1.2162 -1.4389
  160DOPC  C21219312   1.515   6.674  15.369 -0.0585 -0.3669  0.0910
  160DOPC  H12R19313   1.603   6.729  15.331  0.4466 -2.2193 -1.5967
  160DOPC  H12S19314   1.450   6.744  15.426  0.9575  0.5613  0.1446
  160DOPC  C21319315   1.433   6.597  15.258  0.3778  0.1761 -0.1891
  160DOPC  H13R19316   1.364   6.532  15.315  0.7228 -0.7785 -0.8502
  160DOPC  H13S19317   1.486   6.533  15.185  0.2041  0.5381 -0.6435
  160DOPC  C21419318   1.342   6.688  15.172  0.2487  0.2515  0.3152
  160DOPC  H14R19319   1.254   6.713  15.235 -0.6922  0.1342 -0.9089
  160DOPC  H14S19320   1.313   6.638  15.077 -3.5718  0.2648  1.3199
  160DOPC  C21519321   1.392   6.827  15.139  0.1099  0.5932 -0.3183
  160DOPC  H15R19322   1.502   6.824  15.128  0.0456  1.0797 -1.2576
  160DOPC  H15S19323   1.376   6.904  15.218 -0.0748  1.8954 -1.5786
  160DOPC  C21619324   1.336   6.883  15.009 -0.7869  0.1818 -0.4985
  160DOPC  H16R19325   1.229   6.865  14.985 -0.6483 -1.1315 -0.2185
  160DOPC  H16S19326   1.387   6.821  14.932  3.1958 -1.1549  2.8176
  160DOPC  C21719327   1.380   7.027  14.982  0.1420 -0.2934 -0.0272
  160DOPC  H17R19328   1.343   7.093  15.064  0.2615  1.1926 -1.1313
  160DOPC  H17S19329   1.331   7.060  14.888 -1.4126  0.6769  1.0694
  160DOPC  C21819330   1.528   7.043  14.966  0.0477  0.1938 -0.1388
  160DOPC  H18R19331   1.564   6.983  14.880 -1.3833  0.7199 -1.1420
  160DOPC  H18S19332   1.588   7.038  15.059  1.9998  0.1246 -1.3448
  160DOPC  H18T19333   1.541   7.150  14.939  1.6016 -0.3468 -1.7221
  160DOPC   C3319334   1.613   5.747  16.191 -0.1129  0.4144 -0.7930
  160DOPC   H3X19335   1.504   5.732  16.208  0.2258 -1.4463 -0.0793
  160DOPC   H3Y19336   1.657   5.645  16.188 -1.1217 -0.2223  2.0766
  160DOPC   C3419337   1.644   5.820  16.066  0.2400 -0.0450 -0.1764
  160DOPC   H4X19338   1.754   5.828  16.059  0.1510  3.2341  0.5089
  160DOPC   H4Y19339   1.608   5.925  16.058 -0.4701 -0.2863 -0.2431
  160DOPC   C3519340   1.582   5.736  15.950  0.1756 -0.4091 -0.5862
  160DOPC   H5X19341   1.481   5.702  15.981  0.5446 -1.4278 -0.4542
  160DOPC   H5Y19342   1.642   5.643  15.937  1.4006  0.3110 -0.2972
  160DOPC   C3619343   1.578   5.808  15.816  0.5846 -0.5202  0.0477
  160DOPC   H6X19344   1.512   5.897  15.824 -1.6864 -1.8187 -2.6415
  160DOPC   H6Y19345   1.682   5.824  15.781  1.2814 -5.8969 -1.1545
  160DOPC   C3719346   1.518   5.722  15.708  0.0498 -0.1120 -0.0690
  160DOPC   H7X19347   1.547   5.616  15.727  0.0855 -0.0481  0.2460
  160DOPC   H7Y19348   1.408   5.733  15.714  0.0633 -0.2284  0.3955
  160DOPC   C3819349   1.578   5.767  15.573  0.4557  0.0592  0.8793
  160DOPC   H8X19350   1.687   5.751  15.584  0.7159  1.1802 -0.0282
  160DOPC   H8Y19351   1.568   5.877  15.567 -0.2708 -0.0227  0.4693
  160DOPC   C3919352   1.521   5.710  15.446  0.2766 -0.6355 -1.0940
  160DOPC   H9X19353   1.501   5.602  15.440  0.3628 -0.5849 -2.6379
  160DOPC  C31019354   1.487   5.787  15.336  0.7297  0.3220  0.2031
  160DOPC  H10X19355   1.440   5.731  15.254 -2.1355 -0.8133  2.4098
  160DOPC  C31119356   1.511   5.933  15.322 -0.2525 -0.6884  0.1201
  160DOPC  H11X19357   1.567   5.991  15.398 -0.9283 -0.8948  0.7958
  160DOPC  H11Y19358   1.410   5.977  15.309  0.1382 -0.4091 -2.4988
  160DOPC  C31219359   1.584   5.963  15.191  0.4104  0.2500 -0.5533
  160DOPC  H12X19360   1.519   5.927  15.108  0.4764 -0.1800 -0.4227
  160DOPC  H12Y19361   1.678   5.906  15.179  0.3116  0.3161 -1.7809
  160DOPC  C31319362   1.603   6.116  15.162 -0.5375  0.2931  0.3236
  160DOPC  H13X19363   1.513   6.165  15.204 -1.0080  1.0999 -1.5419
  160DOPC  H13Y19364   1.688   6.148  15.227 -0.5834 -1.5500  1.3553
  160DOPC  C31419365   1.605   6.131  15.008  0.5341  0.7998  0.7760
  160DOPC  H14X19366   1.681   6.063  14.964 -0.4304  1.8256 -2.7554
  160DOPC  H14Y19367   1.513   6.080  14.970  1.2117 -0.4911  0.8106
  160DOPC  C31519368   1.621   6.273  14.957 -0.3728 -0.2749 -0.1664
  160DOPC  H15X19369   1.532   6.334  14.981 -2.1894 -3.3383  1.4754
  160DOPC  H15Y19370   1.619   6.264  14.846  0.6057 -0.0614 -0.2151
  160DOPC  C31619371   1.764   6.337  14.991 -0.0491 -0.0544 -0.0743
  160DOPC  H16X19372   1.775   6.336  15.101 -0.5574 -0.3913 -0.0234
  160DOPC  H16Y19373   1.847   6.279  14.946 -0.0245  1.4511 -2.1489
  160DOPC  C31719374   1.776   6.482  14.944  0.0809  0.4755 -0.3318
  160DOPC  H17X19375   1.692   6.531  14.997 -1.7289 -1.7836 -0.9530
  160DOPC  H17Y19376   1.871   6.526  14.981 -1.1719 -0.3504  4.5606
  160DOPC  C31819377   1.755   6.503  14.793  0.1599  0.0824  0.4439
  160DOPC  H18X19378   1.653   6.470  14.765  0.2418 -0.3479  0.6388
  160DOPC  H18Y19379   1.767   6.613  14.779 -1.0703  0.3861  1.5920
  160DOPC  H18Z19380   1.836   6.446  14.744  0.3471 -0.3469  1.2372
  161DOPC     N19381   3.909   0.057  17.072  0.8076 -0.1105  1.2680
  161DOPC   C1219382   3.986  -0.027  16.974 -0.0509  0.1171  0.5379
  161DOPC  H12A19383   3.975  -0.129  17.007 -1.3903 -0.7279 -2.1536
  161DOPC  H12B19384   4.090  -0.001  16.983 -0.0851  0.3974  0.1576
  161DOPC   C1319385   3.771   0.024  17.054 -0.2519 -0.7230  0.1903
  161DOPC  H13A19386   3.752  -0.079  17.078 -1.8208 -0.3372  0.6981
  161DOPC  H13B19387   3.705   0.087  17.111  0.9696  0.3258  0.5103
  161DOPC  H13C19388   3.749   0.040  16.949 -0.8992 -0.8242  0.3098
  161DOPC   C1419389   3.945   0.207  17.050  0.6411 -0.2306  0.7253
  161DOPC  H14A19390   3.905   0.222  16.951  0.7525 -0.1342  0.6940
  161DOPC  H14B19391   3.906   0.270  17.128  0.1322  0.7038 -0.2583
  161DOPC  H14C19392   4.052   0.225  17.051  0.4709  1.3083 -1.8205
  161DOPC   C1519393   3.959   0.024  17.209 -0.6164 -0.5716 -0.1451
  161DOPC  H15A19394   3.892   0.058  17.287 -2.0823 -1.5870 -0.9253
  161DOPC  H15B19395   4.059   0.060  17.229  0.6671 -3.3825 -1.0629
  161DOPC  H15C19396   3.963  -0.079  17.240 -0.3018 -0.1993  1.1034
  161DOPC   C1119397   3.949  -0.010  16.824 -0.2900  0.2223 -0.1230
  161DOPC  H11A19398   3.952   0.098  16.797 -0.3588  0.2832  0.1100
  161DOPC  H11B19399   4.031  -0.054  16.763  1.3613  1.7709  0.8768
  161DOPC     P19400   3.806  -0.221  16.777  0.2566  0.1099 -0.1974
  161DOPC   O1319401   3.661  -0.250  16.744  0.0615 -0.1009  0.6738
  161DOPC   O1419402   3.864  -0.298  16.890 -0.2251  0.3467  0.4222
  161DOPC   O1219403   3.825  -0.066  16.794  0.5164 -0.0759 -0.1947
  161DOPC   O1119404   3.894  -0.258  16.649  0.0077 -0.4563  0.2669
  161DOPC    C119405   3.900  -0.177  16.530 -0.5426  0.0091  0.5555
  161DOPC    HA19406   3.991  -0.113  16.531  0.0638 -0.7354 -1.4707
  161DOPC    HB19407   3.826  -0.095  16.521  0.2367  0.6084 -0.6247
  161DOPC    C219408   3.901  -0.256  16.395  0.1403 -0.4520  0.8454
  161DOPC    HS19409   3.878  -0.189  16.309  1.5137 -0.9578  0.0453
  161DOPC   O2119410   3.805  -0.371  16.399 -1.1307  0.3091  0.1486
  161DOPC   C2119411   3.682  -0.329  16.373 -0.2876  0.2411 -0.1926
  161DOPC   O2219412   3.650  -0.212  16.360 -0.1880 -0.0697  0.4052
  161DOPC   C2219413   3.590  -0.446  16.364  0.0943  0.1181  0.5053
  161DOPC   H2R19414   3.552  -0.477  16.464  1.6691 -1.0996  0.7644
  161DOPC   H2S19415   3.649  -0.533  16.328 -1.2993 -1.6323  2.2398
  161DOPC    C319416   4.042  -0.315  16.376 -0.5432 -0.1352 -0.4254
  161DOPC    HX19417   4.049  -0.414  16.426  0.4401  0.3197  0.3867
  161DOPC    HY19418   4.113  -0.246  16.427 -1.2322  0.7326 -0.6229
  161DOPC   O3119419   4.080  -0.325  16.239 -0.9376  0.2047  0.0967
  161DOPC   C3119420   4.197  -0.390  16.211 -0.0554  0.4565  0.0801
  161DOPC   O3219421   4.281  -0.425  16.293 -0.0637 -0.8782  0.3807
  161DOPC   C3219422   4.180  -0.421  16.059 -0.0892 -0.5041 -0.2673
  161DOPC   H2X19423   4.079  -0.463  16.038 -0.1997 -1.1910  1.4678
  161DOPC   H2Y19424   4.180  -0.320  16.013  0.6519  1.6148  3.8610
  161DOPC   C2319425   3.469  -0.409  16.268  0.0734  0.6969  0.0246
  161DOPC   H3R19426   3.420  -0.321  16.314 -0.1564 -1.0706  3.4326
  161DOPC   H3S19427   3.389  -0.486  16.263 -1.4717  2.2546  0.0888
  161DOPC   C2419428   3.511  -0.390  16.122  0.0753 -0.3879 -0.1502
  161DOPC   H4R19429   3.571  -0.477  16.088 -1.9691 -2.7215  1.8986
  161DOPC   H4S19430   3.579  -0.302  16.111 -1.5067  1.3177  2.5990
  161DOPC   C2519431   3.395  -0.388  16.028  0.5951 -0.2700 -0.9304
  161DOPC   H5R19432   3.343  -0.485  16.017  0.7244 -0.8413  2.4635
  161DOPC   H5S19433   3.424  -0.365  15.923 -1.0772  1.2324 -1.1091
  161DOPC   C2619434   3.300  -0.270  16.053  0.4345  0.1490  0.1816
  161DOPC   H6R19435   3.357  -0.180  16.084  0.2640  0.1401  0.5305
  161DOPC   H6S19436   3.236  -0.297  16.140  0.2887  0.5617  0.2035
  161DOPC   C2719437   3.209  -0.223  15.931 -0.9476 -0.2099  0.4329
  161DOPC   H7R19438   3.121  -0.169  15.969 -2.6582 -1.9308 -0.8714
  161DOPC   H7S19439   3.171  -0.305  15.866 -0.0214 -2.1792  2.2463
  161DOPC   C2819440   3.284  -0.109  15.842 -0.3096  1.0043  0.2332
  161DOPC   H8R19441   3.370  -0.162  15.796 -0.3208  0.9917  0.2261
  161DOPC   H8S19442   3.322  -0.036  15.916 -0.3628  1.3093 -0.0411
  161DOPC   C2919443   3.190  -0.036  15.748 -0.4613 -0.7857  0.3863
  161DOPC   H9R19444   3.191  -0.079  15.646 -0.3222 -0.2434  0.1544
  161DOPC  C21019445   3.121   0.074  15.769 -0.0019  0.1198 -0.0030
  161DOPC  H10R19446   3.045   0.108  15.698 -0.7700 -2.1475 -0.3349
  161DOPC  C21119447   3.122   0.161  15.895 -0.1565  0.0246  0.0079
  161DOPC  H11R19448   3.202   0.125  15.963 -1.1210  0.9180  1.6964
  161DOPC  H11S19449   3.026   0.158  15.952  1.2399 -0.2106  2.4849
  161DOPC  C21219450   3.163   0.311  15.879  0.1944  0.2360  0.1659
  161DOPC  H12R19451   3.158   0.350  15.983 -1.9706 -0.0116  0.1934
  161DOPC  H12S19452   3.094   0.365  15.810 -0.2707  0.5366  0.8532
  161DOPC  C21319453   3.312   0.326  15.818  0.0988  0.0147  0.0447
  161DOPC  H13R19454   3.306   0.313  15.708 -0.3483  1.3749 -0.1107
  161DOPC  H13S19455   3.365   0.244  15.871 -3.6901 -1.8221  1.3405
  161DOPC  C21419456   3.372   0.466  15.828 -0.5982 -0.2954  1.1290
  161DOPC  H14R19457   3.309   0.531  15.764  1.9046  0.8847 -0.2825
  161DOPC  H14S19458   3.477   0.471  15.792 -1.0560  0.6675 -0.1675
  161DOPC  C21519459   3.380   0.527  15.967 -0.3787 -0.0186 -0.2881
  161DOPC  H15R19460   3.371   0.444  16.040  0.0273  0.4013  0.2524
  161DOPC  H15S19461   3.286   0.583  15.986 -0.1416  0.6784 -1.1113
  161DOPC  C21619462   3.497   0.630  15.993  0.5981 -0.6993 -0.3630
  161DOPC  H16R19463   3.480   0.726  15.940  2.1896 -0.1574  0.0532
  161DOPC  H16S19464   3.594   0.588  15.958  0.9324  0.8492 -1.3920
  161DOPC  C21719465   3.505   0.674  16.139  0.6556  0.5769  0.1342
  161DOPC  H17R19466   3.407   0.715  16.172  0.5003 -1.0529  1.8348
  161DOPC  H17S19467   3.574   0.760  16.142 -0.3091  1.3766 -0.0066
  161DOPC  C21819468   3.555   0.563  16.229  0.3354  0.5229  0.3569
  161DOPC  H18R19469   3.649   0.513  16.196  0.5693  0.2170  1.4421
  161DOPC  H18S19470   3.476   0.486  16.242  1.7474 -0.8854  1.1070
  161DOPC  H18T19471   3.583   0.619  16.320  1.0804  0.1555  0.3621
  161DOPC   C3319472   4.282  -0.520  16.008 -0.2881  0.0385 -0.2023
  161DOPC   H3X19473   4.271  -0.607  16.075 -2.3594  0.8311  0.5926
  161DOPC   H3Y19474   4.383  -0.477  16.023 -0.1580 -0.5541  0.6815
  161DOPC   C3419475   4.270  -0.546  15.858  0.2412  0.6691  0.5867
  161DOPC   H4X19476   4.342  -0.621  15.818 -0.6692  0.1200 -0.0640
  161DOPC   H4Y19477   4.276  -0.455  15.795  0.3832  1.6812  2.0265
  161DOPC   C3519478   4.128  -0.597  15.828  0.6639  0.1236  0.4441
  161DOPC   H5X19479   4.044  -0.526  15.843 -0.9680 -1.4431 -0.7999
  161DOPC   H5Y19480   4.117  -0.671  15.911 -0.4604 -0.8027 -0.4940
  161DOPC   C3619481   4.113  -0.648  15.680 -0.3839 -0.4810  0.4053
  161DOPC   H6X19482   4.121  -0.552  15.624 -0.5338 -0.1735  0.8972
  161DOPC   H6Y19483   4.194  -0.718  15.652 -0.4467  0.1102 -1.3397
  161DOPC   C3719484   3.973  -0.705  15.638  0.2223  0.1540  0.2932
  161DOPC   H7X19485   3.955  -0.796  15.698 -0.7069  0.3150  0.2813
  161DOPC   H7Y19486   3.908  -0.620  15.670 -1.9729 -1.5032  0.4754
  161DOPC   C3819487   3.937  -0.741  15.492 -0.9715  0.3000 -0.4160
  161DOPC   H8X19488   3.836  -0.788  15.487 -0.8359  0.0578 -0.9718
  161DOPC   H8Y19489   4.016  -0.816  15.470  1.3670  1.7947  2.2319
  161DOPC   C3919490   3.941  -0.623  15.393 -0.2897  0.2959  0.2350
  161DOPC   H9X19491   3.884  -0.536  15.429 -0.2624 -0.1880  1.4979
  161DOPC  C31019492   4.008  -0.609  15.274  0.9070  0.6794 -0.1830
  161DOPC  H10X19493   4.004  -0.511  15.223  0.2987  1.1706  0.7848
  161DOPC  C31119494   4.102  -0.709  15.210 -0.4214  0.2971  0.1180
  161DOPC  H11X19495   4.065  -0.737  15.109  1.1959 -0.9314 -0.1719
  161DOPC  H11Y19496   4.103  -0.806  15.266  0.2985  0.5387  0.5413
  161DOPC  C31219497   4.248  -0.654  15.218 -0.4163 -0.6992  0.5275
  161DOPC  H12X19498   4.270  -0.621  15.322  0.3802 -1.1873  0.5209
  161DOPC  H12Y19499   4.255  -0.567  15.149  0.3964 -1.1880 -0.0210
  161DOPC  C31319500   4.353  -0.745  15.155 -0.5893  0.3833 -0.3015
  161DOPC  H13X19501   4.319  -0.766  15.052  2.2605  3.7448 -2.1461
  161DOPC  H13Y19502   4.450  -0.692  15.152  0.0956 -0.7219  1.1213
  161DOPC  C31419503   4.373  -0.877  15.231  0.0256 -0.0014 -0.4231
  161DOPC  H14X19504   4.425  -0.847  15.325 -0.0992  4.7134 -1.5937
  161DOPC  H14Y19505   4.272  -0.910  15.262 -0.4533  2.3452  0.7688
  161DOPC  C31519506   4.447  -0.965  15.145 -0.1581  0.7984  0.3228
  161DOPC  H15X19507   4.544  -0.921  15.114  0.0257 -0.9375 -1.8229
  161DOPC  H15Y19508   4.400  -0.985  15.047  2.4519 -1.1016 -0.6595
  161DOPC  C31619509   4.474  -1.106  15.198  0.7143 -0.7991 -0.2703
  161DOPC  H16X19510   4.504  -1.093  15.304  0.0694  0.2198 -0.1981
  161DOPC  H16Y19511   4.373  -1.154  15.193  0.2952  0.0015  0.3512
  161DOPC  C31719512   4.590  -1.178  15.118  0.1109 -0.0443  0.0535
  161DOPC  H17X19513   4.555  -1.180  15.012  1.4614 -0.2766 -0.4120
  161DOPC  H17Y19514   4.678  -1.112  15.127 -0.5194  1.1138 -1.7092
  161DOPC  C31819515   4.617  -1.313  15.177 -0.2195 -0.4754  0.5572
  161DOPC  H18X19516   4.533  -1.384  15.162  0.0147 -1.3282  2.7319
  161DOPC  H18Y19517   4.712  -1.365  15.149  0.3401  0.1754  1.2040
  161DOPC  H18Z19518   4.631  -1.291  15.285 -1.2334  0.6956  0.4586
  162DOPC     N19519   0.614   6.052  17.263 -0.8138  0.0519  0.0694
  162DOPC   C1219520   0.653   6.082  17.113 -0.2574  0.3691 -0.9089
  162DOPC  H12A19521   0.706   5.996  17.075  2.6567  0.5938  2.1736
  162DOPC  H12B19522   0.734   6.154  17.119  0.1546 -0.0912 -0.8735
  162DOPC   C1319523   0.521   5.934  17.266 -0.6959  0.0241  0.6129
  162DOPC  H13A19524   0.507   5.889  17.363 -0.7671 -1.9047 -0.2424
  162DOPC  H13B19525   0.426   5.972  17.231 -1.3127 -1.7329  0.2835
  162DOPC  H13C19526   0.560   5.862  17.196  0.5448  1.7230 -0.5242
  162DOPC   C1419527   0.558   6.173  17.333 -0.3340  0.3536  0.0278
  162DOPC  H14A19528   0.624   6.257  17.323  1.7803 -1.4002 -1.6128
  162DOPC  H14B19529   0.463   6.194  17.284 -0.7034 -1.6200 -0.1977
  162DOPC  H14C19530   0.539   6.152  17.437  0.1593 -1.1344 -0.1594
  162DOPC   C1519531   0.737   6.011  17.333  0.3494 -0.0847 -0.5148
  162DOPC  H15A19532   0.769   5.917  17.289 -1.6112 -0.2125 -1.7848
  162DOPC  H15B19533   0.708   6.005  17.437 -0.3682 -1.5180 -0.7610
  162DOPC  H15C19534   0.821   6.078  17.324  1.5581 -1.5025 -0.1801
  162DOPC   C1119535   0.541   6.123  17.016  0.0122 -0.4445  0.2703
  162DOPC  H11A19536   0.582   6.126  16.913 -1.1187 -0.8365 -0.2140
  162DOPC  H11B19537   0.464   6.043  17.014  1.0265 -1.5777  2.2930
  162DOPC     P19538   0.507   6.386  16.998  0.2303  0.3866  0.1302
  162DOPC   O1319539   0.647   6.415  17.032 -0.4140  0.3375 -0.1697
  162DOPC   O1419540   0.395   6.481  17.027 -0.0948  0.4027 -0.5574
  162DOPC   O1219541   0.475   6.246  17.058 -0.2083  0.0608  0.1619
  162DOPC   O1119542   0.495   6.359  16.839 -0.4380 -0.4439 -0.6670
  162DOPC    C119543   0.365   6.325  16.787  0.4695 -0.4937 -0.6866
  162DOPC    HA19544   0.290   6.401  16.816  0.5009 -0.4928 -0.6093
  162DOPC    HB19545   0.329   6.227  16.825  1.5277 -0.0628  1.6215
  162DOPC    C219546   0.352   6.308  16.628 -0.1700 -0.3471 -0.4325
  162DOPC    HS19547   0.246   6.291  16.596 -1.2732  1.4851  1.8979
  162DOPC   O2119548   0.446   6.206  16.575 -0.2118  0.4194  0.1121
  162DOPC   C2119549   0.401   6.078  16.594  0.1037 -0.2232  0.5629
  162DOPC   O2219550   0.297   6.049  16.645  0.5594 -0.1375  0.2808
  162DOPC   C2219551   0.512   5.977  16.559  0.1221  0.1432  0.7808
  162DOPC   H2R19552   0.467   5.900  16.492  2.2182  0.8099 -1.5647
  162DOPC   H2S19553   0.533   5.929  16.657  1.6219  1.2454  1.0354
  162DOPC    C319554   0.394   6.440  16.561  0.0013 -0.0776 -0.1050
  162DOPC    HX19555   0.490   6.468  16.610  0.0313 -2.0141  1.0215
  162DOPC    HY19556   0.334   6.528  16.593  0.3880 -0.2218  1.0726
  162DOPC   O3119557   0.394   6.428  16.421  0.3675 -0.5955  0.1501
  162DOPC   C3119558   0.504   6.386  16.368 -0.4055  0.0819  0.0678
  162DOPC   O3219559   0.618   6.397  16.421  0.1222 -0.2926  0.7259
  162DOPC   C3219560   0.474   6.338  16.225 -0.0074  0.0147  0.2201
  162DOPC   H2X19561   0.572   6.303  16.188  0.4448 -1.3100  2.4921
  162DOPC   H2Y19562   0.415   6.244  16.237  0.5657 -0.2370  1.2115
  162DOPC   C2319563   0.654   6.033  16.520 -0.2153  0.4441  0.1893
  162DOPC   H3R19564   0.730   5.957  16.547  1.5893  1.3572 -1.9518
  162DOPC   H3S19565   0.674   6.131  16.570  0.6183  0.7276 -0.6657
  162DOPC   C2419566   0.674   6.066  16.369 -0.1704 -0.4346 -0.3024
  162DOPC   H4R19567   0.773   6.112  16.354 -0.5090 -0.2928 -2.4252
  162DOPC   H4S19568   0.601   6.143  16.335 -0.5832 -1.3348 -1.5222
  162DOPC   C2519569   0.665   5.950  16.273  0.1917  0.6211 -0.1102
  162DOPC   H5R19570   0.562   5.911  16.282  1.2930 -3.2095 -1.9732
  162DOPC   H5S19571   0.738   5.867  16.290  0.5287  0.5394 -1.7583
  162DOPC   C2619572   0.682   5.994  16.131  0.2684 -0.5174  0.7812
  162DOPC   H6R19573   0.782   6.040  16.123 -0.7424  1.6903  0.1042
  162DOPC   H6S19574   0.614   6.081  16.116 -0.5594 -1.4309 -0.9971
  162DOPC   C2719575   0.652   5.892  16.022 -0.8219  0.3480 -0.1618
  162DOPC   H7R19576   0.711   5.800  16.039  0.7541  1.6804  2.1328
  162DOPC   H7S19577   0.684   5.925  15.920  1.4314 -1.2913 -0.0631
  162DOPC   C2819578   0.509   5.841  16.014 -0.0067 -0.0181  0.3654
  162DOPC   H8R19579   0.487   5.785  16.108 -0.9152 -1.4605 -0.6628
  162DOPC   H8S19580   0.502   5.760  15.939  0.5113 -2.0313  2.3904
  162DOPC   C2919581   0.414   5.956  15.982 -0.5831  0.3789 -0.3118
  162DOPC   H9R19582   0.408   6.029  16.065 -1.3239  1.0762 -0.9650
  162DOPC  C21019583   0.370   5.992  15.861  0.5830 -0.2635 -0.0057
  162DOPC  H10R19584   0.303   6.079  15.850  2.7927  1.7882  1.6119
  162DOPC  C21119585   0.402   5.927  15.724 -0.2567 -0.2581  0.5196
  162DOPC  H11R19586   0.504   5.888  15.743 -0.7520 -1.3021  1.1240
  162DOPC  H11S19587   0.409   5.993  15.635  0.1029 -0.5147  0.3580
  162DOPC  C21219588   0.308   5.811  15.686 -0.4156 -0.5242  0.1086
  162DOPC  H12R19589   0.291   5.737  15.767  0.2495 -2.6154 -1.5388
  162DOPC  H12S19590   0.363   5.762  15.602 -0.8156  0.0686 -0.5117
  162DOPC  C21319591   0.169   5.847  15.630 -0.3892  0.1888  0.0171
  162DOPC  H13R19592   0.144   5.934  15.694  0.3478 -0.9884  1.9693
  162DOPC  H13S19593   0.104   5.762  15.657 -1.8437  1.1647 -0.2747
  162DOPC  C21419594   0.162   5.894  15.492 -0.1991 -0.1668  0.3995
  162DOPC  H14R19595   0.259   5.936  15.459  0.6385 -3.1343 -1.3150
  162DOPC  H14S19596   0.072   5.957  15.476 -0.6555 -0.5127  1.5004
  162DOPC  C21519597   0.133   5.768  15.397 -0.0026  0.5772 -0.3429
  162DOPC  H15R19598   0.030   5.732  15.421 -0.2179  0.0655 -1.9338
  162DOPC  H15S19599   0.204   5.686  15.422  1.3565  0.8530 -2.9797
  162DOPC  C21619600   0.136   5.773  15.245 -0.0181  0.3497 -0.0927
  162DOPC  H16R19601   0.062   5.848  15.211 -0.9675 -0.1392  0.8523
  162DOPC  H16S19602   0.120   5.678  15.189  0.3235 -0.1859  0.7061
  162DOPC  C21719603   0.266   5.831  15.190 -0.2746  0.2016  0.3288
  162DOPC  H17R19604   0.349   5.770  15.230 -0.8867 -1.4112 -0.7549
  162DOPC  H17S19605   0.288   5.934  15.227  2.3482 -0.4360  0.7090
  162DOPC  C21819606   0.269   5.842  15.032  0.3057 -0.3595 -0.4988
  162DOPC  H18R19607   0.364   5.889  15.000  0.6348  0.7501  1.8753
  162DOPC  H18S19608   0.189   5.911  14.996  0.0446  0.3228  1.2761
  162DOPC  H18T19609   0.251   5.743  14.985 -2.3666 -1.1187  1.8313
  162DOPC   C3319610   0.405   6.436  16.138  0.0720 -0.5401  0.1010
  162DOPC   H3X19611   0.478   6.519  16.126 -0.6556 -0.1390 -1.7251
  162DOPC   H3Y19612   0.310   6.467  16.186 -0.3564 -1.5115 -0.1006
  162DOPC   C3419613   0.377   6.379  15.999  0.2263  0.1657  0.2208
  162DOPC   H4X19614   0.338   6.275  15.997  0.8741 -0.1263  1.5256
  162DOPC   H4Y19615   0.476   6.376  15.949 -0.6713  0.9946 -1.7065
  162DOPC   C3519616   0.288   6.473  15.918  0.2687 -0.9580 -0.3427
  162DOPC   H5X19617   0.332   6.573  15.902 -0.4259 -0.3008  1.6439
  162DOPC   H5Y19618   0.193   6.490  15.972  0.8967  0.4166  0.3635
  162DOPC   C3619619   0.264   6.427  15.780 -0.3590 -0.1392  0.7138
  162DOPC   H6X19620   0.368   6.407  15.745 -0.3111 -0.3146  0.9496
  162DOPC   H6Y19621   0.211   6.331  15.762  0.1018 -0.2397 -0.1708
  162DOPC   C3719622   0.213   6.535  15.688  0.1394 -0.5758  0.9777
  162DOPC   H7X19623   0.135   6.608  15.719  0.5080  2.1522 -3.5307
  162DOPC   H7Y19624   0.296   6.605  15.666  0.6285 -1.1198  1.0892
  162DOPC   C3819625   0.155   6.475  15.558 -0.0752  0.1656  0.3489
  162DOPC   H8X19626   0.117   6.565  15.504 -2.3983  0.1319  1.7681
  162DOPC   H8Y19627   0.068   6.413  15.588  0.3039 -0.1443  0.8312
  162DOPC   C3919628   0.258   6.385  15.493 -0.1605  0.3420  0.5446
  162DOPC   H9X19629   0.347   6.349  15.546  0.0076  1.7765  1.2866
  162DOPC  C31019630   0.251   6.335  15.368  0.4805 -0.8898  0.1116
  162DOPC  H10X19631   0.324   6.269  15.319 -0.9105 -0.0539 -3.4041
  162DOPC  C31119632   0.135   6.358  15.272  0.1351 -0.1428 -0.6097
  162DOPC  H11X19633   0.171   6.415  15.184  1.2198 -2.2274 -1.5951
  162DOPC  H11Y19634   0.054   6.414  15.325  0.5182 -0.6683  0.5756
  162DOPC  C31219635   0.076   6.220  15.238 -0.0333  0.1682  0.2796
  162DOPC  H12X19636   0.026   6.173  15.325 -2.5754  0.9693 -0.6606
  162DOPC  H12Y19637   0.156   6.157  15.193 -0.0335  0.1830  0.2587
  162DOPC  C31319638  -0.041   6.225  15.135  0.4337  0.1858  0.5038
  162DOPC  H13X19639  -0.119   6.288  15.180 -1.5268 -1.2646 -0.6919
  162DOPC  H13Y19640  -0.006   6.278  15.044  0.2567  0.5824  0.6682
  162DOPC  C31419641  -0.084   6.085  15.097  0.2650  0.4997 -0.7063
  162DOPC  H14X19642  -0.144   6.089  15.003 -0.8028 -2.1916 -0.2253
  162DOPC  H14Y19643  -0.007   6.007  15.081 -2.1641 -2.3021  0.4476
  162DOPC  C31519644  -0.175   6.025  15.206 -0.4106 -0.1224 -0.4436
  162DOPC  H15X19645  -0.247   6.104  15.238 -0.1271  1.1180 -2.7098
  162DOPC  H15Y19646  -0.108   6.010  15.294  0.1406 -0.5694 -0.9358
  162DOPC  C31619647  -0.249   5.901  15.153 -0.1797  0.6127  0.0643
  162DOPC  H16X19648  -0.313   5.932  15.067  0.4951 -0.2056 -0.7590
  162DOPC  H16Y19649  -0.173   5.830  15.114 -1.2408  0.4793 -1.8847
  162DOPC  C31719650  -0.357   5.854  15.251  0.4901  0.3476 -0.2112
  162DOPC  H17X19651  -0.406   5.764  15.207 -1.1689  0.8594  0.4932
  162DOPC  H17Y19652  -0.293   5.824  15.337  0.7442 -0.6722 -0.7369
  162DOPC  C31819653  -0.474   5.953  15.272  0.0091  1.1276 -0.0809
  162DOPC  H18X19654  -0.511   5.987  15.173 -0.3616 -0.8481 -0.6483
  162DOPC  H18Y19655  -0.560   5.907  15.325 -0.1694  1.6935  0.1268
  162DOPC  H18Z19656  -0.433   6.037  15.333  0.6013  0.1438  0.9248
  163DOPC     N19657   7.433   3.871  17.183 -0.2619  0.5935  0.5520
  163DOPC   C1219658   7.441   3.853  17.031  0.0016 -0.1426 -0.3665
  163DOPC  H12A19659   7.541   3.821  17.008 -0.2145 -1.3745  0.3086
  163DOPC  H12B19660   7.426   3.952  16.991  0.2254 -1.5669 -4.4364
  163DOPC   C1319661   7.462   3.735  17.242  0.3531  0.2883 -0.3692
  163DOPC  H13A19662   7.384   3.666  17.212  1.1305 -1.4782  1.4653
  163DOPC  H13B19663   7.548   3.686  17.198 -0.3548 -1.1721 -0.2005
  163DOPC  H13C19664   7.479   3.740  17.348 -0.6913 -1.1215 -0.1055
  163DOPC   C1419665   7.301   3.909  17.229  0.2336 -0.1007 -0.4412
  163DOPC  H14A19666   7.226   3.833  17.212  0.4564 -0.4981  0.2768
  163DOPC  H14B19667   7.288   3.937  17.333 -1.3403 -1.5860 -0.1990
  163DOPC  H14C19668   7.285   4.003  17.178  0.4715  0.7061  0.9210
  163DOPC   C1519669   7.538   3.975  17.233 -0.2147  0.2652  0.7329
  163DOPC  H15A19670   7.499   4.075  17.242  0.9074  0.8164 -0.3135
  163DOPC  H15B19671   7.630   3.979  17.177 -1.4782  0.4662 -1.4048
  163DOPC  H15C19672   7.575   3.948  17.331 -0.8818  2.0420  1.5187
  163DOPC   C1119673   7.336   3.762  16.960  0.0428  0.8301 -0.4712
  163DOPC  H11A19674   7.359   3.736  16.855  0.3190 -1.6139  0.1384
  163DOPC  H11B19675   7.338   3.659  17.001 -1.0111  1.5189  1.4430
  163DOPC     P19676   7.161   3.947  16.925  0.1786 -0.1158  0.1553
  163DOPC   O1319677   7.271   4.028  16.872  0.3023 -0.1636  0.0157
  163DOPC   O1419678   7.076   4.011  17.029  0.2110  0.4304  0.2287
  163DOPC   O1219679   7.198   3.802  16.978 -0.0170  0.1577 -0.0095
  163DOPC   O1119680   7.057   3.912  16.809 -0.3777  0.4840 -0.1005
  163DOPC    C119681   6.940   3.826  16.821  0.5563  0.8729 -0.4788
  163DOPC    HA19682   6.854   3.896  16.830 -1.0714 -0.7540 -2.3883
  163DOPC    HB19683   6.941   3.758  16.909 -1.1467 -2.0539 -2.5493
  163DOPC    C219684   6.922   3.728  16.695  0.9326 -0.0506  0.0710
  163DOPC    HS19685   6.862   3.639  16.721  3.3213 -1.1039  2.4678
  163DOPC   O2119686   7.050   3.682  16.648 -0.1616 -0.1524 -0.1068
  163DOPC   C2119687   7.107   3.586  16.713  0.4581  0.2412 -0.1986
  163DOPC   O2219688   7.051   3.515  16.795 -0.1552  0.8436 -0.3239
  163DOPC   C2219689   7.245   3.552  16.660 -0.1236 -0.2279 -0.4626
  163DOPC   H2R19690   7.312   3.540  16.748 -1.2625  1.1961  0.6499
  163DOPC   H2S19691   7.290   3.636  16.602 -1.2221 -0.0404 -1.0755
  163DOPC    C319692   6.856   3.803  16.573 -0.0728 -0.8023 -0.1677
  163DOPC    HX19693   6.891   3.908  16.568 -1.1216 -0.3615  1.2330
  163DOPC    HY19694   6.748   3.823  16.592  0.3862  1.6881  0.1832
  163DOPC   O3119695   6.868   3.728  16.449 -0.0534 -0.0800 -0.2912
  163DOPC   C3119696   6.959   3.760  16.361  0.4417  0.8958 -0.3781
  163DOPC   O3219697   7.043   3.847  16.376  0.8852  0.2846  0.3919
  163DOPC   C3219698   6.931   3.668  16.242 -0.2215 -0.4345  0.2264
  163DOPC   H2X19699   6.962   3.568  16.278 -1.9076 -1.1060 -0.0837
  163DOPC   H2Y19700   6.821   3.664  16.226 -0.1370  1.2740 -1.0676
  163DOPC   C2319701   7.236   3.435  16.568 -1.0435  0.3801  0.2316
  163DOPC   H3R19702   7.210   3.342  16.623  3.0093 -1.3181 -0.4184
  163DOPC   H3S19703   7.340   3.410  16.540 -0.7801  1.0425  0.5928
  163DOPC   C2419704   7.160   3.462  16.437 -0.3031  0.1448  0.9915
  163DOPC   H4R19705   7.190   3.551  16.379 -1.1796 -1.1484 -1.6301
  163DOPC   H4S19706   7.052   3.484  16.455 -0.7158  1.1524 -2.1275
  163DOPC   C2519707   7.155   3.340  16.339 -0.2441  0.3417 -0.1918
  163DOPC   H5R19708   7.091   3.371  16.253 -1.7393  0.2777  0.8727
  163DOPC   H5S19709   7.110   3.245  16.373 -0.7725  0.5400 -0.3300
  163DOPC   C2619710   7.290   3.308  16.274  0.5984  0.4609 -0.4967
  163DOPC   H6R19711   7.363   3.264  16.345 -1.7299  0.9880  2.4273
  163DOPC   H6S19712   7.337   3.403  16.241  0.2196  0.4408 -1.1253
  163DOPC   C2719713   7.275   3.211  16.153 -0.4230  0.3981 -0.7889
  163DOPC   H7R19714   7.216   3.250  16.067 -0.0616 -1.6542 -2.0634
  163DOPC   H7S19715   7.219   3.120  16.185 -0.2754  0.2687 -0.8977
  163DOPC   C2819716   7.418   3.157  16.114 -0.4627  0.0454  0.1328
  163DOPC   H8R19717   7.447   3.063  16.165 -2.0548 -0.1160  0.7703
  163DOPC   H8S19718   7.485   3.239  16.148 -1.2598  1.3085 -1.1712
  163DOPC   C2919719   7.438   3.140  15.970  0.4291 -0.3201  0.4478
  163DOPC   H9R19720   7.490   3.222  15.919  0.3653  0.1410  1.1078
  163DOPC  C21019721   7.384   3.046  15.891  0.1165  0.6736  0.1499
  163DOPC  H10R19722   7.434   3.029  15.794  0.8026 -0.1273  0.6294
  163DOPC  C21119723   7.290   2.935  15.931 -0.0035  0.4201 -0.2541
  163DOPC  H11R19724   7.258   2.939  16.037  2.5421 -2.1824  0.7444
  163DOPC  H11S19725   7.348   2.840  15.928  2.8245  2.0292 -0.3910
  163DOPC  C21219726   7.169   2.905  15.837  0.2116  0.5817  0.2013
  163DOPC  H12R19727   7.119   3.003  15.820  0.8211  0.8376 -0.1551
  163DOPC  H12S19728   7.105   2.830  15.888  1.3327 -1.5265 -1.3558
  163DOPC  C21319729   7.207   2.866  15.694 -0.2811  0.1597 -0.0072
  163DOPC  H13R19730   7.276   2.779  15.691  0.6141  0.7085  2.5664
  163DOPC  H13S19731   7.259   2.953  15.649  1.3109 -0.9144 -0.3256
  163DOPC  C21419732   7.088   2.824  15.600 -0.8420 -0.0630 -0.2486
  163DOPC  H14R19733   7.017   2.910  15.603 -3.1249 -1.8744  0.8613
  163DOPC  H14S19734   7.025   2.744  15.644 -0.3377 -1.4070 -1.9005
  163DOPC  C21519735   7.129   2.795  15.448  0.2062  0.0809 -0.0023
  163DOPC  H15R19736   7.037   2.747  15.408 -1.6243  3.1860  0.1475
  163DOPC  H15S19737   7.210   2.719  15.452  0.8464  0.7002 -0.7653
  163DOPC  C21619738   7.183   2.914  15.370  0.0588  0.0858 -0.0300
  163DOPC  H16R19739   7.291   2.929  15.392 -0.4579  0.8602  2.2293
  163DOPC  H16S19740   7.128   3.006  15.400  0.9265  0.1496  1.4432
  163DOPC  C21719741   7.162   2.912  15.214  0.0252  0.4894  0.4989
  163DOPC  H17R19742   7.164   2.809  15.173 -1.6252  1.6927 -3.0065
  163DOPC  H17S19743   7.243   2.973  15.168  0.1480  1.6461  2.1687
  163DOPC  C21819744   7.028   2.981  15.187  0.2414  0.8846  0.4739
  163DOPC  H18R19745   7.035   3.091  15.202  2.7792  0.5118  2.9714
  163DOPC  H18S19746   6.940   2.950  15.247  0.7969  2.1552  2.0329
  163DOPC  H18T19747   7.005   2.964  15.080  1.9379  1.3171  0.0020
  163DOPC   C3319748   7.013   3.705  16.122  0.3296 -0.2201  0.0632
  163DOPC   H3X19749   7.118   3.676  16.143  1.1496  1.1475 -1.8571
  163DOPC   H3Y19750   6.999   3.815  16.117  1.1934 -0.1197 -0.4350
  163DOPC   C3419751   6.980   3.625  15.994 -0.0383 -0.0676  0.6188
  163DOPC   H4X19752   7.041   3.656  15.907 -0.1702  1.7576  1.1376
  163DOPC   H4Y19753   6.879   3.646  15.952  0.3994  1.1163  0.1254
  163DOPC   C3519754   6.989   3.476  16.017  0.2324  0.0173 -0.0374
  163DOPC   H5X19755   6.921   3.450  16.101 -1.2731 -2.4343 -1.8610
  163DOPC   H5Y19756   7.093   3.460  16.052  0.2614  0.6517  0.1781
  163DOPC   C3619757   6.956   3.382  15.896 -0.3791  0.1210  0.4225
  163DOPC   H6X19758   6.938   3.277  15.925 -0.3859 -0.2285 -0.7782
  163DOPC   H6Y19759   6.857   3.418  15.862 -0.3093  0.8098  0.9218
  163DOPC   C3719760   7.063   3.388  15.786  0.1036 -0.8931  0.0325
  163DOPC   H7X19761   7.060   3.491  15.746  0.1905 -1.1524 -0.6644
  163DOPC   H7Y19762   7.163   3.375  15.833 -0.5809 -1.9219  1.2553
  163DOPC   C3819763   7.042   3.289  15.673 -0.3176 -0.5019 -0.1074
  163DOPC   H8X19764   6.934   3.281  15.647 -0.6786 -2.7229  1.7546
  163DOPC   H8Y19765   7.070   3.186  15.703 -1.1780 -0.8719 -0.5384
  163DOPC   C3919766   7.130   3.329  15.551 -0.0515  0.5115  0.0530
  163DOPC   H9X19767   7.239   3.314  15.560  0.3417  3.1858  0.8704
  163DOPC  C31019768   7.090   3.384  15.438 -0.0294  0.6545  0.1116
  163DOPC  H10X19769   7.173   3.423  15.378  0.0317  0.3996  0.0284
  163DOPC  C31119770   6.952   3.430  15.401 -0.0098 -0.0519 -0.0585
  163DOPC  H11X19771   6.889   3.391  15.484  2.2681 -0.7203  1.4389
  163DOPC  H11Y19772   6.911   3.390  15.305 -0.3402 -1.3376  0.5947
  163DOPC  C31219773   6.948   3.586  15.391 -0.1328  0.0969  0.1801
  163DOPC  H12X19774   6.849   3.625  15.360  0.9120  2.6488 -0.1258
  163DOPC  H12Y19775   7.027   3.619  15.321 -0.5778  0.1683 -0.2912
  163DOPC  C31319776   6.988   3.662  15.520 -0.3233  0.2452 -0.6694
  163DOPC  H13X19777   6.927   3.635  15.609  0.6477  1.7973  0.5083
  163DOPC  H13Y19778   7.095   3.643  15.540 -1.0404 -3.9072  0.1526
  163DOPC  C31419779   6.973   3.817  15.512 -0.1560 -0.2965  0.1728
  163DOPC  H14X19780   7.030   3.854  15.424  0.2998  0.6980  0.8797
  163DOPC  H14Y19781   6.866   3.837  15.489  0.2915  1.7456 -0.2625
  163DOPC  C31519782   7.026   3.882  15.639 -0.6079 -0.8141  0.0670
  163DOPC  H15X19783   7.125   3.838  15.660  0.3518  0.3980 -1.6417
  163DOPC  H15Y19784   6.954   3.869  15.723 -0.5845  0.0731  0.2354
  163DOPC  C31619785   7.034   4.038  15.625  0.2008  0.2255  0.7963
  163DOPC  H16X19786   7.078   4.069  15.528 -1.8703 -0.9142 -0.5858
  163DOPC  H16Y19787   6.928   4.070  15.616  0.0133 -0.7498 -0.8938
  163DOPC  C31719788   7.103   4.094  15.747 -0.0869  0.1074  0.4929
  163DOPC  H17X19789   7.207   4.057  15.756  0.6270  1.3078 -2.1112
  163DOPC  H17Y19790   7.121   4.202  15.728 -2.3745  0.4133 -0.3021
  163DOPC  C31819791   7.035   4.055  15.877  0.1026 -0.4989 -0.1924
  163DOPC  H18X19792   7.089   4.118  15.952 -1.4157 -0.4131  0.8813
  163DOPC  H18Y19793   6.933   4.098  15.870 -0.1948 -0.9673  0.9471
  163DOPC  H18Z19794   7.040   3.947  15.905  3.4996 -0.5270 -0.5212
  164DOPC     N19795   2.096   0.478  17.089 -0.3841  0.7158  0.1902
  164DOPC   C1219796   2.198   0.461  16.977 -0.0761 -0.3750  0.5109
  164DOPC  H12A19797   2.215   0.356  16.964 -1.1037 -0.4250 -0.6535
  164DOPC  H12B19798   2.292   0.502  17.009  0.4873 -0.3361 -1.1074
  164DOPC   C1319799   2.121   0.389  17.205 -0.6882  0.0413 -0.6073
  164DOPC  H13A19800   2.203   0.422  17.267  1.2355 -1.7367 -2.0725
  164DOPC  H13B19801   2.039   0.382  17.275  0.0727 -2.8604  0.1366
  164DOPC  H13C19802   2.146   0.287  17.180  1.3616  0.5093 -0.6808
  164DOPC   C1419803   1.953   0.447  17.048 -0.0712 -0.6635  0.1645
  164DOPC  H14A19804   1.928   0.515  16.968  1.4563 -0.6699 -0.3378
  164DOPC  H14B19805   1.956   0.343  17.020  0.0863 -0.0113 -2.5078
  164DOPC  H14C19806   1.883   0.463  17.129 -0.4198  0.9622 -0.4226
  164DOPC   C1519807   2.094   0.619  17.135 -0.2368 -0.2310  0.3321
  164DOPC  H15A19808   2.193   0.650  17.164  0.0222 -0.5339 -0.2248
  164DOPC  H15B19809   2.022   0.630  17.215 -0.1241  2.1466  0.1845
  164DOPC  H15C19810   2.061   0.684  17.055 -0.5050  0.9621  1.3671
  164DOPC   C1119811   2.173   0.528  16.840  0.2406 -0.2623  0.6428
  164DOPC  H11A19812   2.247   0.472  16.779 -0.4527 -1.0557  0.5074
  164DOPC  H11B19813   2.078   0.495  16.793  0.6644 -1.4137  0.5616
  164DOPC     P19814   2.350   0.717  16.855 -0.3620 -0.2453  0.2666
  164DOPC   O1319815   2.423   0.629  16.946  0.0711 -0.0798 -0.1459
  164DOPC   O1419816   2.348   0.862  16.893  0.5127 -0.0648 -0.1575
  164DOPC   O1219817   2.196   0.669  16.841 -0.0485  0.6140  0.5129
  164DOPC   O1119818   2.426   0.703  16.718 -0.2973  0.1729 -0.6586
  164DOPC    C119819   2.404   0.799  16.613  0.7772 -0.1642 -0.1290
  164DOPC    HA19820   2.474   0.791  16.527  0.0774  3.3870 -1.1986
  164DOPC    HB19821   2.400   0.907  16.640 -1.0361  0.1708 -1.5471
  164DOPC    C219822   2.267   0.776  16.536 -0.4133  0.1219 -0.3146
  164DOPC    HS19823   2.188   0.771  16.614  1.4987 -2.4286  1.6682
  164DOPC   O2119824   2.281   0.644  16.481 -0.1954  0.2208  0.3031
  164DOPC   C2119825   2.177   0.584  16.453 -0.1517 -0.3009 -0.1588
  164DOPC   O2219826   2.064   0.603  16.502 -0.0229  0.3413  0.3290
  164DOPC   C2219827   2.213   0.456  16.370  0.0871 -0.5050 -1.6670
  164DOPC   H2R19828   2.134   0.382  16.392 -0.1643 -0.0573 -1.0427
  164DOPC   H2S19829   2.314   0.419  16.396  1.9020  3.2309 -2.6308
  164DOPC    C319830   2.239   0.890  16.442 -0.1650  0.0396 -0.6158
  164DOPC    HX19831   2.248   0.985  16.500  1.2574 -1.0077  0.9980
  164DOPC    HY19832   2.133   0.884  16.410 -0.1125 -2.0814 -0.5072
  164DOPC   O3119833   2.343   0.888  16.343 -0.0981  0.1191 -0.1609
  164DOPC   C3119834   2.297   0.866  16.220 -0.9586 -0.0951 -0.4738
  164DOPC   O3219835   2.183   0.853  16.190 -0.0599  0.0569 -0.3346
  164DOPC   C3219836   2.419   0.843  16.121  0.7849 -0.1310 -0.8386
  164DOPC   H2X19837   2.499   0.912  16.157 -0.0957 -0.8426  2.8619
  164DOPC   H2Y19838   2.465   0.743  16.138  2.1314  0.6541  0.4590
  164DOPC   C2319839   2.214   0.484  16.213  0.6892  0.5166  0.2104
  164DOPC   H3R19840   2.308   0.538  16.192  0.0670  1.3717 -0.4744
  164DOPC   H3S19841   2.129   0.545  16.177 -0.3844 -2.5046 -2.9864
  164DOPC   C2419842   2.188   0.352  16.139  0.0268  0.1453  0.1399
  164DOPC   H4R19843   2.132   0.278  16.201  0.3341  0.5684  0.9488
  164DOPC   H4S19844   2.287   0.310  16.113  0.9097  2.4587 -0.4813
  164DOPC   C2519845   2.105   0.370  16.009  0.2627  0.6042 -0.2432
  164DOPC   H5R19846   2.158   0.425  15.929  1.2099  0.3339  0.1848
  164DOPC   H5S19847   2.007   0.414  16.038 -1.2610 -3.2072  1.0842
  164DOPC   C2619848   2.071   0.235  15.945 -0.2385  0.3180  0.1620
  164DOPC   H6R19849   1.983   0.244  15.879  2.1769  1.2561 -3.1839
  164DOPC   H6S19850   2.038   0.170  16.029 -0.2688  3.5041  2.8309
  164DOPC   C2719851   2.186   0.177  15.858  0.3792 -0.0034 -0.0101
  164DOPC   H7R19852   2.142   0.083  15.818 -0.1562  1.1420 -2.2628
  164DOPC   H7S19853   2.277   0.154  15.918  0.5278  0.2941 -0.1162
  164DOPC   C2819854   2.227   0.262  15.743  0.4198  0.1540 -0.0373
  164DOPC   H8R19855   2.324   0.228  15.702 -0.0388 -2.1109  0.6200
  164DOPC   H8S19856   2.252   0.369  15.762 -1.8472  0.8222 -0.4721
  164DOPC   C2919857   2.113   0.254  15.649 -0.2845 -0.1154 -0.0660
  164DOPC   H9R19858   2.096   0.151  15.614  0.1194  0.2941 -1.5386
  164DOPC  C21019859   2.031   0.346  15.601  0.4390  0.1336  0.2186
  164DOPC  H10R19860   1.961   0.319  15.520 -0.7915  0.5069  1.1282
  164DOPC  C21119861   2.027   0.493  15.633  0.4918 -0.3173 -0.5133
  164DOPC  H11R19862   2.108   0.517  15.705  1.2699  1.0694 -1.7938
  164DOPC  H11S19863   1.925   0.513  15.672  0.9809  1.7434 -0.1628
  164DOPC  C21219864   2.041   0.589  15.512 -0.4589  0.2723  0.7679
  164DOPC  H12R19865   2.114   0.671  15.532  0.5896 -0.3955 -0.2404
  164DOPC  H12S19866   1.939   0.623  15.483 -2.5647 -3.4882  2.9526
  164DOPC  C21319867   2.113   0.527  15.393 -0.3744 -0.1674 -0.1416
  164DOPC  H13R19868   2.055   0.435  15.368 -0.4587  0.0323 -0.6910
  164DOPC  H13S19869   2.215   0.498  15.426  0.8207  1.7879 -1.9135
  164DOPC  C21419870   2.121   0.615  15.262  0.8416  0.1195 -0.3565
  164DOPC  H14R19871   2.026   0.672  15.263  0.4371 -0.4181  2.9914
  164DOPC  H14S19872   2.131   0.539  15.182  0.3485 -0.7859  0.4317
  164DOPC  C21519873   2.230   0.720  15.263  0.6544 -0.4514 -0.1682
  164DOPC  H15R19874   2.319   0.657  15.281  0.4985 -0.3137  1.1797
  164DOPC  H15S19875   2.203   0.793  15.342  1.8036  0.4873 -0.6139
  164DOPC  C21619876   2.227   0.796  15.131 -0.5414 -0.5736 -0.5432
  164DOPC  H16R19877   2.125   0.836  15.112 -1.1019 -1.2620  0.8177
  164DOPC  H16S19878   2.252   0.726  15.048 -0.4832  2.0978 -2.9180
  164DOPC  C21719879   2.322   0.921  15.118  0.1130 -0.2073  0.0348
  164DOPC  H17R19880   2.291   1.003  15.186  0.2160 -0.8909  0.9159
  164DOPC  H17S19881   2.306   0.942  15.010  0.1330 -0.5170 -0.0283
  164DOPC  C21819882   2.465   0.875  15.148  0.1594 -0.0651  0.5103
  164DOPC  H18R19883   2.493   0.781  15.096 -0.7281 -0.9561  1.5949
  164DOPC  H18S19884   2.478   0.871  15.258 -2.1861 -2.8582  0.7906
  164DOPC  H18T19885   2.537   0.952  15.113 -0.0138  0.4813  1.3309
  164DOPC   C3319886   2.362   0.878  15.982 -0.6041 -0.3649  0.2346
  164DOPC   H3X19887   2.442   0.903  15.909 -1.2184  1.6506  0.1802
  164DOPC   H3Y19888   2.302   0.972  15.983 -0.5550 -0.2916 -1.0663
  164DOPC   C3419889   2.276   0.765  15.919  0.3596 -0.2782 -0.4203
  164DOPC   H4X19890   2.234   0.693  15.993  0.5115 -0.2336 -0.2911
  164DOPC   H4Y19891   2.349   0.714  15.852  0.0942 -2.3222  0.7753
  164DOPC   C3519892   2.163   0.819  15.833 -0.5817 -0.0342 -0.3705
  164DOPC   H5X19893   2.144   0.741  15.756 -0.4304 -0.2089 -0.2316
  164DOPC   H5Y19894   2.190   0.909  15.773 -2.7362 -0.2884 -1.8740
  164DOPC   C3619895   2.028   0.836  15.904 -0.2146 -0.1936  0.2505
  164DOPC   H6X19896   2.015   0.737  15.952  3.9033 -0.6653  0.8151
  164DOPC   H6Y19897   2.036   0.905  15.991 -0.5744 -1.4013  1.2683
  164DOPC   C3719898   1.905   0.864  15.820 -0.3597 -0.8720 -0.0732
  164DOPC   H7X19899   1.915   0.974  15.810 -0.3456 -0.6112  2.3568
  164DOPC   H7Y19900   1.911   0.814  15.721  1.6598  0.5966 -0.7614
  164DOPC   C3819901   1.775   0.818  15.887 -0.4774 -0.1144 -0.4496
  164DOPC   H8X19902   1.775   0.849  15.993 -3.6264  1.0317 -0.6744
  164DOPC   H8Y19903   1.776   0.707  15.894 -1.3753 -0.0247  1.8791
  164DOPC   C3919904   1.646   0.865  15.820 -0.2545 -0.4593 -0.7119
  164DOPC   H9X19905   1.604   0.961  15.853  1.4607 -0.2173  0.9645
  164DOPC  C31019906   1.588   0.802  15.715  0.5688 -0.3605 -0.5345
  164DOPC  H10X19907   1.497   0.847  15.672 -0.1030  1.7101  2.7039
  164DOPC  C31119908   1.639   0.673  15.656  0.0009  0.5275  0.1283
  164DOPC  H11X19909   1.559   0.596  15.664 -1.9141  2.4402 -0.0056
  164DOPC  H11Y19910   1.730   0.632  15.706 -0.1365  2.1921  1.8299
  164DOPC  C31219911   1.668   0.703  15.511  0.0144  0.6412 -0.0797
  164DOPC  H12X19912   1.752   0.769  15.482  0.5960  0.8894  2.0273
  164DOPC  H12Y19913   1.587   0.759  15.459  1.5753  0.9344 -2.3309
  164DOPC  C31319914   1.677   0.576  15.436  0.1258  1.4258  1.4943
  164DOPC  H13X19915   1.763   0.522  15.482 -0.1116  0.0276  0.3688
  164DOPC  H13Y19916   1.584   0.516  15.447  0.1629  1.1750  0.4839
  164DOPC  C31419917   1.714   0.612  15.288  0.4186  0.3042  0.2940
  164DOPC  H14X19918   1.813   0.660  15.278  1.1270 -0.6867  2.1940
  164DOPC  H14Y19919   1.634   0.679  15.248  1.0232 -0.5269 -2.5002
  164DOPC  C31519920   1.715   0.481  15.206 -0.0069 -0.2818  0.3969
  164DOPC  H15X19921   1.617   0.429  15.213  0.4859 -1.3570 -0.2652
  164DOPC  H15Y19922   1.793   0.415  15.250  1.1145  0.8970  0.2272
  164DOPC  C31619923   1.745   0.514  15.055 -0.6246  0.1148 -1.0646
  164DOPC  H16X19924   1.697   0.432  14.997  0.3654 -1.2159 -0.0537
  164DOPC  H16Y19925   1.688   0.605  15.026 -1.5324 -0.1809 -0.2839
  164DOPC  C31719926   1.898   0.526  15.010  0.1486  0.2035  0.0115
  164DOPC  H17X19927   1.902   0.541  14.900  3.0466  0.4608  0.0748
  164DOPC  H17Y19928   1.944   0.613  15.061  0.5528 -0.1288  0.2171
  164DOPC  C31819929   1.985   0.399  15.030 -0.0440 -0.0848 -0.0871
  164DOPC  H18X19930   2.086   0.405  14.985  0.9525 -0.9767  1.9258
  164DOPC  H18Y19931   1.989   0.366  15.136  1.1457  0.6833  0.1213
  164DOPC  H18Z19932   1.943   0.311  14.976  1.9486 -0.9976 -0.2300
  165DOPC     N19933   6.374   1.270  17.012  0.1724  0.1104  0.1785
  165DOPC   C1219934   6.280   1.250  16.898  0.0447 -0.1158 -0.2605
  165DOPC  H12A19935   6.182   1.214  16.927  0.1832 -0.3990 -0.1428
  165DOPC  H12B19936   6.312   1.174  16.828 -0.6727  1.1875 -2.0885
  165DOPC   C1319937   6.354   1.404  17.081 -0.0911 -0.1180  0.0706
  165DOPC  H13A19938   6.423   1.419  17.163 -0.2490  0.3897  0.1068
  165DOPC  H13B19939   6.374   1.483  17.011 -0.6227 -2.4542 -2.9588
  165DOPC  H13C19940   6.259   1.406  17.132  0.4769  0.0829  1.1700
  165DOPC   C1419941   6.514   1.275  16.958 -0.2363  0.4617  0.5143
  165DOPC  H14A19942   6.581   1.265  17.042 -0.3423 -0.2213  0.5266
  165DOPC  H14B19943   6.527   1.191  16.892  2.4653 -0.5074  2.1165
  165DOPC  H14C19944   6.522   1.364  16.898 -2.0715  0.6564  0.4986
  165DOPC   C1519945   6.361   1.159  17.111  0.5592  0.5241 -0.9200
  165DOPC  H15A19946   6.429   1.163  17.195  0.6649 -1.0628 -0.9045
  165DOPC  H15B19947   6.377   1.065  17.061 -0.3541  0.2414 -0.6973
  165DOPC  H15C19948   6.264   1.160  17.158  0.8722  3.0767 -0.1828
  165DOPC   C1119949   6.250   1.367  16.800  0.1113 -0.4139  0.3936
  165DOPC  H11A19950   6.175   1.337  16.723  0.3317  3.3107 -1.4548
  165DOPC  H11B19951   6.187   1.437  16.860  0.2952  0.5743 -0.5463
  165DOPC     P19952   6.336   1.556  16.654  0.3119  0.0769  0.4782
  165DOPC   O1319953   6.469   1.596  16.590  0.3598 -0.1593 -0.5276
  165DOPC   O1419954   6.275   1.642  16.754  0.2232  0.1819 -0.1690
  165DOPC   O1219955   6.358   1.423  16.732 -0.0588 -0.1367 -0.0104
  165DOPC   O1119956   6.228   1.517  16.537 -0.0458 -0.3916  0.0576
  165DOPC    C119957   6.274   1.418  16.445  0.1341  0.6840  0.8250
  165DOPC    HA19958   6.184   1.359  16.416 -0.4728  2.4706 -1.1809
  165DOPC    HB19959   6.344   1.339  16.480 -1.2989 -1.2138 -0.3798
  165DOPC    C219960   6.336   1.477  16.318  0.8288 -0.6504 -0.4014
  165DOPC    HS19961   6.419   1.543  16.351  0.1409 -0.5732  1.3069
  165DOPC   O2119962   6.231   1.558  16.266  0.2389  0.4068 -0.0706
  165DOPC   C2119963   6.271   1.655  16.184  0.2347  0.6098 -0.4257
  165DOPC   O2219964   6.382   1.693  16.158 -0.2087 -0.3064 -0.0464
  165DOPC   C2219965   6.144   1.715  16.130 -0.3883 -0.0199 -0.7019
  165DOPC   H2R19966   6.140   1.811  16.187  0.1656 -1.3787  1.7573
  165DOPC   H2S19967   6.053   1.657  16.154 -0.4916  0.7048  0.7957
  165DOPC    C319968   6.390   1.375  16.216 -0.5420  0.4688 -0.4642
  165DOPC    HX19969   6.311   1.302  16.187 -0.2808  0.3020 -0.7732
  165DOPC    HY19970   6.459   1.300  16.262 -0.9309  0.1672 -0.3715
  165DOPC   O3119971   6.442   1.423  16.087 -0.1133 -0.2064 -0.3470
  165DOPC   C3119972   6.563   1.471  16.082 -0.3290 -0.3385 -0.3871
  165DOPC   O3219973   6.643   1.479  16.177  0.6763  0.1709  0.9700
  165DOPC   C3219974   6.593   1.518  15.944  0.0172 -0.1487 -0.0890
  165DOPC   H2X19975   6.516   1.484  15.872 -0.3426  0.8234 -0.1728
  165DOPC   H2Y19976   6.567   1.626  15.950 -0.3303 -0.2135 -0.3943
  165DOPC   C2319977   6.152   1.751  15.975  0.0293 -0.0551 -0.2138
  165DOPC   H3R19978   6.237   1.817  15.948 -0.5172  1.1990  1.0162
  165DOPC   H3S19979   6.063   1.816  15.962  1.0801  1.0165 -2.6588
  165DOPC   C2419980   6.146   1.638  15.866 -0.7717 -1.1271  0.1171
  165DOPC   H4R19981   6.044   1.597  15.849 -1.2464  1.1555 -3.6607
  165DOPC   H4S19982   6.225   1.564  15.891  1.7980  1.4054  0.0709
  165DOPC   C2519983   6.182   1.699  15.725 -0.5757  0.7545 -0.9864
  165DOPC   H5R19984   6.289   1.726  15.742  0.8773 -4.4203 -0.2114
  165DOPC   H5S19985   6.118   1.789  15.713 -1.9932 -0.2845 -1.4194
  165DOPC   C2619986   6.184   1.604  15.597  0.4795 -0.4272 -0.2058
  165DOPC   H6R19987   6.078   1.576  15.580  0.1674  0.1259  0.7291
  165DOPC   H6S19988   6.241   1.513  15.626  0.1635 -0.3228  0.7924
  165DOPC   C2719989   6.241   1.663  15.466 -0.2007 -0.1734  0.3732
  165DOPC   H7R19990   6.208   1.769  15.456  0.5765 -0.1037 -2.3609
  165DOPC   H7S19991   6.195   1.612  15.379  0.1675  0.7039 -0.3501
  165DOPC   C2819992   6.395   1.644  15.469 -0.0259  0.1795  0.1994
  165DOPC   H8R19993   6.416   1.535  15.474 -0.9605 -0.1084 -1.2595
  165DOPC   H8S19994   6.433   1.692  15.561 -0.1790 -2.0635  1.5028
  165DOPC   C2919995   6.440   1.716  15.341  0.2247 -0.1959 -0.3375
  165DOPC   H9R19996   6.373   1.702  15.255 -0.0037  0.4438 -0.2628
  165DOPC  C21019997   6.553   1.790  15.327  0.5192 -0.3677 -0.0067
  165DOPC  H10R19998   6.574   1.834  15.229  0.2228  0.2661  0.2160
  165DOPC  C21119999   6.655   1.819  15.429 -0.0376 -0.4541 -0.0207
  165DOPC  H11R20000   6.634   1.776  15.529 -0.7399  0.7386  0.3674
  165DOPC  H11S20001   6.658   1.929  15.441 -1.5263 -0.2033 -1.5181
  165DOPC  C21220002   6.799   1.775  15.386  0.7629  0.3335  0.4428
  165DOPC  H12R20003   6.805   1.666  15.363  0.6886 -0.0080  1.9448
  165DOPC  H12S20004   6.865   1.794  15.473  0.8231 -2.6011  1.1579
  165DOPC  C21320005   6.849   1.853  15.267 -0.1499 -0.5555  0.1194
  165DOPC  H13R20006   6.837   1.960  15.296  0.1682 -0.5872  0.3710
  165DOPC  H13S20007   6.790   1.834  15.175 -0.7379 -0.6677  0.5133
  165DOPC  C21420008   7.011   1.840  15.247  0.4480  0.7189  0.1797
  165DOPC  H14R20009   7.030   1.740  15.204  1.7504  1.2985 -0.6574
  165DOPC  H14S20010   7.074   1.840  15.338  1.4334 -0.1426 -0.4842
  165DOPC  C21520011   7.076   1.944  15.156 -0.1193 -0.5187 -0.5939
  165DOPC  H15R20012   7.010   1.963  15.068  2.0163 -0.3097 -2.2090
  165DOPC  H15S20013   7.175   1.916  15.116  0.7164 -2.7085  2.6165
  165DOPC  C21620014   7.082   2.083  15.220  0.3719 -0.2077  0.1919
  165DOPC  H16R20015   7.156   2.082  15.303 -0.5154  0.2860  1.0175
  165DOPC  H16S20016   6.982   2.114  15.259 -0.2850 -0.2154 -1.3998
  165DOPC  C21720017   7.124   2.196  15.120  0.0618  0.3171  0.6553
  165DOPC  H17R20018   7.065   2.180  15.027  0.4298 -3.3201  0.9145
  165DOPC  H17S20019   7.229   2.170  15.094 -0.4374 -0.2401 -0.9443
  165DOPC  C21820020   7.118   2.336  15.185 -0.7293  0.2144 -0.5212
  165DOPC  H18R20021   7.184   2.402  15.124  0.0746  2.2483  2.3259
  165DOPC  H18S20022   7.162   2.341  15.287  0.4409 -0.8349 -0.9480
  165DOPC  H18T20023   7.014   2.375  15.189 -0.1471  1.7623  0.4601
  165DOPC   C3320024   6.742   1.487  15.910  0.1773  0.0868  1.3740
  165DOPC   H3X20025   6.768   1.382  15.936 -1.0197 -0.5825 -0.0252
  165DOPC   H3Y20026   6.805   1.566  15.957  2.5993 -0.2912 -0.9728
  165DOPC   C3420027   6.779   1.489  15.756 -0.1484  0.5542 -0.7074
  165DOPC   H4X20028   6.803   1.596  15.739  1.4429  0.1501 -1.1273
  165DOPC   H4Y20029   6.696   1.457  15.689 -0.4881 -0.4043  0.1380
  165DOPC   C3520030   6.902   1.408  15.728  0.1105 -0.4176 -0.3443
  165DOPC   H5X20031   6.866   1.303  15.723  0.1107 -0.4731  0.6299
  165DOPC   H5Y20032   6.973   1.420  15.812  0.2223 -1.5585 -0.2661
  165DOPC   C3620033   6.984   1.439  15.595  0.2104  0.2928  0.1853
  165DOPC   H6X20034   7.006   1.547  15.582 -0.1543  0.2052 -1.3080
  165DOPC   H6Y20035   7.082   1.388  15.592 -0.2664 -0.7371  1.2339
  165DOPC   C3720036   6.898   1.386  15.474 -0.6903 -0.1804  0.1306
  165DOPC   H7X20037   6.811   1.454  15.457 -0.5137 -0.2741 -1.2166
  165DOPC   H7Y20038   6.853   1.290  15.507 -0.1059 -0.1886  0.9426
  165DOPC   C3820039   6.987   1.367  15.351  0.0107 -0.0794 -0.6073
  165DOPC   H8X20040   7.090   1.330  15.369  0.3120  0.9510 -0.1362
  165DOPC   H8Y20041   6.993   1.466  15.302  0.0648 -0.7677 -2.0553
  165DOPC   C3920042   6.912   1.276  15.248 -0.1814 -0.1757 -0.3725
  165DOPC   H9X20043   6.812   1.315  15.222 -1.0480 -1.1773  1.2467
  165DOPC  C31020044   6.950   1.166  15.184 -0.2921  0.5393 -0.7975
  165DOPC  H10X20045   6.889   1.103  15.118 -2.8444 -0.0531  1.9114
  165DOPC  C31120046   7.083   1.097  15.203 -0.1737 -0.6518 -0.1915
  165DOPC  H11X20047   7.084   0.992  15.167  1.9735 -1.1776  1.1914
  165DOPC  H11Y20048   7.108   1.086  15.310 -2.7892 -0.1111  0.5336
  165DOPC  C31220049   7.193   1.183  15.132  0.2384 -0.6799  0.1589
  165DOPC  H12X20050   7.212   1.279  15.185  2.9473 -0.5409 -0.8688
  165DOPC  H12Y20051   7.145   1.209  15.036 -2.0921  1.4258  1.7700
  165DOPC  C31320052   7.331   1.126  15.130  0.4296 -0.2018 -0.1575
  165DOPC  H13X20053   7.380   1.101  15.227  0.1027 -0.5247 -0.0736
  165DOPC  H13Y20054   7.327   1.029  15.076 -2.8931 -0.2483 -0.0213
  165DOPC  C31420055   7.430   1.216  15.053  0.6890  0.4185  0.3618
  165DOPC  H14X20056   7.387   1.246  14.955  1.1391 -0.2443 -0.0448
  165DOPC  H14Y20057   7.437   1.315  15.103  1.0861  0.2965  0.5541
  165DOPC  C31520058   7.564   1.143  15.039 -0.0338 -0.7688  0.1241
  165DOPC  H15X20059   7.550   1.050  14.980 -0.4752 -2.1868  2.3679
  165DOPC  H15Y20060   7.600   1.102  15.135  0.8319 -0.0801  0.1126
  165DOPC  C31620061   7.675   1.232  14.973 -0.7698 -0.5366 -0.4306
  165DOPC  H16X20062   7.641   1.282  14.879 -0.7175 -1.4894 -0.9749
  165DOPC  H16Y20063   7.715   1.310  15.041 -1.8473  0.2047 -0.6191
  165DOPC  C31720064   7.798   1.143  14.936  0.4704 -0.4466 -0.5879
  165DOPC  H17X20065   7.777   1.092  14.840 -0.5280  0.5098 -0.8954
  165DOPC  H17Y20066   7.885   1.207  14.909 -0.9768  1.2174 -1.4751
  165DOPC  C31820067   7.840   1.060  15.044 -0.6686  0.2586 -0.7005
  165DOPC  H18X20068   7.784   0.965  15.056  2.1348 -1.1464  3.0527
  165DOPC  H18Y20069   7.945   1.026  15.037 -1.2069 -1.2402 -2.5575
  165DOPC  H18Z20070   7.838   1.109  15.143  3.2823  1.1028 -0.8940
  166DOPC     N20071   7.400   1.996  17.051  0.7045  0.7493  0.2749
  166DOPC   C1220072   7.466   2.043  16.923  0.2062  0.1757  0.3687
  166DOPC  H12A20073   7.426   2.141  16.901 -0.7470 -0.3444 -0.2834
  166DOPC  H12B20074   7.440   1.981  16.839  1.6399 -1.4071  1.0481
  166DOPC   C1320075   7.260   1.981  17.027  0.4506  0.4758 -0.8456
  166DOPC  H13A20076   7.239   1.896  16.964 -0.9076  0.7859 -0.8312
  166DOPC  H13B20077   7.207   1.971  17.121  0.6933  0.5936 -0.6953
  166DOPC  H13C20078   7.226   2.067  16.972  2.9052  1.1237 -1.4622
  166DOPC   C1420079   7.426   2.110  17.144 -0.0767  0.0896  0.2578
  166DOPC  H14A20080   7.376   2.092  17.238 -2.6704  0.2639 -1.0031
  166DOPC  H14B20081   7.533   2.114  17.152  0.0317 -0.5501 -0.7024
  166DOPC  H14C20082   7.396   2.200  17.093 -1.4976 -0.8947 -0.7411
  166DOPC   C1520083   7.457   1.874  17.106  0.2657 -0.5656 -0.2249
  166DOPC  H15A20084   7.556   1.886  17.147  0.5099  0.3718 -1.0452
  166DOPC  H15B20085   7.454   1.786  17.044 -1.0235  0.6392 -1.9924
  166DOPC  H15C20086   7.388   1.848  17.185 -0.5642 -0.9710 -1.0632
  166DOPC   C1120087   7.620   2.033  16.917  0.2290  0.0751 -0.3783
  166DOPC  H11A20088   7.646   1.930  16.950  0.8873 -0.1638 -1.6053
  166DOPC  H11B20089   7.660   2.044  16.814  0.4806 -1.3592 -0.4608
  166DOPC     P20090   7.694   2.284  16.989  0.3183 -0.3056  0.2186
  166DOPC   O1320091   7.789   2.336  17.089 -0.0169 -0.1878 -0.4483
  166DOPC   O1420092   7.557   2.346  16.984  0.3310 -0.1364 -0.2586
  166DOPC   O1220093   7.681   2.125  17.000  0.0835  0.0213 -0.3363
  166DOPC   O1120094   7.768   2.312  16.857  0.2041  0.0475  0.1875
  166DOPC    C120095   7.704   2.292  16.732 -0.1697 -0.3278  0.0609
  166DOPC    HA20096   7.594   2.277  16.741 -0.2019  0.2321  0.6941
  166DOPC    HB20097   7.740   2.199  16.683  2.1786 -1.4278  3.4940
  166DOPC    C220098   7.729   2.397  16.633  0.1341 -0.3088  0.4265
  166DOPC    HS20099   7.838   2.404  16.610  0.1176 -1.3739 -0.0394
  166DOPC   O2120100   7.672   2.519  16.678 -0.0768 -0.2150 -0.0771
  166DOPC   C2120101   7.728   2.625  16.628 -0.2569  0.6511  0.3149
  166DOPC   O2220102   7.831   2.632  16.560  0.4814 -0.3826 -0.5216
  166DOPC   C2220103   7.651   2.747  16.672 -0.0943  0.1731  0.7866
  166DOPC   H2R20104   7.672   2.756  16.780 -0.3870  0.2944  0.8332
  166DOPC   H2S20105   7.542   2.735  16.654 -0.0912  2.6533 -1.4608
  166DOPC    C320106   7.655   2.366  16.495  0.1265  0.7130  0.8926
  166DOPC    HX20107   7.675   2.456  16.433 -3.0185  1.1748  0.4015
  166DOPC    HY20108   7.547   2.350  16.515  0.4911 -2.2248  0.9411
  166DOPC   O3120109   7.714   2.251  16.434 -0.2637  0.3128 -0.2641
  166DOPC   C3120110   7.638   2.138  16.420  0.5202  0.2663  0.1509
  166DOPC   O3220111   7.522   2.137  16.451  0.3272 -0.1667  0.8585
  166DOPC   C3220112   7.716   2.024  16.368  0.3810  0.0170 -0.1515
  166DOPC   H2X20113   7.769   2.050  16.273  1.9813  0.1075  0.7262
  166DOPC   H2Y20114   7.792   2.003  16.446  2.8018  1.0709 -2.0689
  166DOPC   C2320115   7.684   2.884  16.600  0.0516 -0.2213  0.1550
  166DOPC   H3R20116   7.791   2.912  16.597  0.0819 -0.2586  0.7458
  166DOPC   H3S20117   7.628   2.958  16.661  0.3598  0.4142 -0.3228
  166DOPC   C2420118   7.619   2.901  16.462  0.2467 -0.0538  0.0508
  166DOPC   H4R20119   7.598   3.008  16.442  1.3998  0.7972  2.9459
  166DOPC   H4S20120   7.522   2.846  16.463  0.7440 -0.9402  0.6834
  166DOPC   C2520121   7.707   2.843  16.341  0.4539  0.0586 -0.1227
  166DOPC   H5R20122   7.740   2.741  16.369  2.0067  0.6445  0.2985
  166DOPC   H5S20123   7.806   2.893  16.346  0.6265 -0.1590 -1.0951
  166DOPC   C2620124   7.640   2.840  16.202  0.0379 -0.1009  0.0863
  166DOPC   H6R20125   7.631   2.944  16.164 -1.5625 -0.6642 -1.1620
  166DOPC   H6S20126   7.538   2.796  16.207 -0.3131  0.6197 -0.6186
  166DOPC   C2720127   7.710   2.754  16.096 -0.4703 -0.0659 -0.5342
  166DOPC   H7R20128   7.732   2.658  16.147 -1.6287 -0.6802 -1.1406
  166DOPC   H7S20129   7.811   2.790  16.070 -0.1501 -1.3728 -1.1799
  166DOPC   C2820130   7.614   2.729  15.972 -0.2883 -0.5568 -0.0225
  166DOPC   H8R20131   7.606   2.828  15.924  1.2261 -0.0668  0.6827
  166DOPC   H8S20132   7.517   2.698  16.015 -0.4515  0.0381  0.0397
  166DOPC   C2920133   7.659   2.624  15.873 -0.2554  0.1852  0.2366
  166DOPC   H9R20134   7.768   2.616  15.866 -0.4403 -1.2226 -1.6579
  166DOPC  C21020135   7.579   2.549  15.800  0.4702  0.0437 -0.6415
  166DOPC  H10R20136   7.627   2.476  15.733  2.2858  0.2927  0.3206
  166DOPC  C21120137   7.425   2.555  15.797  0.7480 -0.0850  0.0631
  166DOPC  H11R20138   7.386   2.564  15.694  0.7998 -0.6570 -0.0106
  166DOPC  H11S20139   7.393   2.643  15.857  2.9190  0.3054  0.7351
  166DOPC  C21220140   7.358   2.434  15.865  0.6036  0.4497  0.4490
  166DOPC  H12R20141   7.250   2.447  15.886  0.3742 -0.5489 -0.0739
  166DOPC  H12S20142   7.398   2.420  15.968  0.2655  1.4816  0.7377
  166DOPC  C21320143   7.390   2.307  15.784  0.0525  0.1208  0.2880
  166DOPC  H13R20144   7.496   2.287  15.759 -0.5806 -1.5381 -1.2696
  166DOPC  H13S20145   7.331   2.308  15.690 -1.2217 -2.4332  0.9619
  166DOPC  C21420146   7.335   2.183  15.857 -0.1771  0.3302 -0.3656
  166DOPC  H14R20147   7.224   2.181  15.860 -0.1695  0.3511 -0.0327
  166DOPC  H14S20148   7.373   2.202  15.960  0.3700  3.9724 -1.0920
  166DOPC  C21520149   7.388   2.048  15.809  0.3898 -0.6613 -0.2229
  166DOPC  H15R20150   7.386   1.980  15.896 -1.6427 -1.1715 -0.6129
  166DOPC  H15S20151   7.491   2.050  15.767  1.0551 -1.7419  1.2699
  166DOPC  C21620152   7.282   1.982  15.716  0.3238 -0.0766 -0.5740
  166DOPC  H16R20153   7.288   2.029  15.615  0.6200 -0.3660 -0.6924
  166DOPC  H16S20154   7.187   2.021  15.758  1.2811  1.4958  0.2607
  166DOPC  C21720155   7.296   1.825  15.703 -0.0265 -0.1025 -0.0209
  166DOPC  H17R20156   7.294   1.771  15.801 -0.5678 -2.0805 -1.0775
  166DOPC  H17S20157   7.392   1.816  15.648 -1.3879  0.8728 -2.6952
  166DOPC  C21820158   7.194   1.751  15.619  0.0071  0.8365 -0.5396
  166DOPC  H18R20159   7.098   1.735  15.672  0.1475 -1.1563 -0.8049
  166DOPC  H18S20160   7.234   1.648  15.605  3.2372  1.9088 -0.1051
  166DOPC  H18T20161   7.178   1.803  15.522  2.4724 -1.1850 -2.1834
  166DOPC   C3320162   7.650   1.890  16.346 -0.3255  0.0476  0.1637
  166DOPC   H3X20163   7.560   1.883  16.281 -2.0210 -2.9220  2.5439
  166DOPC   H3Y20164   7.616   1.850  16.444 -1.4483  1.3140  0.3250
  166DOPC   C3420165   7.748   1.771  16.327  0.2841  0.5985  0.0018
  166DOPC   H4X20166   7.694   1.676  16.307  1.0794 -0.2760  1.8099
  166DOPC   H4Y20167   7.803   1.745  16.420 -0.8833 -2.5573 -0.0772
  166DOPC   C3520168   7.848   1.793  16.211 -0.0366  0.1411 -0.4725
  166DOPC   H5X20169   7.923   1.711  16.214 -0.3568 -0.1614 -0.6453
  166DOPC   H5Y20170   7.899   1.892  16.212 -1.6122  0.9857 -0.6239
  166DOPC   C3620171   7.774   1.786  16.083 -0.6011  0.5127  0.4114
  166DOPC   H6X20172   7.709   1.696  16.081  0.0642  0.0399 -1.3745
  166DOPC   H6Y20173   7.710   1.876  16.072 -2.3480 -0.2375  3.3879
  166DOPC   C3720174   7.873   1.768  15.967 -0.3799  0.4308  0.1934
  166DOPC   H7X20175   7.958   1.839  15.957 -1.3423  1.7725  1.0573
  166DOPC   H7Y20176   7.906   1.662  15.974  0.3644  0.7068  1.1369
  166DOPC   C3820177   7.796   1.787  15.835 -0.3738  0.3708  0.2852
  166DOPC   H8X20178   7.780   1.896  15.830  0.4856  0.5333  0.8668
  166DOPC   H8Y20179   7.693   1.746  15.848  0.3010 -1.2707  0.7379
  166DOPC   C3920180   7.866   1.740  15.706 -1.0456  0.1656 -0.3445
  166DOPC   H9X20181   7.919   1.645  15.722 -1.4195  0.1725  1.1153
  166DOPC  C31020182   7.857   1.789  15.585  0.7484 -0.1405  0.3802
  166DOPC  H10X20183   7.931   1.759  15.509  0.4054  1.2223 -0.5242
  166DOPC  C31120184   7.769   1.907  15.549  0.1124 -0.0930 -0.6224
  166DOPC  H11X20185   7.782   1.998  15.612 -0.0352  0.8554 -1.9060
  166DOPC  H11Y20186   7.666   1.879  15.579 -0.0045 -0.8837 -1.7027
  166DOPC  C31220187   7.764   1.932  15.400  0.6401 -0.0502  0.1617
  166DOPC  H12X20188   7.739   1.833  15.355  0.4962  0.5200 -1.0455
  166DOPC  H12Y20189   7.861   1.966  15.358  1.1704  0.2861  1.5949
  166DOPC  C31320190   7.644   2.020  15.368 -0.6867 -0.1186  0.5007
  166DOPC  H13X20191   7.608   2.016  15.263  0.9247 -2.2277 -0.0269
  166DOPC  H13Y20192   7.551   1.983  15.417 -0.4228 -0.4801  0.7353
  166DOPC  C31420193   7.673   2.168  15.402  0.3776  0.1874 -0.0817
  166DOPC  H14X20194   7.710   2.194  15.503  0.4880  0.2381 -0.1353
  166DOPC  H14Y20195   7.751   2.192  15.327  0.1447  0.3103 -0.2872
  166DOPC  C31520196   7.554   2.258  15.370 -0.4947 -0.2324  0.0975
  166DOPC  H15X20197   7.482   2.255  15.454  0.5197 -0.3757  0.9882
  166DOPC  H15Y20198   7.502   2.224  15.278 -0.3282 -0.4537  0.0834
  166DOPC  C31620199   7.583   2.410  15.358 -0.3678  0.2728  0.0139
  166DOPC  H16X20200   7.613   2.458  15.453  1.7467  1.6337 -1.2526
  166DOPC  H16Y20201   7.660   2.414  15.278 -0.1992  2.6230  0.2178
  166DOPC  C31720202   7.455   2.483  15.318 -0.6896  0.4751  0.1093
  166DOPC  H17X20203   7.440   2.464  15.210  0.9982  0.2785 -0.1130
  166DOPC  H17Y20204   7.370   2.444  15.378  1.1077 -1.0132  1.8329
  166DOPC  C31820205   7.465   2.638  15.334 -0.3607  0.9696  0.0101
  166DOPC  H18X20206   7.548   2.664  15.265  0.2377 -3.2415 -1.1016
  166DOPC  H18Y20207   7.382   2.698  15.289  0.3043  2.9050  1.2284
  166DOPC  H18Z20208   7.488   2.672  15.437  3.2436 -0.1890 -0.2893
  167DOPC     N20209   7.135   1.276  17.114  0.1375  0.5531  0.0590
  167DOPC   C1220210   7.252   1.310  17.032 -0.0818 -0.1731 -0.4585
  167DOPC  H12A20211   7.313   1.222  17.028 -0.2048 -0.3046  0.2681
  167DOPC  H12B20212   7.314   1.381  17.086  1.4823 -2.1210  0.4300
  167DOPC   C1320213   7.053   1.172  17.049  0.4008  0.6081 -0.8136
  167DOPC  H13A20214   6.978   1.129  17.114 -0.6539 -0.7055 -2.7985
  167DOPC  H13B20215   7.008   1.198  16.954 -0.6025 -0.4183 -0.6469
  167DOPC  H13C20216   7.122   1.089  17.046  0.4744  0.6828 -1.3907
  167DOPC   C1420217   7.035   1.388  17.133 -0.3591  0.9407  0.0941
  167DOPC  H14A20218   7.086   1.456  17.199 -2.4084  0.5635  2.1863
  167DOPC  H14B20219   7.013   1.430  17.036  1.2605  2.8613  0.4945
  167DOPC  H14C20220   6.942   1.360  17.179 -0.1773  1.5370  0.8288
  167DOPC   C1520221   7.187   1.241  17.253  0.7196  0.2233  0.0872
  167DOPC  H15A20222   7.096   1.229  17.309 -0.1491  0.7983 -1.1709
  167DOPC  H15B20223   7.244   1.325  17.292 -0.5754  0.4162  1.6731
  167DOPC  H15C20224   7.241   1.148  17.242 -0.7346 -0.9091  1.9226
  167DOPC   C1120225   7.223   1.368  16.889 -0.9204 -0.5746 -0.0284
  167DOPC  H11A20226   7.325   1.378  16.846 -0.0438 -3.8042  0.9575
  167DOPC  H11B20227   7.165   1.290  16.835 -0.6906 -1.1750  0.5730
  167DOPC     P20228   7.221   1.614  16.951 -0.5222 -0.2647 -0.0348
  167DOPC   O1320229   7.355   1.577  17.010 -0.0639  0.1630 -0.5449
  167DOPC   O1420230   7.120   1.685  17.037  0.1580  0.4659  0.6921
  167DOPC   O1220231   7.151   1.485  16.886  0.5880 -0.5402 -0.3859
  167DOPC   O1120232   7.241   1.698  16.824 -0.2818 -0.3790  0.2158
  167DOPC    C120233   7.134   1.733  16.735 -0.0873  0.0275 -0.2012
  167DOPC    HA20234   7.156   1.841  16.717  0.5559 -0.0864 -0.1297
  167DOPC    HB20235   7.031   1.731  16.775  0.4751 -2.8312  1.2866
  167DOPC    C220236   7.140   1.652  16.609 -0.3807 -0.2427  0.6531
  167DOPC    HS20237   7.109   1.547  16.627  0.2276 -0.7538 -1.0407
  167DOPC   O2120238   7.276   1.655  16.558 -0.2311 -0.3697 -0.0374
  167DOPC   C2120239   7.308   1.547  16.486  0.2146  0.4246  0.1336
  167DOPC   O2220240   7.244   1.445  16.479  0.0208 -0.3649  0.1115
  167DOPC   C2220241   7.450   1.571  16.423  0.0660  0.4445  0.3175
  167DOPC   H2R20242   7.520   1.551  16.507  0.5788 -2.9433 -0.7468
  167DOPC   H2S20243   7.452   1.676  16.386  0.8023  0.2306 -0.2969
  167DOPC    C320244   7.043   1.709  16.494 -0.4828  0.6459 -0.6701
  167DOPC    HX20245   7.078   1.805  16.452  3.5565 -0.2106  0.3194
  167DOPC    HY20246   6.939   1.714  16.532 -0.8385 -1.2969 -1.2868
  167DOPC   O3120247   7.050   1.624  16.376 -0.0239  0.2540 -0.2833
  167DOPC   C3120248   6.985   1.506  16.369 -0.3789 -0.5737 -0.2244
  167DOPC   O3220249   6.925   1.449  16.460 -0.2314  0.0460 -0.1631
  167DOPC   C3220250   7.003   1.452  16.227 -0.3405 -0.1844  0.2542
  167DOPC   H2X20251   6.910   1.470  16.170  0.7379  0.8213 -1.2471
  167DOPC   H2Y20252   7.088   1.504  16.178 -1.1734  0.7717 -0.1837
  167DOPC   C2320253   7.473   1.471  16.308 -0.3387 -0.3767 -0.2447
  167DOPC   H3R20254   7.456   1.368  16.346  2.5793  0.3084  3.6551
  167DOPC   H3S20255   7.584   1.473  16.300 -0.2539  4.1878 -1.0614
  167DOPC   C2420256   7.412   1.511  16.175  0.0198  0.3333 -0.0665
  167DOPC   H4R20257   7.445   1.609  16.135 -1.6324  1.4219  1.1009
  167DOPC   H4S20258   7.301   1.516  16.185  0.1132  0.7371  0.8110
  167DOPC   C2520259   7.439   1.414  16.063  0.3862  0.3090  0.3541
  167DOPC   H5R20260   7.381   1.321  16.085 -0.2083 -0.1809 -2.7522
  167DOPC   H5S20261   7.546   1.384  16.068  0.6661  1.1000 -0.7227
  167DOPC   C2620262   7.412   1.459  15.923 -0.6406  0.0534  0.0590
  167DOPC   H6R20263   7.493   1.532  15.904 -1.7652  1.5011  0.6499
  167DOPC   H6S20264   7.317   1.516  15.925 -1.5857 -1.4663  0.9396
  167DOPC   C2720265   7.401   1.338  15.827 -0.0079  0.4604 -0.3441
  167DOPC   H7R20266   7.316   1.277  15.866  1.4734 -1.3524  0.1821
  167DOPC   H7S20267   7.495   1.280  15.835  0.1083  0.3129 -2.4119
  167DOPC   C2820268   7.386   1.407  15.691  0.3211  0.2936  0.6810
  167DOPC   H8R20269   7.470   1.479  15.685  1.4778 -1.1424 -1.6716
  167DOPC   H8S20270   7.294   1.468  15.696 -1.0788 -1.7090  0.8007
  167DOPC   C2920271   7.384   1.301  15.577  0.0580  0.3622 -0.2186
  167DOPC   H9R20272   7.386   1.199  15.617 -2.2831  1.1781  2.3253
  167DOPC  C21020273   7.377   1.326  15.448  0.0270 -0.1797 -0.9002
  167DOPC  H10R20274   7.385   1.245  15.374 -3.2501 -1.0878 -0.4045
  167DOPC  C21120275   7.374   1.462  15.398  0.3367  0.6176 -0.0921
  167DOPC  H11R20276   7.316   1.530  15.465 -2.6040  0.0747 -1.9352
  167DOPC  H11S20277   7.321   1.455  15.301  0.6273 -0.6191 -0.1720
  167DOPC  C21220278   7.502   1.538  15.363  0.1141  0.3564 -0.3849
  167DOPC  H12R20279   7.566   1.538  15.454 -1.3088 -0.1120  0.6578
  167DOPC  H12S20280   7.556   1.492  15.277  0.5582  0.0813  0.0398
  167DOPC  C21320281   7.475   1.689  15.335 -0.6759  0.5837  0.0050
  167DOPC  H13R20282   7.577   1.717  15.302  0.7240 -1.3314  2.3234
  167DOPC  H13S20283   7.453   1.740  15.431 -0.8509  0.6910 -0.0930
  167DOPC  C21420284   7.372   1.736  15.226 -0.4460  0.4948  0.5334
  167DOPC  H14R20285   7.383   1.846  15.213 -2.6088  0.9866  2.2373
  167DOPC  H14S20286   7.269   1.727  15.266 -1.6551  2.2209 -1.9256
  167DOPC  C21520287   7.395   1.647  15.104 -0.4860  0.2688 -0.1547
  167DOPC  H15R20288   7.315   1.673  15.031 -1.7380  2.3754  1.8153
  167DOPC  H15S20289   7.383   1.539  15.125  0.2602 -0.0902 -1.4867
  167DOPC  C21620290   7.536   1.663  15.036  0.0015  0.0795  0.3847
  167DOPC  H16R20291   7.520   1.617  14.936  0.6352  2.0296 -0.6609
  167DOPC  H16S20292   7.609   1.613  15.104 -1.7722  0.2405  2.5356
  167DOPC  C21720293   7.577   1.809  15.019 -0.0554  0.4752  0.2991
  167DOPC  H17R20294   7.682   1.812  14.981  0.4739  1.9657  1.7216
  167DOPC  H17S20295   7.587   1.852  15.122  1.4147 -1.8428  1.1995
  167DOPC  C21820296   7.494   1.909  14.931  0.0773 -0.3861 -0.2996
  167DOPC  H18R20297   7.388   1.893  14.958 -0.2604  1.5362 -0.3206
  167DOPC  H18S20298   7.513   1.891  14.823 -2.8644 -2.7194 -0.5380
  167DOPC  H18T20299   7.527   2.013  14.955 -0.0106 -0.1722 -1.0774
  167DOPC   C3320300   7.028   1.296  16.224 -0.5132  0.8935  0.4337
  167DOPC   H3X20301   6.933   1.251  16.260 -1.1451  1.6436 -0.2592
  167DOPC   H3Y20302   7.120   1.271  16.281  1.1677  1.2166 -1.9755
  167DOPC   C3420303   7.069   1.240  16.081  0.1078 -0.2024  0.5487
  167DOPC   H4X20304   7.151   1.303  16.041 -1.1633  0.5732 -0.9101
  167DOPC   H4Y20305   6.987   1.263  16.010 -0.4229 -0.1933  1.1548
  167DOPC   C3520306   7.098   1.083  16.082  0.0450 -0.5587  0.0822
  167DOPC   H5X20307   7.015   1.043  16.143  0.1720 -2.5252 -0.9423
  167DOPC   H5Y20308   7.191   1.063  16.139 -1.4202 -2.3204  1.9944
  167DOPC   C3620309   7.107   1.018  15.940 -0.5297  0.9868 -1.1193
  167DOPC   H6X20310   7.193   1.058  15.883  1.5422 -1.8957 -0.2405
  167DOPC   H6Y20311   7.128   0.909  15.951  0.1085  0.8249 -3.4803
  167DOPC   C3720312   6.976   1.026  15.860  0.3390  0.2901  0.3003
  167DOPC   H7X20313   6.889   0.999  15.923 -1.4444  0.1032 -2.1003
  167DOPC   H7Y20314   6.955   1.131  15.833 -0.8554 -0.1029 -0.3769
  167DOPC   C3820315   6.970   0.933  15.738 -0.4757 -1.3659  0.3365
  167DOPC   H8X20316   6.864   0.933  15.704  0.0720  1.6697 -1.7889
  167DOPC   H8Y20317   6.986   0.825  15.761  2.2789 -1.1721 -0.3270
  167DOPC   C3920318   7.052   0.979  15.620  0.1573  0.3263  0.0820
  167DOPC   H9X20319   7.084   1.084  15.614 -0.5103  0.4970 -0.8892
  167DOPC  C31020320   7.068   0.906  15.502 -0.1145  0.2095  0.1986
  167DOPC  H10X20321   7.138   0.949  15.429  0.4487 -2.9877 -1.2985
  167DOPC  C31120322   7.024   0.770  15.475 -0.5224 -0.3851  0.0650
  167DOPC  H11X20323   6.946   0.732  15.544 -0.4968  0.0514  0.3424
  167DOPC  H11Y20324   7.104   0.693  15.481  2.5804  2.4924 -1.1688
  167DOPC  C31220325   6.950   0.759  15.346 -0.0436  0.0991  0.4000
  167DOPC  H12X20326   6.926   0.652  15.327 -0.5528  0.2224  0.3448
  167DOPC  H12Y20327   7.009   0.794  15.258  1.0218  0.8579  1.3807
  167DOPC  C31320328   6.813   0.831  15.338 -0.5162  0.7091 -0.3710
  167DOPC  H13X20329   6.738   0.800  15.414 -1.4232  2.0003 -0.6920
  167DOPC  H13Y20330   6.818   0.939  15.366  0.0625  0.6390 -0.1925
  167DOPC  C31420331   6.735   0.819  15.198  0.8360  0.0482 -0.5431
  167DOPC  H14X20332   6.805   0.853  15.118 -2.0623  2.2065 -2.3658
  167DOPC  H14Y20333   6.710   0.713  15.180 -1.9108  0.4206  0.6340
  167DOPC  C31520334   6.609   0.911  15.180  0.3045  0.6381  0.1625
  167DOPC  H15X20335   6.609   1.008  15.233 -0.4612 -1.3342  4.1914
  167DOPC  H15Y20336   6.512   0.865  15.210  0.0059  0.2239 -1.3132
  167DOPC  C31620337   6.578   0.955  15.034  0.0097 -0.6010 -0.1945
  167DOPC  H16X20338   6.523   1.051  15.032 -0.7540 -0.9949  0.9236
  167DOPC  H16Y20339   6.678   0.964  14.986  0.9532 -1.4158  1.5351
  167DOPC  C31720340   6.500   0.854  14.956  0.7179  0.3499  0.2778
  167DOPC  H17X20341   6.549   0.754  14.953 -2.5501 -1.4141  0.3840
  167DOPC  H17Y20342   6.403   0.837  15.008  0.6723 -0.7405 -0.1415
  167DOPC  C31820343   6.456   0.898  14.809 -0.5598  0.1857  0.0036
  167DOPC  H18X20344   6.366   0.839  14.782 -0.9465 -0.2474  2.0811
  167DOPC  H18Y20345   6.436   1.008  14.813  1.3177  0.5274  1.0859
  167DOPC  H18Z20346   6.548   0.874  14.752  0.2548 -0.1310  1.4265
  168DOPC     N20347   2.121   7.181  17.051  0.3960  0.4444 -0.0020
  168DOPC   C1220348   1.990   7.142  17.113  0.2011  0.1345 -0.4121
  168DOPC  H12A20349   1.914   7.219  17.115  0.1177  0.1564 -2.5000
  168DOPC  H12B20350   2.003   7.126  17.219  1.8737 -1.4017 -0.8000
  168DOPC   C1320351   2.220   7.074  17.063 -0.1166 -0.3989 -0.1920
  168DOPC  H13A20352   2.247   7.052  17.165 -1.7488  1.3557  0.6742
  168DOPC  H13B20353   2.193   6.981  17.016 -1.8856 -0.0948  0.1678
  168DOPC  H13C20354   2.312   7.098  17.011  0.6397 -1.8701  0.4182
  168DOPC   C1420355   2.176   7.297  17.118  0.4160 -0.1505 -0.1860
  168DOPC  H14A20356   2.122   7.389  17.099  0.7286  0.2329  0.7017
  168DOPC  H14B20357   2.180   7.284  17.225 -1.9858  0.7063  0.0737
  168DOPC  H14C20358   2.277   7.320  17.088 -0.0397  3.1000  0.3500
  168DOPC   C1520359   2.097   7.222  16.904  0.2930  0.0814  0.3436
  168DOPC  H15A20360   2.028   7.305  16.907 -2.4074 -2.0532  1.4546
  168DOPC  H15B20361   2.057   7.132  16.859  1.2986 -0.3413  0.2569
  168DOPC  H15C20362   2.186   7.260  16.856 -0.1452  2.7246  1.4954
  168DOPC   C1120363   1.928   7.007  17.073 -0.1943 -0.1028 -0.0030
  168DOPC  H11A20364   1.998   6.929  17.109  0.0354 -0.8866 -2.0602
  168DOPC  H11B20365   1.838   6.995  17.136 -0.1163 -0.0937  0.1119
  168DOPC     P20366   1.768   7.038  16.860 -0.0401 -0.1549 -0.7685
  168DOPC   O1320367   1.696   7.144  16.933  0.4136 -0.2626  0.4337
  168DOPC   O1420368   1.703   6.909  16.836 -0.3326  0.6146  0.0282
  168DOPC   O1220369   1.904   7.005  16.935  0.2653  0.6795  0.1171
  168DOPC   O1120370   1.828   7.104  16.737 -0.4489  0.3794  0.0157
  168DOPC    C120371   1.939   7.085  16.649  0.1775 -0.7751 -0.1445
  168DOPC    HA20372   2.020   7.028  16.699  2.4963  1.5066 -1.0769
  168DOPC    HB20373   1.993   7.180  16.628  1.9001 -1.5505  0.6113
  168DOPC    C220374   1.900   7.010  16.517 -0.0067 -0.1892 -0.4143
  168DOPC    HS20375   1.834   6.930  16.558 -0.0384  0.3329  0.5906
  168DOPC   O2120376   2.015   6.958  16.460  0.3857 -0.1104 -0.0803
  168DOPC   C2120377   1.982   6.862  16.368 -0.2101 -0.4008 -0.0921
  168DOPC   O2220378   1.872   6.818  16.343  0.3922 -0.5308  0.0577
  168DOPC   C2220379   2.108   6.815  16.295 -0.8128  0.6712 -0.8587
  168DOPC   H2R20380   2.140   6.727  16.355  0.7407  0.6118 -1.7149
  168DOPC   H2S20381   2.186   6.892  16.314  0.2877 -0.4882 -0.4712
  168DOPC    C320382   1.818   7.112  16.430  0.4180  0.8242  0.2277
  168DOPC    HX20383   1.887   7.191  16.395  0.3686  0.4058 -0.8507
  168DOPC    HY20384   1.745   7.167  16.493 -0.0005 -0.4490  0.8904
  168DOPC   O3120385   1.748   7.062  16.317 -0.1817  0.2333 -0.3249
  168DOPC   C3120386   1.635   6.993  16.336 -0.0935  0.8556  0.2407
  168DOPC   O3220387   1.581   6.970  16.442 -0.2478 -0.0161 -0.1635
  168DOPC   C3220388   1.579   6.953  16.201 -0.2044 -0.2771 -0.3707
  168DOPC   H2X20389   1.564   7.047  16.145  2.3628  1.2705  1.3472
  168DOPC   H2Y20390   1.653   6.885  16.152 -0.7265 -2.0667  1.1972
  168DOPC   C2320391   2.103   6.779  16.150  0.2617  0.1746  0.1069
  168DOPC   H3R20392   2.204   6.775  16.105 -0.3753  0.7291 -1.4456
  168DOPC   H3S20393   2.031   6.843  16.094  2.6447  0.6416 -2.5990
  168DOPC   C2420394   2.050   6.631  16.141  0.5032  0.9865 -0.4817
  168DOPC   H4R20395   1.964   6.620  16.211  1.7251  0.1469  0.9451
  168DOPC   H4S20396   2.129   6.564  16.182  0.6675  1.6639  0.3388
  168DOPC   C2520397   2.003   6.579  16.011 -0.4684  0.5339  0.3998
  168DOPC   H5R20398   1.905   6.625  15.986 -0.4703 -0.9094 -2.7510
  168DOPC   H5S20399   1.994   6.469  16.023  3.0806  0.1490  0.7143
  168DOPC   C2620400   2.098   6.595  15.890 -0.8099  0.1213  0.4612
  168DOPC   H6R20401   2.183   6.524  15.888 -1.6935 -0.9649 -0.4605
  168DOPC   H6S20402   2.136   6.699  15.895 -1.1958  0.3876 -1.3217
  168DOPC   C2720403   2.016   6.580  15.753 -0.1575  0.7274  0.4989
  168DOPC   H7R20404   1.951   6.670  15.755  0.3923  1.1148  1.6252
  168DOPC   H7S20405   1.957   6.487  15.748 -0.7259  1.1049  0.0805
  168DOPC   C2820406   2.109   6.564  15.634 -0.4472  0.8860  0.7942
  168DOPC   H8R20407   2.150   6.461  15.640 -1.2060  0.5128 -0.1341
  168DOPC   H8S20408   2.198   6.629  15.645  0.7006 -0.7222  1.4876
  168DOPC   C2920409   2.035   6.583  15.501  0.8322 -0.0430 -0.1725
  168DOPC   H9R20410   1.994   6.495  15.451 -1.3532  0.1971  1.0993
  168DOPC  C21020411   2.016   6.700  15.440 -0.1742  0.0509  0.1160
  168DOPC  H10R20412   1.965   6.694  15.343 -0.3280  1.8766  0.0561
  168DOPC  C21120413   2.069   6.833  15.482 -0.3709  0.0258  0.1841
  168DOPC  H11R20414   2.101   6.839  15.588 -0.9007 -1.6991  0.4588
  168DOPC  H11S20415   1.979   6.899  15.478 -0.6233 -0.3324 -0.0721
  168DOPC  C21220416   2.166   6.888  15.386 -0.3387 -0.3026  0.1866
  168DOPC  H12R20417   2.177   6.999  15.396 -2.2298  0.1210 -1.6650
  168DOPC  H12S20418   2.112   6.869  15.290 -1.5607  0.2303  0.7461
  168DOPC  C21320419   2.303   6.818  15.391  0.5985  0.5751  0.1071
  168DOPC  H13R20420   2.288   6.716  15.432  1.0544  0.6957  0.5841
  168DOPC  H13S20421   2.355   6.869  15.475 -2.6598  2.2235  1.3295
  168DOPC  C21420422   2.381   6.812  15.269 -0.0704 -0.2976  0.0575
  168DOPC  H14R20423   2.321   6.774  15.183 -2.8949  0.4207  1.5572
  168DOPC  H14S20424   2.470   6.746  15.272  0.6035  0.6237  1.6592
  168DOPC  C21520425   2.430   6.958  15.238 -0.0159  0.4722  0.6501
  168DOPC  H15R20426   2.513   6.990  15.304  2.2553 -0.6871 -1.4358
  168DOPC  H15S20427   2.352   7.033  15.263  1.7617  2.5569  0.2451
  168DOPC  C21620428   2.481   6.964  15.093 -0.7746  0.1951  0.7702
  168DOPC  H16R20429   2.396   6.938  15.027 -0.6694 -0.3075  0.8293
  168DOPC  H16S20430   2.560   6.887  15.079 -1.0648 -0.6188  3.0944
  168DOPC  C21720431   2.522   7.105  15.056  0.2311 -0.1861  0.6218
  168DOPC  H17R20432   2.611   7.088  14.991  0.2443  0.8242  0.3500
  168DOPC  H17S20433   2.549   7.160  15.148  1.4564 -0.6163  0.5440
  168DOPC  C21820434   2.421   7.185  14.966  0.1354  0.0542  0.0768
  168DOPC  H18R20435   2.396   7.122  14.878  0.5081  0.0474 -0.0249
  168DOPC  H18S20436   2.469   7.278  14.932 -0.0139 -0.0313 -0.3741
  168DOPC  H18T20437   2.330   7.210  15.025  0.7901  0.7173  0.8199
  168DOPC   C3320438   1.442   6.874  16.193 -0.1323  0.1044  0.1139
  168DOPC   H3X20439   1.359   6.935  16.234  0.1553 -0.0388  0.9286
  168DOPC   H3Y20440   1.454   6.788  16.262  0.8732 -0.6652 -0.9725
  168DOPC   C3420441   1.399   6.823  16.056  0.3286  0.4585 -0.4748
  168DOPC   H4X20442   1.495   6.788  16.011 -0.2159 -1.8295  0.0370
  168DOPC   H4Y20443   1.358   6.912  16.005 -0.2642 -0.3025 -1.3546
  168DOPC   C3520444   1.292   6.705  16.071  0.8546  0.0820 -0.1833
  168DOPC   H5X20445   1.219   6.743  16.146  0.9369  0.2410 -0.1826
  168DOPC   H5Y20446   1.339   6.613  16.112  2.9598  0.7199 -1.0324
  168DOPC   C3620447   1.224   6.667  15.938  0.1209 -0.2621  0.1181
  168DOPC   H6X20448   1.125   6.619  15.952 -0.5326  1.2510  0.8700
  168DOPC   H6Y20449   1.212   6.768  15.893  2.1366 -0.2203 -0.4102
  168DOPC   C3720450   1.306   6.573  15.850  0.2224 -0.6256  0.1542
  168DOPC   H7X20451   1.415   6.561  15.870  0.1517 -0.5505  0.5896
  168DOPC   H7Y20452   1.270   6.474  15.885  0.9408 -1.3774 -1.1493
  168DOPC   C3820453   1.278   6.581  15.696  0.3886 -0.6762 -0.7713
  168DOPC   H8X20454   1.336   6.499  15.650  0.7200 -1.0613  0.3085
  168DOPC   H8Y20455   1.318   6.670  15.643  0.0648 -0.8955 -1.3975
  168DOPC   C3920456   1.130   6.563  15.678  0.3611 -0.0052  0.2556
  168DOPC   H9X20457   1.064   6.629  15.736 -0.2820  0.3919 -0.8992
  168DOPC  C31020458   1.074   6.471  15.598  0.1547  0.5270  0.5073
  168DOPC  H10X20459   0.965   6.465  15.586  0.1950 -3.7108  0.5912
  168DOPC  C31120460   1.154   6.372  15.517  0.2984 -0.4161  0.2055
  168DOPC  H11X20461   1.222   6.307  15.574  1.5195  0.7032  0.0763
  168DOPC  H11Y20462   1.221   6.425  15.446  2.1662 -2.8736 -0.0067
  168DOPC  C31220463   1.061   6.285  15.431  0.5620 -1.1185 -0.5816
  168DOPC  H12X20464   0.984   6.353  15.390  0.4154 -0.8158  0.1829
  168DOPC  H12Y20465   1.005   6.205  15.483  0.8255 -1.8675 -1.4197
  168DOPC  C31320466   1.136   6.222  15.314  0.0559  0.8620 -0.0364
  168DOPC  H13X20467   1.215   6.286  15.269  1.0042  0.8541  1.5270
  168DOPC  H13Y20468   1.188   6.137  15.364 -1.4580 -0.6233 -0.9297
  168DOPC  C31420469   1.035   6.176  15.208  0.0650 -0.1735  0.1896
  168DOPC  H14X20470   0.963   6.101  15.247  0.7015 -1.5670 -1.2586
  168DOPC  H14Y20471   0.973   6.262  15.176 -0.2504 -0.4959 -0.0611
  168DOPC  C31520472   1.101   6.107  15.094  0.1943  0.2702  0.8335
  168DOPC  H15X20473   1.133   6.004  15.123  0.1442 -0.2856 -0.9546
  168DOPC  H15Y20474   1.199   6.152  15.070  0.5115 -1.2411 -0.9780
  168DOPC  C31620475   1.015   6.086  14.975  0.6868 -0.0432 -0.2039
  168DOPC  H16X20476   0.930   6.022  15.006  1.5487 -1.2673 -0.2999
  168DOPC  H16Y20477   0.975   6.179  14.928 -1.4872 -1.2798 -0.9263
  168DOPC  C31720478   1.086   6.002  14.864  1.2241 -0.6475  0.0026
  168DOPC  H17X20479   1.130   5.908  14.904  0.9463 -1.0937 -0.7177
  168DOPC  H17Y20480   1.011   5.980  14.784 -1.6044 -0.0512  2.3168
  168DOPC  C31820481   1.204   6.068  14.800 -0.3311  0.2425 -0.3835
  168DOPC  H18X20482   1.188   6.131  14.711  1.0624  1.5810  0.2799
  168DOPC  H18Y20483   1.260   6.124  14.878 -1.9261 -1.0263  1.7871
  168DOPC  H18Z20484   1.275   5.990  14.765 -1.3191 -1.2464  0.7609
  169DOPC     N20485   1.739   1.113  16.836  0.0828  0.0888  0.0692
  169DOPC   C1220486   1.592   1.117  16.875 -0.4747  0.7330  0.2262
  169DOPC  H12A20487   1.554   1.040  16.939 -1.8885  0.3645 -0.9879
  169DOPC  H12B20488   1.546   1.103  16.778  1.7653  1.3767 -1.0145
  169DOPC   C1320489   1.763   1.216  16.727 -0.2244 -0.0280 -0.2562
  169DOPC  H13A20490   1.704   1.205  16.637 -0.8420  1.4734 -0.0675
  169DOPC  H13B20491   1.721   1.310  16.759 -0.5971  0.1951 -1.3570
  169DOPC  H13C20492   1.869   1.225  16.712 -0.4334  1.8106 -0.9591
  169DOPC   C1420493   1.760   0.976  16.779  0.1326  0.0582 -0.4384
  169DOPC  H14A20494   1.738   0.901  16.854  0.9699 -0.3523 -0.5949
  169DOPC  H14B20495   1.704   0.963  16.687 -1.0363 -0.4234  0.3237
  169DOPC  H14C20496   1.864   0.973  16.750  0.1006  0.3853 -0.5922
  169DOPC   C1520497   1.831   1.139  16.953  0.2380  0.7263 -0.5006
  169DOPC  H15A20498   1.816   1.231  17.007 -0.9695  0.4737 -0.3740
  169DOPC  H15B20499   1.931   1.158  16.916  0.1520 -1.5087 -2.1191
  169DOPC  H15C20500   1.822   1.056  17.021 -1.3880  3.4330  2.8660
  169DOPC   C1120501   1.552   1.255  16.943 -0.3581 -0.1933  0.2026
  169DOPC  H11A20502   1.616   1.273  17.032  0.7937  1.8216 -0.9680
  169DOPC  H11B20503   1.573   1.351  16.891 -2.2705  0.2045  0.1048
  169DOPC     P20504   1.308   1.298  16.898  0.2449  0.3084 -0.2179
  169DOPC   O1320505   1.326   1.430  16.839 -0.0059  0.2246 -0.2835
  169DOPC   O1420506   1.175   1.269  16.963  0.1284  0.2270  0.1666
  169DOPC   O1220507   1.419   1.260  16.999  0.0876 -0.2272  0.2481
  169DOPC   O1120508   1.322   1.191  16.786 -0.0656 -0.3321  0.4513
  169DOPC    C120509   1.275   1.058  16.808  0.1416  0.4052 -0.0708
  169DOPC    HA20510   1.164   1.058  16.803  0.0757  1.6090  1.0562
  169DOPC    HB20511   1.300   1.022  16.910  0.7687 -0.5104 -0.5270
  169DOPC    C220512   1.329   0.946  16.712 -0.1201 -0.4977 -0.0582
  169DOPC    HS20513   1.435   0.940  16.743  0.0736 -0.5386 -0.7152
  169DOPC   O2120514   1.313   0.989  16.579 -0.0050  0.3636 -0.0446
  169DOPC   C2120515   1.409   0.958  16.495 -0.9512 -0.2658  0.6557
  169DOPC   O2220516   1.517   0.911  16.524 -0.0544  0.7717 -0.1969
  169DOPC   C2220517   1.369   0.993  16.356 -0.3377 -0.4470  0.0488
  169DOPC   H2R20518   1.327   1.096  16.360  0.4906 -0.1045  0.1216
  169DOPC   H2S20519   1.292   0.918  16.329 -0.9330  0.2986 -0.3686
  169DOPC    C320520   1.252   0.813  16.737 -0.2160  0.7668  0.1178
  169DOPC    HX20521   1.143   0.816  16.714 -0.0960  0.1019 -0.5869
  169DOPC    HY20522   1.253   0.789  16.845  0.0846  0.3486  0.0244
  169DOPC   O3120523   1.313   0.699  16.665  0.7518 -0.4472 -0.0413
  169DOPC   C3120524   1.249   0.668  16.551 -0.8711  0.2507 -0.0600
  169DOPC   O3220525   1.163   0.728  16.495  0.1416 -0.2649 -0.0691
  169DOPC   C3220526   1.308   0.535  16.499  0.3240  0.2484  0.9088
  169DOPC   H2X20527   1.418   0.547  16.506  0.5450 -0.3143 -0.9692
  169DOPC   H2Y20528   1.288   0.449  16.566 -1.4848 -0.1078 -0.0161
  169DOPC   C2320529   1.475   0.970  16.256  0.1700  0.1649  0.0355
  169DOPC   H3R20530   1.506   0.869  16.220  0.6871  0.3699 -0.1011
  169DOPC   H3S20531   1.569   1.027  16.275  0.7002 -0.6699 -0.0125
  169DOPC   C2420532   1.430   1.043  16.127  0.0557  1.1701  0.6796
  169DOPC   H4R20533   1.331   1.014  16.085  1.0840 -0.6103 -0.6301
  169DOPC   H4S20534   1.505   1.027  16.048 -2.3792  0.1716 -1.5763
  169DOPC   C2520535   1.425   1.197  16.145  0.4954  0.1300 -0.1975
  169DOPC   H5R20536   1.522   1.220  16.195  1.2258 -2.3327 -0.3087
  169DOPC   H5S20537   1.341   1.220  16.214  1.4654 -0.9961  1.4372
  169DOPC   C2620538   1.408   1.271  16.011 -0.2735 -0.5308 -0.1155
  169DOPC   H6R20539   1.357   1.369  16.026 -3.2374 -2.0450  0.5203
  169DOPC   H6S20540   1.342   1.214  15.941 -0.6012  0.0506 -0.2904
  169DOPC   C2720541   1.546   1.311  15.954  0.0056  0.2787 -0.0242
  169DOPC   H7R20542   1.604   1.221  15.926 -2.6467 -1.3461 -0.6704
  169DOPC   H7S20543   1.608   1.370  16.024  1.0199 -0.4635 -0.2813
  169DOPC   C2820544   1.527   1.409  15.837 -0.3440 -0.6098 -0.1925
  169DOPC   H8R20545   1.480   1.505  15.866  0.8734  0.4076 -1.4284
  169DOPC   H8S20546   1.465   1.364  15.756  0.0346  0.0611 -0.8720
  169DOPC   C2920547   1.660   1.428  15.767  0.8203 -0.0436  0.4050
  169DOPC   H9R20548   1.707   1.339  15.721  0.2073 -0.3880  0.4352
  169DOPC  C21020549   1.731   1.536  15.752 -0.3471 -0.7011  0.0992
  169DOPC  H10R20550   1.822   1.532  15.690 -0.1078  0.3991  0.3596
  169DOPC  C21120551   1.698   1.672  15.803 -0.0452  0.4304 -0.4894
  169DOPC  H11R20552   1.768   1.689  15.888  0.2240  1.9349 -0.9719
  169DOPC  H11S20553   1.592   1.674  15.836 -0.1204 -1.0068 -0.5989
  169DOPC  C21220554   1.728   1.778  15.692 -0.2982 -0.0148  0.0364
  169DOPC  H12R20555   1.657   1.770  15.607 -0.7677  1.2352  0.2922
  169DOPC  H12S20556   1.832   1.759  15.657 -0.5020 -0.5911 -0.2794
  169DOPC  C21320557   1.714   1.920  15.738  0.0648 -0.2557 -0.1759
  169DOPC  H13R20558   1.783   1.945  15.821 -0.5538 -0.0344  0.2800
  169DOPC  H13S20559   1.610   1.946  15.768 -0.1896  0.8797 -1.8934
  169DOPC  C21420560   1.741   2.008  15.608 -0.2956 -0.2720 -0.4823
  169DOPC  H14R20561   1.679   1.975  15.522  0.5964 -0.9920 -0.8673
  169DOPC  H14S20562   1.848   1.993  15.584 -0.5693 -0.0673 -1.9382
  169DOPC  C21520563   1.722   2.158  15.635  0.2286  0.4387  0.0467
  169DOPC  H15R20564   1.807   2.206  15.690  0.0731 -0.1241  0.7896
  169DOPC  H15S20565   1.635   2.165  15.703  0.1531  3.0208 -0.2056
  169DOPC  C21620566   1.682   2.248  15.516 -0.0470  0.5519 -0.4557
  169DOPC  H16R20567   1.574   2.232  15.499  0.1416 -0.0593 -1.1273
  169DOPC  H16S20568   1.741   2.211  15.429  1.6889  2.9626 -0.4227
  169DOPC  C21720569   1.703   2.401  15.529 -0.5422 -0.6556  0.0406
  169DOPC  H17R20570   1.652   2.452  15.445  0.2606 -0.6021 -0.4155
  169DOPC  H17S20571   1.809   2.434  15.522 -0.6040 -0.5474 -0.3845
  169DOPC  C21820572   1.647   2.468  15.652  0.5173 -0.0520  0.0217
  169DOPC  H18R20573   1.688   2.414  15.740  2.2767  2.4082  0.8151
  169DOPC  H18S20574   1.536   2.475  15.652  0.3978 -1.0810 -2.1132
  169DOPC  H18T20575   1.687   2.571  15.662 -0.3818  0.2941  0.1768
  169DOPC   C3320576   1.258   0.497  16.357 -0.0184  0.3902  0.1480
  169DOPC   H3X20577   1.147   0.485  16.361  0.0531 -0.9193 -0.9947
  169DOPC   H3Y20578   1.302   0.400  16.323 -1.8377 -0.2250 -0.5737
  169DOPC   C3420579   1.308   0.585  16.243  0.1850  0.2621 -0.2489
  169DOPC   H4X20580   1.410   0.554  16.213 -0.3751 -0.2107 -1.7733
  169DOPC   H4Y20581   1.303   0.691  16.275 -1.1068 -0.4322  2.0865
  169DOPC   C3520582   1.229   0.562  16.115  0.4140 -0.0601 -0.4728
  169DOPC   H5X20583   1.131   0.613  16.127  0.1318 -0.5269 -0.7840
  169DOPC   H5Y20584   1.205   0.455  16.103 -0.1743 -0.2935  2.1821
  169DOPC   C3620585   1.293   0.613  15.988  0.2108 -0.4080 -0.3372
  169DOPC   H6X20586   1.314   0.720  16.010 -2.0085  0.1061 -0.4602
  169DOPC   H6Y20587   1.386   0.558  15.964  1.1956 -0.0012  2.2261
  169DOPC   C3720588   1.192   0.610  15.870 -0.7642 -0.0308 -0.2505
  169DOPC   H7X20589   1.189   0.509  15.823  3.7366  0.3221 -1.8353
  169DOPC   H7Y20590   1.092   0.638  15.908 -0.0627  0.7549  1.0818
  169DOPC   C3820591   1.246   0.700  15.756 -0.1654  0.0418 -0.0958
  169DOPC   H8X20592   1.354   0.687  15.733  0.2189 -0.7500  2.0164
  169DOPC   H8Y20593   1.226   0.803  15.793 -1.6742 -1.6403  4.3954
  169DOPC   C3920594   1.181   0.698  15.616  0.4442  0.5437 -1.4046
  169DOPC   H9X20595   1.140   0.603  15.577  0.6431  0.3947 -1.2537
  169DOPC  C31020596   1.170   0.802  15.534 -0.2488  0.2485 -0.6617
  169DOPC  H10X20597   1.125   0.781  15.436 -1.5425 -1.0556  0.1625
  169DOPC  C31120598   1.216   0.946  15.558  0.2642  0.2244  0.1739
  169DOPC  H11X20599   1.237   0.968  15.665 -0.2784 -0.6054  0.4605
  169DOPC  H11Y20600   1.130   1.014  15.539  0.9666  0.9073 -0.5747
  169DOPC  C31220601   1.335   0.979  15.475 -0.1058 -0.3745 -0.6352
  169DOPC  H12X20602   1.309   0.969  15.367 -0.2175  4.5519 -1.2850
  169DOPC  H12Y20603   1.419   0.907  15.489  0.9965  0.7395 -1.3640
  169DOPC  C31320604   1.398   1.111  15.516  0.0751  0.8186 -0.5677
  169DOPC  H13X20605   1.405   1.112  15.626 -1.8042 -0.7735 -0.3755
  169DOPC  H13Y20606   1.495   1.129  15.464 -0.1720  1.4343 -0.8278
  169DOPC  C31420607   1.306   1.233  15.479 -0.8184  0.1039  0.1197
  169DOPC  H14X20608   1.207   1.207  15.522 -0.2765 -4.5680 -0.8333
  169DOPC  H14Y20609   1.350   1.319  15.534 -0.2756 -0.6173  0.8419
  169DOPC  C31520610   1.302   1.259  15.333  0.5208  0.1189  1.2536
  169DOPC  H15X20611   1.211   1.322  15.327  0.6556  0.2895  0.9637
  169DOPC  H15Y20612   1.296   1.163  15.278  0.9847 -0.7203  2.6112
  169DOPC  C31620613   1.415   1.351  15.281  0.2479 -0.3540  0.0071
  169DOPC  H16X20614   1.397   1.456  15.313  0.6450 -0.6281  1.2027
  169DOPC  H16Y20615   1.510   1.300  15.309 -0.7738 -2.5621 -0.3136
  169DOPC  C31720616   1.429   1.357  15.130  0.0518  0.2344  0.5927
  169DOPC  H17X20617   1.512   1.429  15.111 -0.8981  1.1263 -0.3131
  169DOPC  H17Y20618   1.463   1.259  15.091  0.0978  1.3741 -2.5114
  169DOPC  C31820619   1.301   1.407  15.057 -0.8331  0.0646 -0.3695
  169DOPC  H18X20620   1.335   1.419  14.952  1.2317 -0.1536  0.2281
  169DOPC  H18Y20621   1.218   1.334  15.046  0.0725 -0.9023 -0.9313
  169DOPC  H18Z20622   1.275   1.503  15.107 -2.0667 -0.4593  0.0274
  170DOPC     N20623   7.128   7.331  17.167  0.2474  0.6182 -0.0970
  170DOPC   C1220624   7.136   7.356  17.022  0.4684 -0.2557  0.4851
  170DOPC  H12A20625   7.191   7.277  16.973 -0.5807 -0.8682  0.2680
  170DOPC  H12B20626   7.201   7.443  17.016 -0.0784  0.1535  0.4294
  170DOPC   C1320627   7.066   7.450  17.235  0.5232 -0.9054  0.1889
  170DOPC  H13A20628   7.046   7.430  17.340  0.1228 -0.1645  0.2597
  170DOPC  H13B20629   7.112   7.548  17.243  1.5056 -1.2648 -0.9359
  170DOPC  H13C20630   6.968   7.470  17.195  0.5215 -0.9658  0.1632
  170DOPC   C1420631   7.257   7.297  17.228  0.6253 -0.4386  0.1362
  170DOPC  H14A20632   7.304   7.206  17.196 -0.1443 -0.6439 -0.4284
  170DOPC  H14B20633   7.325   7.382  17.231 -0.6099  0.6294 -1.0370
  170DOPC  H14C20634   7.247   7.276  17.334  1.9719 -1.8332  0.0217
  170DOPC   C1520635   7.033   7.207  17.184 -0.3582  0.6868  0.0505
  170DOPC  H15A20636   7.011   7.175  17.284 -4.0408 -0.6454 -1.0184
  170DOPC  H15B20637   7.072   7.125  17.125  1.7420  1.4180  0.3245
  170DOPC  H15C20638   6.933   7.228  17.151  0.7374  1.2742 -3.3099
  170DOPC   C1120639   7.005   7.394  16.948  0.2573 -0.2026 -0.7895
  170DOPC  H11A20640   6.936   7.469  16.993 -0.2075 -1.5185  0.7530
  170DOPC  H11B20641   7.034   7.434  16.848  0.2010  0.8737 -0.3925
  170DOPC     P20642   6.780   7.262  16.912 -0.0263  0.1166  0.0208
  170DOPC   O1320643   6.732   7.392  16.873 -0.1491 -0.2046  0.6922
  170DOPC   O1420644   6.724   7.205  17.040 -0.5620  0.2569  0.8595
  170DOPC   O1220645   6.935   7.269  16.925  0.1113 -0.5753 -0.7405
  170DOPC   O1120646   6.743   7.157  16.800 -0.2486  0.1348 -0.3307
  170DOPC    C120647   6.827   7.108  16.701 -0.3473 -0.4684 -0.3289
  170DOPC    HA20648   6.768   7.052  16.626 -0.3013 -0.0103 -0.7167
  170DOPC    HB20649   6.897   7.032  16.741  1.1728  0.7878 -0.5121
  170DOPC    C220650   6.909   7.218  16.620  0.1465 -0.0961 -0.5059
  170DOPC    HS20651   6.978   7.273  16.688 -0.4701 -1.4157  1.2672
  170DOPC   O2120652   6.811   7.313  16.566  0.0825 -0.0380 -0.5295
  170DOPC   C2120653   6.860   7.419  16.520 -0.5914  0.4594 -0.6126
  170DOPC   O2220654   6.977   7.456  16.518  0.2579 -0.2016 -0.2906
  170DOPC   C2220655   6.745   7.497  16.455 -0.1037  0.3139  0.5245
  170DOPC   H2R20656   6.774   7.603  16.475  0.2667 -0.3701  4.4101
  170DOPC   H2S20657   6.652   7.478  16.512 -1.8562  1.9073 -1.6528
  170DOPC    C320658   6.995   7.151  16.507  0.0294 -0.3907  0.1764
  170DOPC    HX20659   6.929   7.093  16.439  1.5668 -1.4115 -0.5167
  170DOPC    HY20660   7.057   7.073  16.556  1.3841 -0.9418 -2.2303
  170DOPC   O3120661   7.079   7.240  16.427  0.3273  0.2977  0.2011
  170DOPC   C3120662   7.201   7.255  16.477 -0.1466  0.2064 -1.1452
  170DOPC   O3220663   7.250   7.186  16.567 -0.1240 -0.0131  0.0203
  170DOPC   C3220664   7.270   7.370  16.403  0.9055  0.8770  0.0196
  170DOPC   H2X20665   7.220   7.377  16.305  1.5259 -2.6299 -0.6772
  170DOPC   H2Y20666   7.247   7.464  16.459 -0.4638 -0.8016  2.4335
  170DOPC   C2320667   6.730   7.465  16.307  0.4758  0.3958 -0.2962
  170DOPC   H3R20668   6.826   7.462  16.252  1.0988 -2.4345  0.7822
  170DOPC   H3S20669   6.666   7.541  16.257 -0.7431 -1.5345 -1.8117
  170DOPC   C2420670   6.650   7.335  16.280 -0.3358 -0.3430 -0.0514
  170DOPC   H4R20671   6.720   7.254  16.311 -0.4418  0.1138  1.4785
  170DOPC   H4S20672   6.627   7.320  16.173 -0.9760 -1.6853  0.2488
  170DOPC   C2520673   6.510   7.330  16.345  0.3232  0.6263 -0.3141
  170DOPC   H5R20674   6.454   7.424  16.327 -0.2576  0.5076  0.8538
  170DOPC   H5S20675   6.523   7.325  16.455 -1.8948 -2.3212 -0.0776
  170DOPC   C2620676   6.418   7.225  16.281 -0.5145  0.3598 -0.3537
  170DOPC   H6R20677   6.469   7.128  16.298 -1.0893  0.4804  2.6340
  170DOPC   H6S20678   6.416   7.245  16.172 -0.7775  2.5778 -0.0069
  170DOPC   C2720679   6.277   7.225  16.349  0.3893  0.2477 -0.2626
  170DOPC   H7R20680   6.251   7.332  16.365  0.0308  0.4160 -1.8448
  170DOPC   H7S20681   6.279   7.183  16.452  1.0669 -1.6851 -1.0127
  170DOPC   C2820682   6.166   7.157  16.267  0.2497  0.4805 -0.3538
  170DOPC   H8R20683   6.154   7.205  16.167 -3.5377 -1.5124 -1.0401
  170DOPC   H8S20684   6.073   7.179  16.323  0.6825 -1.6960  1.3110
  170DOPC   C2920685   6.190   7.011  16.259  1.1890  0.5601 -1.1057
  170DOPC   H9R20686   6.212   6.960  16.354 -0.8261  1.0343 -0.3293
  170DOPC  C21020687   6.191   6.935  16.150 -0.4709  0.2999 -0.2203
  170DOPC  H10R20688   6.217   6.828  16.160  3.0536  1.0950  0.8239
  170DOPC  C21120689   6.165   6.975  16.007  0.0318 -0.3981 -0.3323
  170DOPC  H11R20690   6.253   6.924  15.961 -0.8612 -5.6086  2.8716
  170DOPC  H11S20691   6.189   7.083  16.002  2.1627 -0.7262  1.2641
  170DOPC  C21220692   6.031   6.938  15.945 -0.1757 -0.1574 -0.9148
  170DOPC  H12R20693   6.024   6.828  15.932  0.0283 -0.3741  0.6669
  170DOPC  H12S20694   6.047   6.978  15.843  3.1375  2.3359  0.4190
  170DOPC  C21320695   5.913   6.984  16.028 -0.3668 -0.2290 -0.1451
  170DOPC  H13R20696   5.932   7.090  16.055 -1.1900 -0.2998  0.7618
  170DOPC  H13S20697   5.902   6.922  16.120 -1.6551 -1.3026 -0.9909
  170DOPC  C21420698   5.782   6.985  15.940  0.3265 -0.0874  0.0138
  170DOPC  H14R20699   5.806   7.029  15.841  1.2807 -0.0823  0.2305
  170DOPC  H14S20700   5.710   7.053  15.990 -0.6752 -0.3787 -1.0032
  170DOPC  C21520701   5.716   6.847  15.918  0.3169 -0.4296 -0.2195
  170DOPC  H15R20702   5.702   6.805  16.019 -2.5805 -1.6828 -1.0414
  170DOPC  H15S20703   5.785   6.785  15.856  1.5003  2.6123 -2.2132
  170DOPC  C21620704   5.583   6.865  15.856  0.4055 -0.1001 -0.2271
  170DOPC  H16R20705   5.517   6.928  15.920  0.1470 -1.2080  0.6266
  170DOPC  H16S20706   5.547   6.760  15.853  0.3040 -0.0453 -1.1255
  170DOPC  C21720707   5.582   6.920  15.716  0.0685 -0.2574  0.0475
  170DOPC  H17R20708   5.682   6.916  15.668 -0.4304 -1.4054 -0.9584
  170DOPC  H17S20709   5.576   7.028  15.741  0.5884 -0.7075  2.3214
  170DOPC  C21820710   5.470   6.875  15.629 -0.5332  0.0159 -0.5247
  170DOPC  H18R20711   5.375   6.872  15.687  0.7923  1.1006  1.8487
  170DOPC  H18S20712   5.489   6.768  15.605  1.4278  0.1828  0.1139
  170DOPC  H18T20713   5.461   6.935  15.536 -0.5603 -1.0964 -1.2579
  170DOPC   C3320714   7.425   7.356  16.417  1.1200  0.1994 -0.1335
  170DOPC   H3X20715   7.456   7.332  16.521  2.7207 -1.2286 -0.8902
  170DOPC   H3Y20716   7.468   7.457  16.404 -1.0550  1.4037  1.2591
  170DOPC   C3420717   7.492   7.259  16.321 -0.9581 -0.3245  0.3173
  170DOPC   H4X20718   7.482   7.151  16.345 -0.8467 -0.6156 -0.8802
  170DOPC   H4Y20719   7.600   7.282  16.314 -0.8713 -0.8586 -0.2032
  170DOPC   C3520720   7.432   7.268  16.177 -0.2173 -0.0173  0.4176
  170DOPC   H5X20721   7.407   7.376  16.172 -0.6237 -0.1227  0.1625
  170DOPC   H5Y20722   7.336   7.211  16.177 -0.6612  0.7201  0.0819
  170DOPC   C3620723   7.539   7.242  16.059  0.5431  0.1661 -0.1151
  170DOPC   H6X20724   7.640   7.282  16.079  1.0352 -0.2196 -1.7066
  170DOPC   H6Y20725   7.549   7.131  16.054  0.8953 -0.0226  2.7905
  170DOPC   C3720726   7.492   7.303  15.922 -0.0239 -0.2659 -0.1218
  170DOPC   H7X20727   7.492   7.413  15.933  1.3683 -0.2987  0.5239
  170DOPC   H7Y20728   7.568   7.274  15.846  1.2277 -2.2769  1.7767
  170DOPC   C3820729   7.358   7.238  15.879  0.2386 -0.2604  0.1009
  170DOPC   H8X20730   7.332   7.297  15.789  2.0430 -1.0296 -0.9712
  170DOPC   H8Y20731   7.285   7.254  15.962  1.0407 -0.2682  0.8251
  170DOPC   C3920732   7.362   7.091  15.835 -0.6720  0.7694 -0.1953
  170DOPC   H9X20733   7.373   7.015  15.914 -1.6577 -0.6097 -1.3212
  170DOPC  C31020734   7.354   7.038  15.713  0.3525 -0.0885  0.1475
  170DOPC  H10X20735   7.341   6.929  15.701 -0.9621 -0.1337  1.6442
  170DOPC  C31120736   7.344   7.119  15.585  0.0286  0.0649 -0.5505
  170DOPC  H11X20737   7.402   7.070  15.504  0.2740 -1.9244  0.7467
  170DOPC  H11Y20738   7.393   7.218  15.594  1.3656 -0.5511 -0.7418
  170DOPC  C31220739   7.198   7.141  15.538 -0.1664 -0.2459  0.2163
  170DOPC  H12X20740   7.146   7.208  15.609 -1.1302  2.5353 -2.8354
  170DOPC  H12Y20741   7.139   7.048  15.553 -1.1622  0.3332 -0.0479
  170DOPC  C31320742   7.214   7.197  15.395 -0.3262  0.1179  0.0206
  170DOPC  H13X20743   7.301   7.266  15.392  0.7327 -1.1255  0.7570
  170DOPC  H13Y20744   7.240   7.108  15.334 -2.0877 -0.2793 -0.2024
  170DOPC  C31420745   7.082   7.259  15.343  0.1118  0.3663  0.1694
  170DOPC  H14X20746   6.994   7.208  15.388 -0.8046  1.9308  0.2351
  170DOPC  H14Y20747   7.074   7.365  15.374  1.3365  0.5517 -0.1044
  170DOPC  C31520748   7.061   7.242  15.198  0.9620 -0.0812  0.5789
  170DOPC  H15X20749   6.981   7.309  15.161 -0.1562 -1.8988 -0.4818
  170DOPC  H15Y20750   7.028   7.137  15.180  1.0533  0.0285 -0.2780
  170DOPC  C31620751   7.183   7.295  15.119 -0.0116  0.4113 -0.4200
  170DOPC  H16X20752   7.240   7.371  15.177 -0.2076  0.6983 -0.6021
  170DOPC  H16Y20753   7.253   7.209  15.110 -1.8376 -1.4580  1.7668
  170DOPC  C31720754   7.159   7.356  14.983  1.0354 -0.3429 -0.4737
  170DOPC  H17X20755   7.078   7.304  14.927  0.1573  1.7060 -1.2153
  170DOPC  H17Y20756   7.130   7.461  15.001 -1.2569 -1.2555  1.7447
  170DOPC  C31820757   7.282   7.354  14.887 -0.3065  0.1053  0.0047
  170DOPC  H18X20758   7.377   7.390  14.932  1.0124 -1.5922 -1.3078
  170DOPC  H18Y20759   7.306   7.252  14.852  0.1149 -0.1200  0.9318
  170DOPC  H18Z20760   7.239   7.407  14.799 -0.8106  1.9049  1.2624
  171DOPC     N20761   3.545   3.261  12.843 -0.1119 -0.1741  0.1564
  171DOPC   C1220762   3.403   3.198  12.819 -0.4900  0.3581 -0.5113
  171DOPC  H12A20763   3.412   3.091  12.829  0.8679  0.3780 -1.3173
  171DOPC  H12B20764   3.371   3.216  12.717  1.2067  0.7218 -1.0042
  171DOPC   C1320765   3.588   3.268  12.989 -0.4241  0.0138 -0.6387
  171DOPC  H13A20766   3.684   3.317  12.989 -1.0014  1.1814 -0.8419
  171DOPC  H13B20767   3.523   3.331  13.048  0.0943  0.8287 -0.9182
  171DOPC  H13C20768   3.583   3.167  13.029  1.3434  0.3797  0.6260
  171DOPC   C1420769   3.551   3.402  12.795  0.8473 -0.1694 -0.8616
  171DOPC  H14A20770   3.536   3.414  12.689 -0.0121 -0.9071 -0.8320
  171DOPC  H14B20771   3.479   3.462  12.848 -0.6189 -1.1433 -1.6982
  171DOPC  H14C20772   3.645   3.448  12.822  0.4043  0.8336 -0.9826
  171DOPC   C1520773   3.640   3.181  12.767 -0.5876  0.4771 -0.1546
  171DOPC  H15A20774   3.651   3.080  12.805  2.7530  0.5322 -0.7037
  171DOPC  H15B20775   3.736   3.231  12.768 -0.4607  0.2326  0.0801
  171DOPC  H15C20776   3.632   3.173  12.660 -0.7717  1.4809 -0.2220
  171DOPC   C1120777   3.294   3.253  12.920 -0.3234 -0.0324  0.1345
  171DOPC  H11A20778   3.199   3.198  12.906  0.9555 -2.4374  0.2008
  171DOPC  H11B20779   3.326   3.223  13.022 -1.4449  1.5426  0.9656
  171DOPC     P20780   3.266   3.491  13.019  0.1403  0.2219  0.1913
  171DOPC   O1320781   3.160   3.457  13.113  0.3095 -0.2244 -0.0896
  171DOPC   O1420782   3.253   3.624  12.954  0.2045  0.0995  0.2287
  171DOPC   O1220783   3.278   3.388  12.897 -0.0913  0.2348  0.1835
  171DOPC   O1120784   3.407   3.486  13.098  0.4382 -0.2726  0.6198
  171DOPC    C120785   3.469   3.618  13.113 -0.0149  0.4880 -0.5440
  171DOPC    HA20786   3.401   3.704  13.133  0.7510  0.9422  0.1537
  171DOPC    HB20787   3.513   3.642  13.014 -0.2215 -1.5329 -1.1690
  171DOPC    C220788   3.578   3.611  13.212  0.7661  0.8446 -0.6401
  171DOPC    HS20789   3.637   3.518  13.200  0.2682  0.0437  2.2276
  171DOPC   O2120790   3.526   3.618  13.343 -0.1531 -0.6415 -0.3890
  171DOPC   C2120791   3.492   3.504  13.398 -0.2651  0.2898 -0.4969
  171DOPC   O2220792   3.510   3.389  13.357 -0.6653  0.1722 -0.6041
  171DOPC   C2220793   3.414   3.525  13.523 -0.1555 -0.4533 -0.1174
  171DOPC   H2R20794   3.333   3.450  13.532 -1.1541  0.4424 -1.4122
  171DOPC   H2S20795   3.364   3.622  13.538 -0.1974 -0.1353 -2.0922
  171DOPC    C320796   3.684   3.730  13.201 -0.3809  1.2293  0.2938
  171DOPC    HX20797   3.638   3.831  13.193  0.9404  1.7669 -1.0650
  171DOPC    HY20798   3.745   3.712  13.110 -0.7623  2.9270 -0.3237
  171DOPC   O3120799   3.771   3.732  13.321  0.1960 -0.7798  0.0893
  171DOPC   C3120800   3.862   3.634  13.331 -0.0855  0.5416 -0.8475
  171DOPC   O3220801   3.881   3.548  13.250  0.1257  0.7193  0.4159
  171DOPC   C3220802   3.961   3.677  13.443  0.1894  0.0210  0.3296
  171DOPC   H2X20803   3.952   3.784  13.472 -0.3802  0.3530 -1.0028
  171DOPC   H2Y20804   3.937   3.606  13.525 -0.4922 -0.2009 -0.0487
  171DOPC   C2320805   3.503   3.502  13.651 -0.3639 -0.5153  0.0587
  171DOPC   H3R20806   3.580   3.582  13.659 -0.9884  0.0665  0.3717
  171DOPC   H3S20807   3.549   3.402  13.635 -2.6462 -1.2629 -2.7071
  171DOPC   C2420808   3.414   3.498  13.782 -0.1023 -0.1016  0.1803
  171DOPC   H4R20809   3.352   3.406  13.775  0.0800 -0.1248 -1.5649
  171DOPC   H4S20810   3.351   3.590  13.782  0.6240  0.4719  2.4087
  171DOPC   C2520811   3.491   3.497  13.914 -0.1250 -0.1229 -0.5637
  171DOPC   H5R20812   3.558   3.583  13.895  0.1660 -0.0259  0.8288
  171DOPC   H5S20813   3.552   3.404  13.919  0.4048  0.2108 -0.7235
  171DOPC   C2620814   3.408   3.522  14.041  0.2942  0.3850 -0.0138
  171DOPC   H6R20815   3.455   3.494  14.138  0.2641  0.4610  0.0240
  171DOPC   H6S20816   3.312   3.467  14.033  1.4558 -1.4966 -1.6291
  171DOPC   C2720817   3.380   3.668  14.062  0.3390 -0.6984  0.2071
  171DOPC   H7R20818   3.310   3.706  13.985  2.4481  0.8579 -1.0485
  171DOPC   H7S20819   3.471   3.731  14.053 -0.7806  1.1043  1.0607
  171DOPC   C2820820   3.311   3.698  14.192  0.1251 -0.6005  0.3195
  171DOPC   H8R20821   3.294   3.808  14.196  1.1364 -0.4157 -0.1006
  171DOPC   H8S20822   3.384   3.683  14.275 -1.1829 -0.1449  1.6018
  171DOPC   C2920823   3.180   3.633  14.218  0.0793 -0.1725  0.0098
  171DOPC   H9R20824   3.095   3.672  14.161 -0.5071 -0.2457  0.8243
  171DOPC  C21020825   3.168   3.513  14.282 -0.4169  0.2465 -0.2560
  171DOPC  H10R20826   3.074   3.459  14.301  1.0339 -1.2135  3.5487
  171DOPC  C21120827   3.280   3.431  14.344  0.0138 -0.5874  0.0003
  171DOPC  H11R20828   3.360   3.503  14.369  0.1583 -1.1763  1.3288
  171DOPC  H11S20829   3.321   3.361  14.267 -0.4765 -0.2698 -0.5582
  171DOPC  C21220830   3.254   3.353  14.474  0.1662  0.6048  0.4765
  171DOPC  H12R20831   3.246   3.417  14.564  0.0317 -1.9680  2.3934
  171DOPC  H12S20832   3.350   3.302  14.497 -0.2676  0.4282  1.9927
  171DOPC  C21320833   3.132   3.267  14.471 -0.0055 -0.4928 -0.2015
  171DOPC  H13R20834   3.118   3.221  14.371  1.2586 -1.4549  0.0408
  171DOPC  H13S20835   3.044   3.333  14.489  0.0446 -0.5939  0.4467
  171DOPC  C21420836   3.129   3.148  14.574 -0.7081  0.4910  0.3558
  171DOPC  H14R20837   3.135   3.192  14.676 -0.6870  0.3016  0.4362
  171DOPC  H14S20838   3.212   3.077  14.559 -0.6113  1.0765 -2.3560
  171DOPC  C21520839   2.993   3.064  14.575  0.2249  0.9133  0.4348
  171DOPC  H15R20840   3.012   2.977  14.642 -1.4573  1.1835  1.3097
  171DOPC  H15S20841   2.968   3.031  14.472  1.0611  0.3800  0.3940
  171DOPC  C21620842   2.872   3.150  14.630 -0.4627  0.4458  0.0508
  171DOPC  H16R20843   2.859   3.226  14.550  1.7388 -0.0233 -0.8158
  171DOPC  H16S20844   2.906   3.216  14.714 -0.6305  1.7147 -0.8467
  171DOPC  C21720845   2.742   3.069  14.658  0.2479 -0.4203 -0.8278
  171DOPC  H17R20846   2.721   3.004  14.570 -2.3786 -0.9408  0.0629
  171DOPC  H17S20847   2.653   3.136  14.658  0.5806  0.0183 -0.8758
  171DOPC  C21820848   2.734   2.990  14.793  0.2630  0.1299  0.5121
  171DOPC  H18R20849   2.644   2.929  14.813 -0.8740  2.4876  3.2321
  171DOPC  H18S20850   2.753   3.071  14.867 -0.6483  0.3536  0.5044
  171DOPC  H18T20851   2.824   2.925  14.807  0.5559 -0.0357 -1.7145
  171DOPC   C3320852   4.108   3.651  13.407 -0.3772  0.8211  0.5221
  171DOPC   H3X20853   4.146   3.726  13.335 -1.8667  1.1544  0.0529
  171DOPC   H3Y20854   4.111   3.549  13.365 -2.6023  0.7885  0.3400
  171DOPC   C3420855   4.204   3.664  13.527  0.2155  0.0988 -0.4185
  171DOPC   H4X20856   4.180   3.598  13.613 -3.4938  0.2507 -1.1943
  171DOPC   H4Y20857   4.194   3.761  13.580  1.3479 -0.5024  0.9650
  171DOPC   C3520858   4.353   3.644  13.485  0.1989  0.2967  0.2434
  171DOPC   H5X20859   4.374   3.731  13.418  0.6938  0.6239  0.8156
  171DOPC   H5Y20860   4.356   3.551  13.424 -0.8511  0.2658  0.2165
  171DOPC   C3620861   4.446   3.634  13.613  0.0371 -0.3291  0.3519
  171DOPC   H6X20862   4.457   3.728  13.671  3.0276  0.3340 -1.0529
  171DOPC   H6Y20863   4.402   3.556  13.679  1.2432 -1.9276 -0.6410
  171DOPC   C3720864   4.582   3.582  13.559 -0.0699 -0.8480 -0.9220
  171DOPC   H7X20865   4.571   3.491  13.497  1.7033 -2.0230  0.3963
  171DOPC   H7Y20866   4.625   3.667  13.502 -0.1568  0.4518  0.8722
  171DOPC   C3820867   4.681   3.552  13.675 -0.6060  0.6769 -0.3104
  171DOPC   H8X20868   4.693   3.639  13.743  0.5521 -1.2532  2.1245
  171DOPC   H8Y20869   4.781   3.532  13.632  0.3983 -0.4519  2.3154
  171DOPC   C3920870   4.644   3.437  13.760  0.6152  0.7735 -0.1844
  171DOPC   H9X20871   4.678   3.341  13.719  1.8003  0.8376  0.6009
  171DOPC  C31020872   4.580   3.441  13.879 -0.0022 -0.2206  0.1957
  171DOPC  H10X20873   4.557   3.351  13.938  0.7356  1.7375  3.7220
  171DOPC  C31120874   4.536   3.573  13.942 -0.2829  0.1899 -0.0546
  171DOPC  H11X20875   4.430   3.556  13.968  0.0349  1.4773  2.3202
  171DOPC  H11Y20876   4.550   3.666  13.882 -2.5054  0.7602  0.2228
  171DOPC  C31220877   4.618   3.595  14.075 -0.0973  0.6602 -0.1196
  171DOPC  H12X20878   4.719   3.630  14.045 -0.1282  0.0471 -0.9697
  171DOPC  H12Y20879   4.629   3.507  14.142 -0.4862  1.6801  1.3449
  171DOPC  C31320880   4.563   3.692  14.177  0.7382 -0.2630  0.1582
  171DOPC  H13X20881   4.623   3.682  14.270  0.8828 -1.3242 -0.0398
  171DOPC  H13Y20882   4.586   3.787  14.124  1.7137 -0.5636  0.0321
  171DOPC  C31420883   4.422   3.686  14.208 -0.4345 -0.3154 -0.3723
  171DOPC  H14X20884   4.373   3.758  14.139 -0.0331  1.0427  0.7215
  171DOPC  H14Y20885   4.384   3.585  14.180  1.3501 -0.4516 -2.5387
  171DOPC  C31520886   4.392   3.729  14.354 -0.4137  0.1138  0.6577
  171DOPC  H15X20887   4.431   3.831  14.372  1.0991  0.2334 -2.4654
  171DOPC  H15Y20888   4.450   3.670  14.428  0.6587  0.9021  0.4704
  171DOPC  C31620889   4.241   3.734  14.366  0.1107  0.1789  0.0912
  171DOPC  H16X20890   4.207   3.813  14.295 -0.2627 -1.8415 -2.1137
  171DOPC  H16Y20891   4.183   3.645  14.334 -1.3126  0.7471  0.9486
  171DOPC  C31720892   4.204   3.773  14.506  0.3746  0.6902 -0.2410
  171DOPC  H17X20893   4.280   3.843  14.547  0.1435 -0.5991  2.6470
  171DOPC  H17Y20894   4.107   3.825  14.500  0.1911  0.4505  0.5709
  171DOPC  C31820895   4.196   3.662  14.607  0.6151 -0.2859 -0.6341
  171DOPC  H18X20896   4.188   3.694  14.713  0.7914  1.7685 -1.1912
  171DOPC  H18Y20897   4.102   3.604  14.594 -0.6005  2.0459 -3.1955
  171DOPC  H18Z20898   4.285   3.596  14.603  0.4163 -0.6906  1.0549
  172DOPC     N20899   3.555   4.335  12.742  0.4137 -0.1641  0.7431
  172DOPC   C1220900   3.531   4.291  12.884  0.2854  0.0538  0.6544
  172DOPC  H12A20901   3.590   4.205  12.911  2.0833  0.6330 -1.2110
  172DOPC  H12B20902   3.430   4.253  12.886  0.4337 -0.3756  0.2107
  172DOPC   C1320903   3.441   4.402  12.679  0.1415  0.1685 -0.0902
  172DOPC  H13A20904   3.355   4.338  12.684 -0.3290  0.8793  1.8019
  172DOPC  H13B20905   3.402   4.497  12.714  0.4326 -0.1011  1.0037
  172DOPC  H13C20906   3.460   4.415  12.574  0.1263  1.4971  0.0484
  172DOPC   C1420907   3.575   4.209  12.656 -0.1686 -0.8284 -0.2003
  172DOPC  H14A20908   3.485   4.151  12.669  0.1867 -1.1933  0.7753
  172DOPC  H14B20909   3.594   4.238  12.554 -1.4340  2.1221  0.2956
  172DOPC  H14C20910   3.665   4.152  12.676 -0.4002 -1.2816 -0.4441
  172DOPC   C1520911   3.664   4.433  12.728 -0.2401 -0.2454 -0.6938
  172DOPC  H15A20912   3.669   4.472  12.627  2.1118  0.4484 -0.3626
  172DOPC  H15B20913   3.755   4.380  12.750  1.2483  2.8477  1.1580
  172DOPC  H15C20914   3.649   4.511  12.800  1.1536 -0.3004 -0.3171
  172DOPC   C1120915   3.525   4.394  12.998 -0.9458 -0.5075 -0.3909
  172DOPC  H11A20916   3.452   4.471  12.965 -0.3732 -0.3172 -1.2854
  172DOPC  H11B20917   3.484   4.345  13.088 -0.1380 -1.8281 -0.7080
  172DOPC     P20918   3.753   4.428  13.131  0.3619  0.2151  0.4681
  172DOPC   O1320919   3.856   4.531  13.140 -0.1292  0.2218  0.1309
  172DOPC   O1420920   3.807   4.292  13.092  0.4722  0.2741 -0.0634
  172DOPC   O1220921   3.654   4.470  13.017 -0.5792  0.5339 -0.9280
  172DOPC   O1120922   3.663   4.417  13.261 -0.0632  0.2883  0.1114
  172DOPC    C120923   3.576   4.519  13.298  0.3514 -0.2449 -0.5727
  172DOPC    HA20924   3.508   4.473  13.373  1.3511  0.6401  0.9552
  172DOPC    HB20925   3.519   4.567  13.216 -0.6222  0.0481  0.2485
  172DOPC    C220926   3.644   4.638  13.383 -0.0509 -0.3074 -0.3823
  172DOPC    HS20927   3.737   4.664  13.326  0.7919 -1.9136  0.2041
  172DOPC   O2120928   3.677   4.589  13.514  0.3801  1.0136 -0.4977
  172DOPC   C2120929   3.796   4.621  13.559 -0.6185 -0.4239  0.2106
  172DOPC   O2220930   3.878   4.692  13.503 -0.0460 -0.7104  0.4279
  172DOPC   C2220931   3.814   4.576  13.701  0.2173 -0.1393 -0.1343
  172DOPC   H2R20932   3.920   4.592  13.731  0.5748 -1.0095 -0.8933
  172DOPC   H2S20933   3.789   4.470  13.719 -0.1924  0.2795  2.0539
  172DOPC    C320934   3.551   4.764  13.388 -0.3034  0.3505 -0.0536
  172DOPC    HX20935   3.462   4.732  13.447 -0.4282 -2.4076 -1.5675
  172DOPC    HY20936   3.522   4.776  13.281  1.5198 -0.9702 -0.7506
  172DOPC   O3120937   3.627   4.871  13.436 -0.1387  0.0583  1.0881
  172DOPC   C3120938   3.588   4.936  13.546  0.4917 -0.6003  0.1495
  172DOPC   O3220939   3.478   4.925  13.597  0.2824 -0.6382 -0.0338
  172DOPC   C3220940   3.700   5.008  13.606 -0.0430 -0.3401 -0.6266
  172DOPC   H2X20941   3.781   4.940  13.639  0.4088  0.0153 -0.9759
  172DOPC   H2Y20942   3.756   5.063  13.527 -0.1682  2.6010  1.1672
  172DOPC   C2320943   3.730   4.662  13.797  0.4474  0.2919 -0.8600
  172DOPC   H3R20944   3.642   4.698  13.741  1.1201  3.5008 -0.0479
  172DOPC   H3S20945   3.787   4.750  13.834  0.0149  1.0925 -2.0235
  172DOPC   C2420946   3.700   4.591  13.931  0.2877  0.3437  0.1012
  172DOPC   H4R20947   3.792   4.550  13.978 -0.4675 -0.1698  1.1857
  172DOPC   H4S20948   3.635   4.504  13.907  0.4603 -0.1152  1.2515
  172DOPC   C2520949   3.632   4.675  14.035  0.3230  0.4993  0.6498
  172DOPC   H5R20950   3.537   4.726  14.010  1.7055  2.4884 -0.9176
  172DOPC   H5S20951   3.697   4.761  14.062 -0.0432  0.4654  1.6718
  172DOPC   C2620952   3.634   4.600  14.170  0.4933  0.5628 -0.5593
  172DOPC   H6R20953   3.736   4.580  14.209  0.5413 -1.4181 -1.5410
  172DOPC   H6S20954   3.587   4.501  14.150  1.9456 -0.1726 -0.4636
  172DOPC   C2720955   3.558   4.667  14.287 -0.1323  0.6782  0.0818
  172DOPC   H7R20956   3.453   4.692  14.261  0.1448 -1.1524 -3.3973
  172DOPC   H7S20957   3.612   4.762  14.305  0.8150  0.6625 -2.3627
  172DOPC   C2820958   3.572   4.583  14.414  0.2135  0.7345 -0.2519
  172DOPC   H8R20959   3.513   4.631  14.495  0.8129 -0.4024  0.8858
  172DOPC   H8S20960   3.680   4.578  14.437  1.2593  1.8434 -4.1928
  172DOPC   C2920961   3.521   4.437  14.404 -0.0483  0.0007 -1.1894
  172DOPC   H9R20962   3.432   4.428  14.340  1.1046  0.4760 -2.9127
  172DOPC  C21020963   3.564   4.330  14.471  0.4540  0.5673 -0.1588
  172DOPC  H10R20964   3.514   4.235  14.447 -1.1862  1.3757 -0.1596
  172DOPC  C21120965   3.671   4.331  14.576  0.1875 -0.7194  0.8342
  172DOPC  H11R20966   3.638   4.402  14.655  1.0236 -1.8966  2.3050
  172DOPC  H11S20967   3.760   4.367  14.521 -1.9715  0.0944 -2.4272
  172DOPC  C21220968   3.696   4.191  14.636 -0.0240  0.8182 -0.0114
  172DOPC  H12R20969   3.691   4.110  14.561  0.4298 -0.4338  1.2751
  172DOPC  H12S20970   3.616   4.168  14.710  0.1056 -0.1259 -0.1490
  172DOPC  C21320971   3.822   4.171  14.706 -0.2001  0.0735 -0.6348
  172DOPC  H13R20972   3.850   4.261  14.765 -0.2417  1.5602 -2.7502
  172DOPC  H13S20973   3.904   4.172  14.632 -0.3719  0.6518 -0.8206
  172DOPC  C21420974   3.842   4.035  14.787 -0.2361  0.2837  0.0383
  172DOPC  H14R20975   3.746   4.007  14.834  1.0449 -1.1208  1.9633
  172DOPC  H14S20976   3.925   4.052  14.859 -0.2283 -1.2159  0.4049
  172DOPC  C21520977   3.871   3.911  14.699 -0.1384 -0.5865 -0.2284
  172DOPC  H15R20978   3.964   3.938  14.644 -1.3321 -0.2478 -2.1972
  172DOPC  H15S20979   3.797   3.901  14.617 -1.5185 -1.8570  1.1030
  172DOPC  C21620980   3.876   3.783  14.780 -0.2400 -0.3071  0.2921
  172DOPC  H16R20981   3.920   3.804  14.880 -0.3366  0.7092  0.1327
  172DOPC  H16S20982   3.943   3.708  14.734  0.1465 -0.1947  0.6630
  172DOPC  C21720983   3.734   3.724  14.800  0.2392 -0.3921 -0.4162
  172DOPC  H17R20984   3.686   3.694  14.705  0.7430 -1.8738 -0.2222
  172DOPC  H17S20985   3.672   3.806  14.844  3.1315  1.3673  0.6315
  172DOPC  C21820986   3.738   3.607  14.900 -0.1080  0.4443 -0.0793
  172DOPC  H18R20987   3.810   3.531  14.863  0.6399  0.2964  1.5868
  172DOPC  H18S20988   3.639   3.561  14.920  0.3497  0.3032  2.0914
  172DOPC  H18T20989   3.780   3.650  14.994 -0.9858 -0.4220  0.7364
  172DOPC   C3320990   3.659   5.095  13.718 -0.1838  0.7899  0.0216
  172DOPC   H3X20991   3.567   5.145  13.681 -1.0484 -1.2985 -0.7902
  172DOPC   H3Y20992   3.747   5.158  13.742  0.3606  0.2274 -0.4867
  172DOPC   C3420993   3.627   5.019  13.849 -0.2627 -0.5720  0.4185
  172DOPC   H4X20994   3.722   4.968  13.879 -0.5676 -0.2989  1.9363
  172DOPC   H4Y20995   3.543   4.947  13.841 -0.5002 -0.1200 -1.5608
  172DOPC   C3520996   3.595   5.120  13.957 -0.0872  0.4262  0.2107
  172DOPC   H5X20997   3.503   5.179  13.933 -0.8235 -1.3925 -1.8734
  172DOPC   H5Y20998   3.678   5.193  13.965  1.3903 -1.0478 -0.8936
  172DOPC   C3620999   3.563   5.058  14.096 -0.6527  0.1204 -0.3147
  172DOPC   H6X21000   3.508   4.963  14.079 -0.1769 -0.9017  3.0786
  172DOPC   H6Y21001   3.650   5.024  14.156 -0.2738 -2.1192 -2.0287
  172DOPC   C3721002   3.475   5.142  14.190 -0.0536  0.4829  0.4580
  172DOPC   H7X21003   3.379   5.178  14.148 -0.2204  0.8940  1.1785
  172DOPC   H7Y21004   3.449   5.082  14.279  1.9424 -0.6428  0.3411
  172DOPC   C3821005   3.549   5.263  14.244 -0.4528  0.0748  0.8232
  172DOPC   H8X21006   3.474   5.337  14.278  1.0300  1.3200  1.4928
  172DOPC   H8Y21007   3.599   5.321  14.163 -0.8449  2.6312  2.3141
  172DOPC   C3921008   3.647   5.239  14.354  0.1668 -0.2372  0.5116
  172DOPC   H9X21009   3.740   5.182  14.338 -0.4538 -1.7937  2.1100
  172DOPC  C31021010   3.628   5.271  14.486 -0.0269  0.2271 -0.0101
  172DOPC  H10X21011   3.710   5.235  14.549 -0.8285 -0.0271  0.9172
  172DOPC  C31121012   3.509   5.336  14.544  0.6314 -0.5938 -0.0132
  172DOPC  H11X21013   3.464   5.253  14.601  0.0889 -0.5769 -0.4137
  172DOPC  H11Y21014   3.435   5.365  14.466 -0.9428 -0.7559  1.3658
  172DOPC  C31221015   3.534   5.458  14.634  0.2081 -0.3884 -0.2724
  172DOPC  H12X21016   3.589   5.426  14.726 -1.7490 -1.1482  0.6780
  172DOPC  H12Y21017   3.436   5.490  14.675  0.6124  0.9494 -0.2935
  172DOPC  C31321018   3.590   5.587  14.571  0.2596 -0.5077  0.7400
  172DOPC  H13X21019   3.674   5.552  14.508 -1.3999 -1.3652 -1.1222
  172DOPC  H13Y21020   3.514   5.631  14.502  0.5631 -2.0607 -0.6366
  172DOPC  C31421021   3.630   5.696  14.675  0.1874 -0.0041 -0.3985
  172DOPC  H14X21022   3.669   5.781  14.616 -1.1494  0.7369 -0.2533
  172DOPC  H14Y21023   3.536   5.728  14.724 -0.7873 -0.6627 -1.7840
  172DOPC  C31521024   3.746   5.649  14.774 -0.3362 -0.2468 -0.3336
  172DOPC  H15X21025   3.828   5.590  14.728  1.5109  0.8534  1.3758
  172DOPC  H15Y21026   3.691   5.593  14.853  0.9225 -1.0338  0.0148
  172DOPC  C31621027   3.805   5.770  14.852 -0.4620 -0.7736  0.6558
  172DOPC  H16X21028   3.853   5.851  14.792 -1.1624  0.6824  1.9681
  172DOPC  H16Y21029   3.722   5.818  14.909 -0.1771  1.5721 -0.7573
  172DOPC  C31721030   3.909   5.718  14.954  0.1517 -0.5785  0.2055
  172DOPC  H17X21031   3.846   5.647  15.012  1.1042 -0.5692  1.2900
  172DOPC  H17Y21032   3.994   5.668  14.903  1.5886  2.3638 -0.4636
  172DOPC  C31821033   3.965   5.825  15.045  0.6785  0.5372  0.3925
  172DOPC  H18X21034   4.024   5.898  14.985 -2.9276  5.1148  1.8453
  172DOPC  H18Y21035   3.890   5.888  15.097 -0.9875 -1.0013 -0.0453
  172DOPC  H18Z21036   4.020   5.776  15.129 -1.1671 -1.3460  0.5914
  173DOPC     N21037   2.426   3.083  13.127  0.1143 -0.0389  0.2588
  173DOPC   C1221038   2.531   3.182  13.186  0.4170 -0.6821  0.2583
  173DOPC  H12A21039   2.627   3.136  13.165  0.3392 -0.7614  0.0707
  173DOPC  H12B21040   2.521   3.180  13.294  0.1523 -1.2106  0.2290
  173DOPC   C1321041   2.432   3.088  12.973 -0.9203  0.0594 -0.6912
  173DOPC  H13A21042   2.361   3.017  12.933 -1.9595  0.3968  0.5013
  173DOPC  H13B21043   2.412   3.184  12.927 -1.9534 -1.0309 -2.6504
  173DOPC  H13C21044   2.535   3.056  12.964 -1.1009 -0.0892 -2.4150
  173DOPC   C1421045   2.289   3.106  13.173 -0.0705  0.5100  0.0342
  173DOPC  H14A21046   2.280   3.090  13.279  1.0971  1.1871  0.2530
  173DOPC  H14B21047   2.260   3.207  13.146 -0.6078 -0.1632 -2.0877
  173DOPC  H14C21048   2.224   3.034  13.126 -2.5470  2.5198  0.1405
  173DOPC   C1521049   2.457   2.944  13.172  0.3025 -0.0512 -0.3949
  173DOPC  H15A21050   2.468   2.935  13.279  1.5688 -1.2251 -0.5896
  173DOPC  H15B21051   2.548   2.909  13.125 -0.1535  1.7594 -2.8189
  173DOPC  H15C21052   2.381   2.871  13.146  1.3751 -1.8318  1.1805
  173DOPC   C1121053   2.533   3.330  13.145  0.6362 -0.1232 -0.3802
  173DOPC  H11A21054   2.606   3.384  13.209 -0.6031  1.5889 -0.3310
  173DOPC  H11B21055   2.569   3.334  13.041 -0.2822 -0.5197 -0.7285
  173DOPC     P21056   2.377   3.535  13.147 -0.1312 -0.5353  0.3853
  173DOPC   O1321057   2.228   3.556  13.118 -0.6541 -0.3898 -0.5415
  173DOPC   O1421058   2.473   3.580  13.042  0.2347 -0.4657 -0.4731
  173DOPC   O1221059   2.401   3.385  13.159  0.4351  0.1630 -0.0582
  173DOPC   O1121060   2.424   3.606  13.279  0.0157 -0.0512 -0.1180
  173DOPC    C121061   2.422   3.533  13.406  0.7090  0.4093 -0.6081
  173DOPC    HA21062   2.516   3.542  13.464  0.3235 -0.0267  0.1112
  173DOPC    HB21063   2.416   3.422  13.413  0.5508  0.5051  1.5321
  173DOPC    C221064   2.319   3.596  13.501 -0.7698 -0.0338 -0.2007
  173DOPC    HS21065   2.227   3.581  13.441 -0.4944  2.4998 -1.3810
  173DOPC   O2121066   2.341   3.742  13.508  0.2844  0.5982  0.1177
  173DOPC   C2121067   2.237   3.814  13.553 -0.0897 -0.3168  0.1055
  173DOPC   O2221068   2.135   3.766  13.595  0.1186 -0.1105  0.0422
  173DOPC   C2221069   2.275   3.963  13.537 -0.5113  0.1362 -0.7693
  173DOPC   H2R21070   2.180   4.021  13.536 -0.6278  0.0088  0.7560
  173DOPC   H2S21071   2.321   3.983  13.438 -1.2328  3.2609 -0.5526
  173DOPC    C321072   2.322   3.524  13.640  0.7292 -0.0001  0.7596
  173DOPC    HX21073   2.296   3.418  13.620 -1.5276  0.8526 -1.3408
  173DOPC    HY21074   2.232   3.570  13.686  0.5707  1.5439 -0.9716
  173DOPC   O3121075   2.441   3.555  13.701  0.0520  0.2977 -0.5720
  173DOPC   C3121076   2.521   3.449  13.750 -1.1660 -0.0891  0.2754
  173DOPC   O3221077   2.519   3.336  13.705 -0.2574 -0.3349 -0.1735
  173DOPC   C3221078   2.616   3.500  13.858  0.2677 -0.9766 -0.3390
  173DOPC   H2X21079   2.708   3.538  13.809  0.6823  0.2065  1.2895
  173DOPC   H2Y21080   2.569   3.581  13.917 -0.3026 -1.8494  0.4372
  173DOPC   C2321081   2.351   4.013  13.667  0.1743  0.5366  0.7107
  173DOPC   H3R21082   2.380   4.118  13.645  1.3898 -0.1909 -1.4266
  173DOPC   H3S21083   2.440   3.947  13.674 -1.2442 -1.3362  1.8544
  173DOPC   C2421084   2.256   4.022  13.787  0.3777 -0.3180  0.3501
  173DOPC   H4R21085   2.206   3.928  13.817 -0.6241  0.3503  0.8083
  173DOPC   H4S21086   2.168   4.084  13.762 -0.8359 -1.8541  0.6506
  173DOPC   C2521087   2.317   4.075  13.922 -0.3599 -0.3736 -0.6546
  173DOPC   H5R21088   2.238   4.127  13.981  0.0256 -1.4484  0.8705
  173DOPC   H5S21089   2.396   4.148  13.893 -0.6997  1.3671  2.3398
  173DOPC   C2621090   2.373   3.956  14.004  0.0275 -0.7410  0.9779
  173DOPC   H6R21091   2.428   3.890  13.934 -2.0190 -0.9495 -0.5393
  173DOPC   H6S21092   2.297   3.891  14.055 -0.0695  0.5138  2.5198
  173DOPC   C2721093   2.464   4.000  14.116  0.3031 -0.2784 -0.4644
  173DOPC   H7R21094   2.565   4.025  14.080  1.3671 -1.1228  1.7322
  173DOPC   H7S21095   2.470   3.911  14.183 -0.9184 -1.1813 -1.5114
  173DOPC   C2821096   2.409   4.120  14.207  0.1820  0.1226 -0.3512
  173DOPC   H8R21097   2.393   4.209  14.144  1.1801 -0.5779 -1.6593
  173DOPC   H8S21098   2.491   4.140  14.279 -0.1252 -0.2111  0.0956
  173DOPC   C2921099   2.277   4.088  14.281  0.5061 -0.0506  0.8096
  173DOPC   H9R21100   2.200   4.036  14.222 -0.1216  2.8720 -1.1475
  173DOPC  C21021101   2.244   4.116  14.406  0.0935 -0.5695 -0.5109
  173DOPC  H10R21102   2.141   4.099  14.442 -0.6055  1.5274 -1.3856
  173DOPC  C21121103   2.332   4.178  14.515  0.1737  0.2906  0.4174
  173DOPC  H11R21104   2.405   4.250  14.474 -0.7007  0.9621  0.0174
  173DOPC  H11S21105   2.377   4.090  14.566 -0.0758 -0.1720 -0.1457
  173DOPC  C21221106   2.242   4.248  14.624 -0.3282  0.3843 -0.3616
  173DOPC  H12R21107   2.200   4.339  14.575  0.0548 -0.3757 -2.1991
  173DOPC  H12S21108   2.324   4.274  14.694 -0.3362  0.2464 -0.3020
  173DOPC  C21321109   2.131   4.172  14.696 -0.4616 -0.0515 -0.7440
  173DOPC  H13R21110   2.160   4.071  14.731  1.4696  0.9206  0.6824
  173DOPC  H13S21111   2.041   4.172  14.631 -1.5526 -0.0404  0.7264
  173DOPC  C21421112   2.081   4.242  14.820  0.0851 -0.4511 -0.1527
  173DOPC  H14R21113   2.172   4.283  14.868 -0.9867  1.8225  0.0668
  173DOPC  H14S21114   2.038   4.171  14.895  0.4736  1.0424  1.5641
  173DOPC  C21521115   1.975   4.353  14.812 -0.1913 -0.4320 -0.0255
  173DOPC  H15R21116   1.872   4.322  14.786  0.5370 -1.1345 -2.3469
  173DOPC  H15S21117   2.005   4.420  14.729 -1.0138 -0.9645 -0.7683
  173DOPC  C21621118   1.957   4.426  14.945  0.5806 -0.0898 -0.4019
  173DOPC  H16R21119   1.903   4.521  14.924 -0.3053 -0.6974 -0.9359
  173DOPC  H16S21120   2.055   4.458  14.986  0.0542 -1.4899  2.1659
  173DOPC  C21721121   1.876   4.349  15.050 -0.9732 -0.0510  0.0475
  173DOPC  H17R21122   1.939   4.264  15.082 -1.5329 -1.0385 -1.3813
  173DOPC  H17S21123   1.783   4.302  15.011  0.3713 -2.2313 -0.6996
  173DOPC  C21821124   1.844   4.436  15.170 -0.3929 -0.0890 -0.1161
  173DOPC  H18R21125   1.787   4.383  15.248  0.1615 -1.5768 -0.6784
  173DOPC  H18S21126   1.780   4.522  15.140 -0.7887 -0.7070 -1.0835
  173DOPC  H18T21127   1.935   4.465  15.227  1.2120 -5.0147  0.2703
  173DOPC   C3321128   2.653   3.393  13.959  0.2944 -0.0411  0.1147
  173DOPC   H3X21129   2.734   3.433  14.024  0.1957 -0.0843  0.2653
  173DOPC   H3Y21130   2.689   3.296  13.917 -1.2054 -0.3642 -0.4742
  173DOPC   C3421131   2.527   3.351  14.042 -0.4009  0.6714 -0.2550
  173DOPC   H4X21132   2.458   3.281  13.991  1.0254 -0.5996 -0.5168
  173DOPC   H4Y21133   2.460   3.439  14.052 -0.6626  0.4025  0.4290
  173DOPC   C3521134   2.563   3.307  14.183 -0.1725  0.2922  0.3142
  173DOPC   H5X21135   2.625   3.388  14.228 -0.2577 -0.4519  1.8021
  173DOPC   H5Y21136   2.621   3.213  14.179 -1.7459 -0.6708 -0.9884
  173DOPC   C3621137   2.437   3.292  14.274  0.0672  0.2894 -0.0213
  173DOPC   H6X21138   2.475   3.283  14.378  2.3159  1.8943 -0.6051
  173DOPC   H6Y21139   2.381   3.388  14.276  0.0816  0.2893  0.6139
  173DOPC   C3721140   2.352   3.173  14.238 -0.9725 -0.6390  0.4921
  173DOPC   H7X21141   2.335   3.193  14.130 -0.6850  2.8795  0.9763
  173DOPC   H7Y21142   2.407   3.078  14.250  0.2809  0.0964  0.6797
  173DOPC   C3821143   2.227   3.155  14.325 -0.2333 -0.6409 -0.7525
  173DOPC   H8X21144   2.154   3.231  14.291  1.0658  0.2714 -1.6093
  173DOPC   H8Y21145   2.248   3.168  14.433 -0.3026 -0.5391 -0.7513
  173DOPC   C3921146   2.167   3.017  14.306  0.3550  0.1429  0.3510
  173DOPC   H9X21147   2.217   2.937  14.250 -1.2129  0.9357 -2.3933
  173DOPC  C31021148   2.045   2.981  14.356 -0.3923 -0.1024 -0.8597
  173DOPC  H10X21149   2.004   2.879  14.347 -1.4098  0.3114 -0.9072
  173DOPC  C31121150   1.959   3.065  14.446  0.5725 -0.2948  0.3136
  173DOPC  H11X21151   1.886   3.118  14.381 -0.7500  0.0771  2.0477
  173DOPC  H11Y21152   2.010   3.156  14.486  0.7350 -0.6057  0.8232
  173DOPC  C31221153   1.878   2.993  14.564 -0.0108 -0.2464  0.0734
  173DOPC  H12X21154   1.958   2.970  14.638  1.0936  0.1886 -0.9382
  173DOPC  H12Y21155   1.845   2.896  14.522  0.6876  0.8423 -3.3468
  173DOPC  C31321156   1.760   3.081  14.605  0.2875 -0.7945 -0.2958
  173DOPC  H13X21157   1.719   3.037  14.699 -0.8467  0.3941 -0.2058
  173DOPC  H13Y21158   1.794   3.184  14.630  0.0852 -0.9971  0.8875
  173DOPC  C31421159   1.651   3.072  14.497 -0.2281 -0.1937 -0.0758
  173DOPC  H14X21160   1.689   3.099  14.396  0.3825 -0.5314  0.0613
  173DOPC  H14Y21161   1.624   2.965  14.492  0.1566 -0.2697 -0.5961
  173DOPC  C31521162   1.528   3.159  14.518  0.1532 -0.0216 -0.0558
  173DOPC  H15X21163   1.446   3.129  14.449 -0.0790  0.8350 -0.1649
  173DOPC  H15Y21164   1.560   3.262  14.492 -1.3201  0.9594  1.7485
  173DOPC  C31621165   1.465   3.170  14.663  0.1946  0.3085  0.0762
  173DOPC  H16X21166   1.435   3.067  14.691  0.3913  0.4056  0.6410
  173DOPC  H16Y21167   1.546   3.208  14.727  0.1788  0.3129  0.0942
  173DOPC  C31721168   1.325   3.235  14.674 -0.0405 -0.7734 -0.3674
  173DOPC  H17X21169   1.340   3.335  14.628  3.3860 -0.0245  2.0248
  173DOPC  H17Y21170   1.253   3.190  14.603 -0.4722 -1.0582  0.2354
  173DOPC  C31821171   1.265   3.252  14.815 -0.0812 -0.0733  0.4566
  173DOPC  H18X21172   1.311   3.341  14.863  0.0587  1.2814 -1.9898
  173DOPC  H18Y21173   1.159   3.280  14.798  0.2222 -0.0858 -1.7938
  173DOPC  H18Z21174   1.295   3.168  14.880  0.1941  0.9272  1.6649
  174DOPC     N21175   6.003   2.919  12.705  0.0861  0.3063  0.4774
  174DOPC   C1221176   6.025   2.969  12.848 -0.0789  0.4010  0.0353
  174DOPC  H12A21177   5.952   3.042  12.878 -0.2859  0.3682 -0.3800
  174DOPC  H12B21178   6.113   3.031  12.847  2.2148 -2.4886  2.6161
  174DOPC   C1321179   6.008   3.033  12.604 -0.1582  0.2019 -0.2917
  174DOPC  H13A21180   6.099   3.090  12.594 -1.9071  2.7903 -3.0933
  174DOPC  H13B21181   5.986   3.003  12.503 -0.5777  0.0618 -0.1609
  174DOPC  H13C21182   5.939   3.111  12.633  0.9102  0.8173  0.6908
  174DOPC   C1421183   5.871   2.847  12.697  0.0480  0.7244  0.4960
  174DOPC  H14A21184   5.872   2.758  12.759  2.9423  0.3075 -0.0376
  174DOPC  H14B21185   5.785   2.902  12.732 -0.1017  0.6286  0.2869
  174DOPC  H14C21186   5.838   2.821  12.597  0.1013  0.6279  0.5027
  174DOPC   C1521187   6.106   2.814  12.673 -0.3464 -0.4325 -0.0171
  174DOPC  H15A21188   6.095   2.736  12.746 -2.6504  0.6778  0.9150
  174DOPC  H15B21189   6.198   2.868  12.694  0.8184 -2.2026 -0.3333
  174DOPC  H15C21190   6.091   2.778  12.572 -2.1221  3.4675 -1.3574
  174DOPC   C1121191   6.051   2.864  12.959 -0.4035  0.2123 -0.6716
  174DOPC  H11A21192   6.139   2.798  12.947 -0.6983 -0.0106 -1.6639
  174DOPC  H11B21193   6.074   2.928  13.047  0.4167 -2.3254  1.1135
  174DOPC     P21194   5.827   2.824  13.084  0.2474 -0.3157 -0.2062
  174DOPC   O1321195   5.745   2.701  13.105 -0.2365  0.0782  0.6555
  174DOPC   O1421196   5.766   2.946  13.023  0.1420  0.3050 -0.4113
  174DOPC   O1221197   5.937   2.780  12.985 -0.1225  0.1509 -0.4516
  174DOPC   O1121198   5.906   2.860  13.214 -0.1556 -0.2684 -0.0551
  174DOPC    C121199   5.866   2.786  13.337  0.0076 -0.0541 -0.5320
  174DOPC    HA21200   5.918   2.688  13.346 -0.0091  0.0121  0.4022
  174DOPC    HB21201   5.756   2.769  13.339  0.3393 -2.6258 -0.6172
  174DOPC    C221202   5.901   2.858  13.469  0.0002 -0.0013 -0.8570
  174DOPC    HS21203   5.877   2.784  13.549 -0.1874 -0.4929 -1.3564
  174DOPC   O2121204   5.839   2.982  13.486  0.5178 -0.0107 -0.2533
  174DOPC   C2121205   5.710   2.983  13.514 -0.2604  0.3379 -0.0182
  174DOPC   O2221206   5.650   2.884  13.561  0.2853 -0.7753 -0.2231
  174DOPC   C2221207   5.642   3.117  13.482  0.4236 -0.1686 -0.0896
  174DOPC   H2R21208   5.620   3.103  13.374 -0.6878  0.0666  0.0888
  174DOPC   H2S21209   5.718   3.197  13.495  0.6248 -0.2848 -0.5390
  174DOPC    C321210   6.055   2.880  13.462 -0.7458 -0.2853 -0.9636
  174DOPC    HX21211   6.085   2.973  13.410 -0.6232  1.2937  1.7601
  174DOPC    HY21212   6.106   2.799  13.406  0.1519  0.7619 -1.7124
  174DOPC   O3121213   6.105   2.898  13.600  0.3781 -0.4587 -0.0188
  174DOPC   C3121214   6.175   2.808  13.650 -0.1260  0.1963  0.2812
  174DOPC   O3221215   6.179   2.692  13.613 -0.0218  0.0668  0.4455
  174DOPC   C3221216   6.262   2.863  13.760 -0.6033  0.1623  0.3515
  174DOPC   H2X21217   6.338   2.933  13.718  0.2713 -0.3058  1.1189
  174DOPC   H2Y21218   6.200   2.913  13.838 -0.3403  2.0930 -0.6068
  174DOPC   C2321219   5.508   3.142  13.565 -0.2741  0.6074  0.5462
  174DOPC   H3R21220   5.437   3.064  13.530  1.0246 -0.2393 -0.2976
  174DOPC   H3S21221   5.458   3.234  13.529 -1.5589 -0.1598  0.2796
  174DOPC   C2421222   5.530   3.135  13.717  0.4626 -0.6682 -0.1455
  174DOPC   H4R21223   5.601   3.219  13.736  0.7574 -0.5569 -1.5717
  174DOPC   H4S21224   5.578   3.036  13.734  1.1819 -0.7723 -2.3716
  174DOPC   C2521225   5.406   3.160  13.798 -0.3464 -0.5736 -0.6053
  174DOPC   H5R21226   5.340   3.077  13.764 -0.1322 -1.1473  0.3290
  174DOPC   H5S21227   5.364   3.257  13.764 -0.7992 -1.3366 -2.3083
  174DOPC   C2621228   5.435   3.156  13.944 -0.0252  0.0879 -0.3239
  174DOPC   H6R21229   5.521   3.218  13.977  1.4111 -0.6166 -2.5458
  174DOPC   H6S21230   5.468   3.055  13.975  2.0357  0.0012 -2.5194
  174DOPC   C2721231   5.314   3.195  14.020 -0.3594 -0.3742  0.4772
  174DOPC   H7R21232   5.243   3.117  13.987 -0.0267  0.1744 -1.6994
  174DOPC   H7S21233   5.284   3.301  14.006 -0.7759 -0.5238  0.2366
  174DOPC   C2821234   5.321   3.176  14.175 -0.4788  0.5085  0.5579
  174DOPC   H8R21235   5.217   3.192  14.212 -1.0989  1.1903 -1.3231
  174DOPC   H8S21236   5.390   3.250  14.221 -0.0087  0.6843 -0.4000
  174DOPC   C2921237   5.364   3.035  14.214  0.0390  0.4345 -0.1757
  174DOPC   H9R21238   5.294   2.952  14.198  0.1342  0.3405 -0.1059
  174DOPC  C21021239   5.473   2.995  14.286  0.1150 -0.7035 -0.2263
  174DOPC  H10R21240   5.497   2.888  14.295 -4.4907 -1.8032  1.9189
  174DOPC  C21121241   5.580   3.077  14.344  0.2523 -0.3969  0.3371
  174DOPC  H11R21242   5.551   3.183  14.365  1.9783 -0.0125  0.8958
  174DOPC  H11S21243   5.660   3.076  14.267  0.0525  0.0894  0.1205
  174DOPC  C21221244   5.652   3.019  14.469  0.5653 -0.3626 -0.0851
  174DOPC  H12R21245   5.740   3.086  14.478 -0.5075  0.8285  2.4104
  174DOPC  H12S21246   5.683   2.913  14.461 -2.7428 -1.4962  0.7103
  174DOPC  C21321247   5.571   3.051  14.599 -0.4593 -0.1263  0.2319
  174DOPC  H13R21248   5.474   2.997  14.595 -0.5289 -0.0050  0.2753
  174DOPC  H13S21249   5.547   3.159  14.605  2.8333  0.7446 -0.1948
  174DOPC  C21421250   5.644   3.005  14.722  0.5306 -0.1688  0.2848
  174DOPC  H14R21251   5.686   2.904  14.704  2.4388  0.7470 -0.7130
  174DOPC  H14S21252   5.563   2.991  14.797 -0.9826 -0.3588 -1.3204
  174DOPC  C21521253   5.745   3.105  14.775 -0.2464  0.3049 -0.5628
  174DOPC  H15R21254   5.824   3.113  14.697 -0.6912  1.9085 -0.8935
  174DOPC  H15S21255   5.784   3.068  14.872  0.4518 -0.0991 -0.9918
  174DOPC  C21621256   5.698   3.245  14.813  0.4772  0.2528 -0.2204
  174DOPC  H16R21257   5.636   3.282  14.728  0.4127  0.3712 -0.1215
  174DOPC  H16S21258   5.790   3.306  14.825  1.7982 -1.5976 -0.5405
  174DOPC  C21721259   5.616   3.251  14.933  0.0080  0.5380 -0.5581
  174DOPC  H17R21260   5.680   3.223  15.019 -1.7384  0.9836  0.9546
  174DOPC  H17S21261   5.530   3.181  14.945 -1.5855  2.6636  1.5350
  174DOPC  C21821262   5.547   3.381  14.966 -0.4015  0.7977  0.8355
  174DOPC  H18R21263   5.482   3.395  14.876  1.0665 -0.0900 -0.4229
  174DOPC  H18S21264   5.621   3.463  14.961  1.4700 -0.8681 -1.4322
  174DOPC  H18T21265   5.485   3.382  15.058 -0.5090  1.1350  0.7579
  174DOPC   C3321266   6.359   2.756  13.809 -0.5465  1.0547 -0.8760
  174DOPC   H3X21267   6.421   2.710  13.729  2.3447  2.1643  0.5680
  174DOPC   H3Y21268   6.301   2.683  13.870 -0.1559  2.4154  1.2346
  174DOPC   C3421269   6.474   2.807  13.890  0.0006  0.4734 -0.4764
  174DOPC   H4X21270   6.435   2.830  13.991 -0.2929 -0.6751 -0.3115
  174DOPC   H4Y21271   6.530   2.893  13.849  0.6834  0.3320  0.1385
  174DOPC   C3521272   6.579   2.697  13.910  0.2902 -0.1117 -0.9114
  174DOPC   H5X21273   6.614   2.652  13.815 -0.9393 -1.8557 -0.5886
  174DOPC   H5Y21274   6.533   2.613  13.966 -1.4163  0.4833 -1.3511
  174DOPC   C3621275   6.701   2.744  13.994 -0.4723 -0.3301 -0.3125
  174DOPC   H6X21276   6.789   2.681  13.970  1.1149  1.5989  0.1390
  174DOPC   H6Y21277   6.730   2.848  13.966  0.1900 -0.7345 -1.1393
  174DOPC   C3721278   6.668   2.733  14.144 -0.4286 -0.1484 -0.2939
  174DOPC   H7X21279   6.584   2.798  14.177  1.4713  0.5458  3.7137
  174DOPC   H7Y21280   6.644   2.627  14.168 -1.1274  0.3748  1.5155
  174DOPC   C3821281   6.794   2.767  14.226 -0.1033  0.4631 -0.0689
  174DOPC   H8X21282   6.821   2.874  14.228 -0.1344  0.4600  0.9284
  174DOPC   H8Y21283   6.876   2.709  14.179 -0.3790  0.8459 -1.0422
  174DOPC   C3921284   6.779   2.714  14.370  0.2599  0.2511  0.1363
  174DOPC   H9X21285   6.839   2.626  14.395  0.1715  0.5218  1.4042
  174DOPC  C31021286   6.703   2.772  14.470  0.4527 -0.2716 -1.2197
  174DOPC  H10X21287   6.707   2.722  14.567  1.1758 -0.2261 -1.2228
  174DOPC  C31121288   6.615   2.894  14.448  0.4317  0.2073 -0.0877
  174DOPC  H11X21289   6.514   2.853  14.467  0.5511 -0.0594 -0.0241
  174DOPC  H11Y21290   6.626   2.925  14.342 -0.8062 -1.3859 -0.7312
  174DOPC  C31221291   6.633   3.014  14.539  0.4643  0.3006  0.4261
  174DOPC  H12X21292   6.610   2.981  14.642 -0.8089  0.2027  0.1238
  174DOPC  H12Y21293   6.555   3.090  14.520 -0.5425 -0.3975  1.6080
  174DOPC  C31321294   6.774   3.076  14.517 -0.0441  0.6182  0.2854
  174DOPC  H13X21295   6.857   3.005  14.540  1.2218  2.0003  0.0940
  174DOPC  H13Y21296   6.777   3.106  14.410 -0.7567 -0.0947  0.0485
  174DOPC  C31421297   6.798   3.202  14.611 -0.3040 -0.1761  0.0969
  174DOPC  H14X21298   6.778   3.170  14.716 -0.8857 -0.0948  0.0186
  174DOPC  H14Y21299   6.906   3.222  14.600 -0.6503  2.0489  0.1704
  174DOPC  C31521300   6.706   3.324  14.582  0.3034  0.0739  0.3261
  174DOPC  H15X21301   6.707   3.400  14.663  0.4274  0.2583  0.1509
  174DOPC  H15Y21302   6.602   3.285  14.588 -0.3255  1.4108 -1.2474
  174DOPC  C31621303   6.721   3.378  14.442 -0.5806  0.2664 -0.4969
  174DOPC  H16X21304   6.703   3.296  14.369  1.5629 -0.8711  0.1840
  174DOPC  H16Y21305   6.640   3.454  14.441 -0.6211  0.2432  0.3354
  174DOPC  C31721306   6.854   3.451  14.419  1.2494 -0.4090  0.7640
  174DOPC  H17X21307   6.874   3.519  14.504  2.1630  0.1732  0.1065
  174DOPC  H17Y21308   6.941   3.381  14.424  2.2128  0.8407  2.5311
  174DOPC  C31821309   6.857   3.524  14.280 -0.2106  0.1946 -0.1555
  174DOPC  H18X21310   6.789   3.612  14.279  0.1360  0.4685  0.2251
  174DOPC  H18Y21311   6.962   3.559  14.269  1.4351 -3.8698  0.8639
  174DOPC  H18Z21312   6.839   3.455  14.195  2.5359 -0.7718 -0.0492
  175DOPC     N21313   4.494   6.599  12.722  0.0197  0.2317 -0.7798
  175DOPC   C1221314   4.620   6.525  12.751 -0.4294  0.2921  0.2144
  175DOPC  H12A21315   4.707   6.574  12.710  2.0460 -2.3632  1.8994
  175DOPC  H12B21316   4.614   6.422  12.719  1.6429 -0.9247  3.2209
  175DOPC   C1321317   4.475   6.596  12.572  0.0645 -0.7162  0.1651
  175DOPC  H13A21318   4.568   6.625  12.527  1.3921 -1.4883  2.2597
  175DOPC  H13B21319   4.465   6.493  12.540 -1.7473 -1.3238  2.3285
  175DOPC  H13C21320   4.386   6.651  12.543 -2.0294 -1.4867  4.3181
  175DOPC   C1421321   4.507   6.742  12.770 -0.2024  0.4467 -0.0591
  175DOPC  H14A21322   4.592   6.790  12.723 -0.2467  1.4656  0.8817
  175DOPC  H14B21323   4.420   6.800  12.746  0.2314  0.4939 -1.6741
  175DOPC  H14C21324   4.525   6.742  12.876 -1.0113 -2.5910  0.1647
  175DOPC   C1521325   4.375   6.540  12.779 -0.2017 -0.4544  0.1642
  175DOPC  H15A21326   4.279   6.588  12.769 -0.4854 -0.1407  3.5085
  175DOPC  H15B21327   4.383   6.536  12.886 -1.8356  0.1681  0.3485
  175DOPC  H15C21328   4.368   6.436  12.751 -0.0685 -0.5651  0.5387
  175DOPC   C1121329   4.670   6.520  12.895 -0.1136  0.2987 -0.1002
  175DOPC  H11A21330   4.768   6.468  12.899 -0.2832 -0.2502 -2.0696
  175DOPC  H11B21331   4.679   6.622  12.940  0.8732  0.1266  0.1071
  175DOPC     P21332   4.545   6.302  12.971  0.4688 -0.2088  0.0086
  175DOPC   O1321333   4.596   6.241  12.844  0.2169  0.0131  0.2529
  175DOPC   O1421334   4.404   6.283  13.015  0.2145 -0.1143 -0.0441
  175DOPC   O1221335   4.572   6.458  12.982  0.3355 -0.1991 -0.4765
  175DOPC   O1121336   4.629   6.234  13.088  0.4034 -0.1267 -0.3525
  175DOPC    C121337   4.674   6.307  13.197  0.0370 -0.3348 -0.2823
  175DOPC    HA21338   4.590   6.358  13.249  0.6029  1.8203 -1.3582
  175DOPC    HB21339   4.736   6.391  13.160  0.3880 -0.3333  0.3007
  175DOPC    C221340   4.743   6.214  13.301  0.2988  0.1493  0.0530
  175DOPC    HS21341   4.840   6.186  13.255  0.7130  0.7119  0.5796
  175DOPC   O2121342   4.651   6.102  13.317  0.5226 -0.4175 -0.4911
  175DOPC   C2121343   4.710   6.002  13.384 -0.6607 -0.2042  0.3588
  175DOPC   O2221344   4.830   6.011  13.408  0.8642 -0.3448  0.6413
  175DOPC   C2221345   4.617   5.889  13.404 -0.2029 -1.0474 -0.2643
  175DOPC   H2R21346   4.638   5.807  13.332  1.5475  1.8865 -3.4045
  175DOPC   H2S21347   4.517   5.924  13.369  0.3385  0.2807 -0.5271
  175DOPC    C321348   4.760   6.305  13.427  0.8297  0.8034 -0.3794
  175DOPC    HX21349   4.801   6.405  13.405  2.1748  0.2190 -0.6227
  175DOPC    HY21350   4.844   6.266  13.488  1.8966  1.5193 -1.3520
  175DOPC   O3121351   4.646   6.306  13.518  0.6086  0.2599  0.2403
  175DOPC   C3121352   4.575   6.418  13.531 -0.1333 -0.1530 -0.1340
  175DOPC   O3221353   4.606   6.523  13.477 -0.1618  0.1232 -0.4370
  175DOPC   C3221354   4.451   6.404  13.620 -0.0167  0.2308  0.1024
  175DOPC   H2X21355   4.373   6.474  13.584 -1.7620 -1.0814  1.1775
  175DOPC   H2Y21356   4.402   6.305  13.608 -0.5097  0.6828 -2.0506
  175DOPC   C2321357   4.604   5.844  13.552  0.3926 -0.4034 -0.0775
  175DOPC   H3R21358   4.708   5.838  13.590 -0.5973 -1.5726  2.6821
  175DOPC   H3S21359   4.547   5.749  13.551  0.7772 -0.6440  0.6389
  175DOPC   C2421360   4.523   5.947  13.629 -0.1569  0.8708 -0.2294
  175DOPC   H4R21361   4.425   5.953  13.576 -0.5871  2.3278  0.6730
  175DOPC   H4S21362   4.583   6.038  13.609  2.9277 -1.2283 -1.2876
  175DOPC   C2521363   4.489   5.908  13.773 -0.0806 -0.5143 -0.1051
  175DOPC   H5R21364   4.585   5.926  13.825 -0.0119 -3.3610  0.9377
  175DOPC   H5S21365   4.465   5.799  13.774 -0.5879 -0.4497  2.7320
  175DOPC   C2621366   4.374   5.991  13.818 -0.2469  0.1209  0.3583
  175DOPC   H6R21367   4.288   5.979  13.748 -1.1812  1.9243  1.1166
  175DOPC   H6S21368   4.399   6.099  13.810 -2.9207  0.6699 -2.9719
  175DOPC   C2721369   4.339   5.965  13.964 -0.2067 -0.7769  0.7024
  175DOPC   H7R21370   4.424   5.982  14.033  0.6622 -1.8808 -0.0793
  175DOPC   H7S21371   4.316   5.857  13.974  0.1594 -1.1191 -1.6025
  175DOPC   C2821372   4.227   6.057  14.013  0.3816  0.1008  0.4227
  175DOPC   H8R21373   4.162   5.999  14.082 -0.2880 -1.0380 -1.1189
  175DOPC   H8S21374   4.150   6.075  13.935  1.8106  0.6205 -0.9259
  175DOPC   C2921375   4.265   6.181  14.087  0.3628  0.6112  0.3103
  175DOPC   H9R21376   4.337   6.159  14.168  0.9825  0.4562 -0.2788
  175DOPC  C21021377   4.226   6.305  14.076 -0.0791 -0.5118 -0.3169
  175DOPC  H10R21378   4.265   6.380  14.147  1.6581 -1.6890  0.0413
  175DOPC  C21121379   4.128   6.352  13.972 -0.5941  0.0594 -0.5214
  175DOPC  H11R21380   4.171   6.313  13.878  2.3268 -1.6031  1.3586
  175DOPC  H11S21381   4.114   6.462  13.965  0.1563  0.1210 -1.1730
  175DOPC  C21221382   3.980   6.299  13.986 -0.2584 -0.3825  0.0890
  175DOPC  H12R21383   3.928   6.369  14.055 -1.6560 -2.6152  1.4236
  175DOPC  H12S21384   3.973   6.196  14.027  0.7277 -0.5157 -0.0427
  175DOPC  C21321385   3.900   6.307  13.854  0.5761  0.5021  0.2051
  175DOPC  H13R21386   3.937   6.222  13.792  2.7347  1.8863 -0.4992
  175DOPC  H13S21387   3.913   6.397  13.790 -1.4265  0.6362 -0.0985
  175DOPC  C21421388   3.748   6.287  13.860 -0.1501 -0.0530 -0.2276
  175DOPC  H14R21389   3.729   6.187  13.903  0.1720 -0.5111 -1.1156
  175DOPC  H14S21390   3.712   6.293  13.755 -1.4691  1.6722  0.2765
  175DOPC  C21521391   3.672   6.392  13.951 -0.1879 -0.3880  1.1019
  175DOPC  H15R21392   3.667   6.490  13.898 -0.2944 -1.2651 -0.5908
  175DOPC  H15S21393   3.727   6.394  14.047  0.4620  0.5205  0.7326
  175DOPC  C21621394   3.531   6.354  13.991  0.2211  0.5581 -0.3791
  175DOPC  H16R21395   3.489   6.438  14.050 -1.2147 -2.7886  3.9159
  175DOPC  H16S21396   3.521   6.266  14.058  0.2647  1.1267  0.3823
  175DOPC  C21721397   3.437   6.317  13.873  0.3755  0.3169 -0.2836
  175DOPC  H17R21398   3.473   6.217  13.839  0.6356 -0.2627  1.5781
  175DOPC  H17S21399   3.450   6.394  13.794 -0.3635  1.0270  0.2756
  175DOPC  C21821400   3.294   6.327  13.914 -0.2926  0.7098  0.1553
  175DOPC  H18R21401   3.267   6.434  13.934 -0.7028  1.4363 -3.5650
  175DOPC  H18S21402   3.280   6.259  14.000 -1.9417  1.5003  0.5604
  175DOPC  H18T21403   3.231   6.303  13.826  1.6101 -0.8529 -0.8581
  175DOPC   C3321404   4.477   6.445  13.768 -0.3570 -0.1617  0.0438
  175DOPC   H3X21405   4.379   6.440  13.820  0.4647  1.5875  1.9138
  175DOPC   H3Y21406   4.508   6.552  13.769 -0.6724 -0.0703  0.1587
  175DOPC   C3421407   4.579   6.360  13.836 -0.2953 -0.6887  0.0704
  175DOPC   H4X21408   4.681   6.395  13.806 -0.6392  0.7490  0.4964
  175DOPC   H4Y21409   4.561   6.251  13.830  1.1856 -0.9908  0.4788
  175DOPC   C3521410   4.587   6.394  13.989 -0.0487  0.3417 -0.2365
  175DOPC   H5X21411   4.485   6.375  14.028 -0.0396  0.3930 -0.1877
  175DOPC   H5Y21412   4.603   6.503  14.004  3.3871 -0.1679  0.8255
  175DOPC   C3621413   4.703   6.323  14.062 -0.1749 -0.0015  0.3250
  175DOPC   H6X21414   4.685   6.215  14.041  0.1112 -0.0380  0.2634
  175DOPC   H6Y21415   4.797   6.360  14.017 -0.4074  1.7767  1.2355
  175DOPC   C3721416   4.714   6.358  14.216  0.0566  0.2242  0.1545
  175DOPC   H7X21417   4.753   6.462  14.221 -0.5441  0.3979  1.4908
  175DOPC   H7Y21418   4.611   6.348  14.258 -0.1061  0.2701 -0.2225
  175DOPC   C3821419   4.797   6.263  14.307 -0.3405  0.0826 -0.1485
  175DOPC   H8X21420   4.736   6.171  14.321  0.4221 -0.5863 -1.1695
  175DOPC   H8Y21421   4.813   6.311  14.406  1.5798 -0.9360  0.0754
  175DOPC   C3921422   4.930   6.229  14.241  0.1934 -0.1895  0.1203
  175DOPC   H9X21423   4.925   6.190  14.138  0.9427  2.8446 -1.1995
  175DOPC  C31021424   5.052   6.243  14.295 -0.0974 -0.1848 -0.3321
  175DOPC  H10X21425   5.139   6.221  14.231  0.3128 -1.3585  0.5771
  175DOPC  C31121426   5.090   6.286  14.434  0.7927  0.5418  0.1461
  175DOPC  H11X21427   5.131   6.198  14.488 -1.2911 -0.8115 -0.3720
  175DOPC  H11Y21428   5.002   6.332  14.484 -0.5159 -0.7593 -0.8867
  175DOPC  C31221429   5.211   6.385  14.438  0.1550 -0.6573  0.1406
  175DOPC  H12X21430   5.177   6.479  14.391  2.4096  0.2879  0.2527
  175DOPC  H12Y21431   5.298   6.355  14.375  0.5002  0.2832  0.1648
  175DOPC  C31321432   5.256   6.429  14.576 -0.2091 -0.0620 -0.2902
  175DOPC  H13X21433   5.165   6.449  14.638 -0.9194 -0.6615 -1.1287
  175DOPC  H13Y21434   5.312   6.354  14.635 -1.3593 -1.4319 -0.8817
  175DOPC  C31421435   5.328   6.565  14.576  0.4838 -0.3799 -0.9755
  175DOPC  H14X21436   5.416   6.549  14.510  0.5220 -3.1015 -0.3684
  175DOPC  H14Y21437   5.266   6.638  14.519 -0.1634 -1.0471 -1.1377
  175DOPC  C31521438   5.371   6.621  14.712 -1.4145 -0.3087  0.4017
  175DOPC  H15X21439   5.410   6.722  14.688  1.6171 -0.9402  2.1483
  175DOPC  H15Y21440   5.452   6.555  14.749 -0.9971 -0.9159 -1.4988
  175DOPC  C31621441   5.272   6.638  14.823  0.4781 -0.3302 -0.5948
  175DOPC  H16X21442   5.174   6.654  14.774  1.1149 -1.0610 -2.1613
  175DOPC  H16Y21443   5.250   6.542  14.874 -1.3355  0.3776  0.0457
  175DOPC  C31721444   5.294   6.759  14.921 -0.1830  0.5667 -0.2675
  175DOPC  H17X21445   5.216   6.752  15.000 -0.6532  1.6957 -0.6094
  175DOPC  H17Y21446   5.392   6.741  14.969 -1.0582 -1.1938  0.9614
  175DOPC  C31821447   5.305   6.901  14.856  0.1909 -0.2783 -0.4543
  175DOPC  H18X21448   5.310   6.977  14.937  2.9619 -0.1129 -0.6722
  175DOPC  H18Y21449   5.399   6.909  14.796  1.0428 -4.9105 -0.0968
  175DOPC  H18Z21450   5.221   6.914  14.785 -0.2222 -2.0473 -0.3270
  176DOPC     N21451   2.648   1.631  12.770 -0.2241 -0.2362  0.5701
  176DOPC   C1221452   2.596   1.604  12.908  0.2340 -0.5341 -0.0985
  176DOPC  H12A21453   2.530   1.685  12.934 -0.8645 -1.1653 -0.8246
  176DOPC  H12B21454   2.680   1.617  12.974 -1.3364  1.8079  1.5601
  176DOPC   C1321455   2.538   1.627  12.668 -0.3436  0.2888 -0.1171
  176DOPC  H13A21456   2.575   1.654  12.570  0.4638  1.7124  0.5479
  176DOPC  H13B21457   2.507   1.523  12.665  1.7891 -0.4517  0.9239
  176DOPC  H13C21458   2.451   1.684  12.695 -2.3050 -1.5446 -2.1768
  176DOPC   C1421459   2.753   1.532  12.743  0.2516  0.0061  0.9745
  176DOPC  H14A21460   2.714   1.434  12.766 -1.9930  0.6852  0.3200
  176DOPC  H14B21461   2.795   1.540  12.644  2.2544  2.3175  1.9084
  176DOPC  H14C21462   2.843   1.549  12.799  1.8085 -0.7521 -1.1332
  176DOPC   C1521463   2.711   1.766  12.784  0.7585 -0.7195  0.4476
  176DOPC  H15A21464   2.631   1.834  12.805  0.7832 -0.4871 -0.1934
  176DOPC  H15B21465   2.761   1.800  12.694  1.8429 -0.3210  1.1816
  176DOPC  H15C21466   2.790   1.762  12.858 -0.7092  1.1670  2.2306
  176DOPC   C1121467   2.516   1.476  12.946  0.0894  0.5839 -0.0734
  176DOPC  H11A21468   2.473   1.472  13.049 -0.8496 -1.2754 -0.4892
  176DOPC  H11B21469   2.432   1.467  12.874  0.0367  0.9857 -0.0613
  176DOPC     P21470   2.705   1.331  13.057  0.2747 -0.4145 -0.1475
  176DOPC   O1321471   2.777   1.456  13.097 -0.1621  0.3495 -0.0741
  176DOPC   O1421472   2.789   1.214  13.007 -0.3342  0.1288  0.0521
  176DOPC   O1221473   2.609   1.368  12.939 -0.1646  0.2473 -0.0942
  176DOPC   O1121474   2.608   1.285  13.168 -0.3044 -0.3733 -0.5278
  176DOPC    C121475   2.498   1.189  13.142 -0.5243  0.2107  0.0476
  176DOPC    HA21476   2.489   1.159  13.035  0.4812  0.3814 -0.0951
  176DOPC    HB21477   2.401   1.237  13.166  0.2822  1.1112  1.6713
  176DOPC    C221478   2.496   1.062  13.235  0.4914  0.1758  0.3510
  176DOPC    HS21479   2.408   1.002  13.204  1.8620 -1.4189 -0.6747
  176DOPC   O2121480   2.506   1.104  13.375  0.2314 -0.5181 -0.3707
  176DOPC   C2121481   2.396   1.159  13.422 -0.1828  0.4070 -0.1319
  176DOPC   O2221482   2.289   1.162  13.370  0.2856  0.6438 -0.0689
  176DOPC   C2221483   2.420   1.221  13.556 -0.2097  0.0788 -0.2422
  176DOPC   H2R21484   2.322   1.241  13.603 -0.5039 -1.5975 -0.0960
  176DOPC   H2S21485   2.477   1.313  13.528 -0.3321  0.1048 -0.4035
  176DOPC    C321486   2.615   0.965  13.208 -1.1668  0.9496 -0.1897
  176DOPC    HX21487   2.717   1.003  13.228  0.1876 -1.5377 -1.8151
  176DOPC    HY21488   2.621   0.946  13.099 -1.3567  0.3922 -0.1083
  176DOPC   O3121489   2.603   0.836  13.276 -0.0893 -0.0508 -0.3412
  176DOPC   C3121490   2.657   0.818  13.402 -1.3157 -0.1486  0.0799
  176DOPC   O3221491   2.733   0.899  13.457 -0.3903 -0.2430 -0.3348
  176DOPC   C3221492   2.634   0.669  13.444 -0.1280 -0.1103 -0.3042
  176DOPC   H2X21493   2.577   0.615  13.366  0.2576 -1.3712  0.2662
  176DOPC   H2Y21494   2.736   0.626  13.442  0.1403  0.4149  0.8267
  176DOPC   C2321495   2.502   1.142  13.654  0.3685  0.9406  0.2357
  176DOPC   H3R21496   2.602   1.126  13.609 -0.8060  0.9858 -2.6386
  176DOPC   H3S21497   2.457   1.040  13.662 -1.3031  1.6087 -0.2127
  176DOPC   C2421498   2.520   1.218  13.788 -0.0445 -0.0191  0.0679
  176DOPC   H4R21499   2.431   1.280  13.813 -0.3325  0.2494 -1.5114
  176DOPC   H4S21500   2.600   1.293  13.773 -1.0787  1.0921 -0.0654
  176DOPC   C2521501   2.570   1.133  13.904  0.0135 -0.2591 -0.7290
  176DOPC   H5R21502   2.668   1.087  13.877  0.3766 -0.6623  1.1406
  176DOPC   H5S21503   2.498   1.050  13.924  0.6022 -1.0450 -1.7626
  176DOPC   C2621504   2.599   1.225  14.027  0.0636  0.9750  0.3797
  176DOPC   H6R21505   2.623   1.327  13.988 -1.4675  0.3280 -2.5568
  176DOPC   H6S21506   2.682   1.182  14.088 -2.4465  0.1056  3.4220
  176DOPC   C2721507   2.483   1.235  14.128  0.0606 -0.1983 -0.0982
  176DOPC   H7R21508   2.442   1.133  14.145 -0.1420 -0.1468 -0.2736
  176DOPC   H7S21509   2.407   1.307  14.091  1.0702  2.8213  3.1806
  176DOPC   C2821510   2.534   1.299  14.258 -0.2181 -0.0185 -0.0016
  176DOPC   H8R21511   2.626   1.241  14.283  0.1571 -0.3472 -1.9528
  176DOPC   H8S21512   2.458   1.282  14.337 -3.0434  0.1027 -2.5274
  176DOPC   C2921513   2.568   1.447  14.242  0.1121 -0.4452  0.3432
  176DOPC   H9R21514   2.498   1.503  14.179 -1.0633 -2.8673 -0.6411
  176DOPC  C21021515   2.683   1.499  14.292  0.5364  0.3752  1.0091
  176DOPC  H10R21516   2.682   1.607  14.310 -0.9034  0.6445 -0.5091
  176DOPC  C21121517   2.786   1.423  14.369  0.2099 -0.0740 -0.0214
  176DOPC  H11R21518   2.779   1.312  14.373 -1.0943 -0.0548 -1.0002
  176DOPC  H11S21519   2.796   1.471  14.469 -1.5363  1.4554 -0.5158
  176DOPC  C21221520   2.928   1.431  14.303 -0.3050 -0.8776 -0.2765
  176DOPC  H12R21521   2.920   1.396  14.198 -1.9070  0.9958 -0.8416
  176DOPC  H12S21522   3.004   1.364  14.349 -1.2732 -2.5389 -1.0076
  176DOPC  C21321523   2.987   1.572  14.295  0.7226  0.3244 -0.2545
  176DOPC  H13R21524   2.983   1.625  14.392  1.5469 -0.1873  0.0757
  176DOPC  H13S21525   2.915   1.631  14.234 -2.9138 -1.2283  2.1979
  176DOPC  C21421526   3.132   1.579  14.240  0.3465 -0.2691  0.0298
  176DOPC  H14R21527   3.130   1.539  14.136 -1.4603 -1.0417  0.3147
  176DOPC  H14S21528   3.198   1.522  14.308  0.6504 -0.6331 -0.5597
  176DOPC  C21521529   3.197   1.722  14.238  0.0056 -0.7450  0.3327
  176DOPC  H15R21530   3.188   1.788  14.327  1.7529 -1.7889  1.3313
  176DOPC  H15S21531   3.164   1.792  14.158  3.4399  1.8791  0.9679
  176DOPC  C21621532   3.352   1.703  14.219  0.1420 -0.0126 -0.5136
  176DOPC  H16R21533   3.383   1.641  14.306 -1.3862  0.5583  0.4794
  176DOPC  H16S21534   3.393   1.806  14.224  0.3379 -0.1304  0.4141
  176DOPC  C21721535   3.400   1.637  14.095  0.5466 -0.0628  0.0809
  176DOPC  H17R21536   3.342   1.682  14.012 -1.1531  0.8600  1.6918
  176DOPC  H17S21537   3.362   1.533  14.090  1.9200 -0.6517  1.2733
  176DOPC  C21821538   3.553   1.629  14.069 -0.1010  0.0619 -0.3855
  176DOPC  H18R21539   3.571   1.569  13.977 -1.0565  0.0939 -0.5974
  176DOPC  H18S21540   3.599   1.574  14.154  0.2263  1.8249  0.6240
  176DOPC  H18T21541   3.601   1.729  14.067 -1.7746  0.9205  0.6708
  176DOPC   C3321542   2.560   0.660  13.582  0.0937 -0.9310  0.2089
  176DOPC   H3X21543   2.533   0.558  13.616 -0.7540  0.1831  3.2296
  176DOPC   H3Y21544   2.460   0.705  13.564  0.7452 -0.5995 -3.1177
  176DOPC   C3421545   2.632   0.728  13.698 -0.4665 -0.3087  0.4105
  176DOPC   H4X21546   2.661   0.833  13.675 -3.2359  0.6349  0.7837
  176DOPC   H4Y21547   2.727   0.674  13.718  0.1429  0.5234 -0.1857
  176DOPC   C3521548   2.544   0.731  13.832 -0.2302 -0.3237 -0.2413
  176DOPC   H5X21549   2.495   0.632  13.829 -0.2699 -0.2820 -1.8769
  176DOPC   H5Y21550   2.456   0.797  13.819 -0.7326 -1.0839 -0.8190
  176DOPC   C3621551   2.634   0.757  13.953 -0.1086  0.4512 -0.0636
  176DOPC   H6X21552   2.709   0.676  13.954 -0.7610 -0.1668  1.3578
  176DOPC   H6Y21553   2.692   0.849  13.930 -1.5049  0.5281 -4.1232
  176DOPC   C3721554   2.551   0.773  14.074  0.6197  0.1427  0.4931
  176DOPC   H7X21555   2.506   0.873  14.061 -0.1495  0.1553  2.8174
  176DOPC   H7Y21556   2.471   0.697  14.088 -0.5093  1.0589 -0.7525
  176DOPC   C3821557   2.626   0.766  14.205 -0.5002 -0.2875  1.0198
  176DOPC   H8X21558   2.662   0.871  14.217 -2.9725  0.4080  3.3592
  176DOPC   H8Y21559   2.717   0.703  14.205 -1.0674 -1.2882  4.4522
  176DOPC   C3921560   2.540   0.730  14.327 -1.0272 -0.3738 -0.1488
  176DOPC   H9X21561   2.500   0.628  14.315  1.3693 -1.1212 -2.6660
  176DOPC  C31021562   2.504   0.807  14.429  0.1615  0.5848  0.1866
  176DOPC  H10X21563   2.446   0.759  14.509  0.8904  1.1357  1.0664
  176DOPC  C31121564   2.532   0.949  14.453  0.2797  0.2825 -0.4122
  176DOPC  H11X21565   2.436   0.982  14.498  1.6350  1.8989  1.4363
  176DOPC  H11Y21566   2.557   1.001  14.358 -2.8737  1.9023 -0.4986
  176DOPC  C31221567   2.623   0.963  14.570 -0.8565  0.1737 -0.3266
  176DOPC  H12X21568   2.727   0.931  14.544  0.2158  3.3793 -0.3537
  176DOPC  H12Y21569   2.585   0.902  14.655  3.2261  1.2510  2.5937
  176DOPC  C31321570   2.639   1.104  14.624  0.6826 -0.3468 -0.5228
  176DOPC  H13X21571   2.687   1.166  14.546  0.4944 -0.0475 -0.4024
  176DOPC  H13Y21572   2.535   1.141  14.634  0.2170 -1.8703  0.6288
  176DOPC  C31421573   2.719   1.111  14.746 -0.4985 -0.5662  0.4307
  176DOPC  H14X21574   2.694   1.029  14.818 -1.5516  0.5295  1.3568
  176DOPC  H14Y21575   2.828   1.101  14.727 -0.1799  2.6886  0.0398
  176DOPC  C31521576   2.688   1.246  14.813  0.2175 -0.5110 -0.0868
  176DOPC  H15X21577   2.744   1.265  14.907  0.8461 -1.3599 -0.2811
  176DOPC  H15Y21578   2.582   1.221  14.836  0.2352 -2.9384 -2.1833
  176DOPC  C31621579   2.678   1.373  14.731 -0.1500  0.1687 -0.5562
  176DOPC  H16X21580   2.774   1.410  14.690  0.3613 -0.4498  0.0690
  176DOPC  H16Y21581   2.605   1.348  14.651 -2.9893  0.9812  1.6111
  176DOPC  C31721582   2.597   1.485  14.802  0.1502 -1.0399 -0.3053
  176DOPC  H17X21583   2.499   1.451  14.842 -0.1975 -0.3781 -0.5827
  176DOPC  H17Y21584   2.652   1.516  14.894  0.3673 -0.4168 -0.6440
  176DOPC  C31821585   2.595   1.607  14.719 -0.1010  0.2680 -0.0324
  176DOPC  H18X21586   2.546   1.700  14.754 -1.1471  0.7397 -2.5115
  176DOPC  H18Y21587   2.700   1.642  14.719  0.1462 -0.4472  0.4363
  176DOPC  H18Z21588   2.568   1.577  14.615  1.9793 -0.8338 -0.3060
  177DOPC     N21589   5.475   6.152  13.292  0.0288 -0.2188  0.9316
  177DOPC   C1221590   5.369   6.142  13.399  0.3922  0.2330 -0.7919
  177DOPC  H12A21591   5.391   6.057  13.461  2.1778 -0.1064 -1.8349
  177DOPC  H12B21592   5.275   6.123  13.349 -0.1218 -3.4137  1.2605
  177DOPC   C1321593   5.595   6.215  13.348 -0.4255  0.5329  0.5926
  177DOPC  H13A21594   5.635   6.157  13.430  1.6203  0.3576 -0.4716
  177DOPC  H13B21595   5.672   6.225  13.273 -0.6712 -3.1214 -0.3297
  177DOPC  H13C21596   5.571   6.313  13.387 -2.0745 -0.0548  1.1116
  177DOPC   C1421597   5.432   6.235  13.184 -0.0749  0.0582 -0.0477
  177DOPC  H14A21598   5.513   6.261  13.118 -0.0661  1.5652  0.5093
  177DOPC  H14B21599   5.354   6.188  13.125  0.2783  1.1165 -1.4252
  177DOPC  H14C21600   5.396   6.329  13.224 -0.0984  0.6359 -1.3574
  177DOPC   C1521601   5.504   6.015  13.237 -0.1870 -0.3388 -0.4241
  177DOPC  H15A21602   5.567   6.014  13.150 -0.7283 -2.7015 -0.8786
  177DOPC  H15B21603   5.416   5.967  13.196 -0.8763  0.1516  0.4556
  177DOPC  H15C21604   5.543   5.959  13.321 -2.6429  0.5026  1.3842
  177DOPC   C1121605   5.341   6.256  13.499 -0.0490 -0.3229  0.1529
  177DOPC  H11A21606   5.263   6.213  13.565 -0.5834  0.0284 -0.2429
  177DOPC  H11B21607   5.437   6.269  13.553  0.1897 -2.0871  0.1969
  177DOPC     P21608   5.150   6.391  13.373  0.3520  0.1568  0.1664
  177DOPC   O1321609   5.119   6.282  13.276 -0.1440  0.7182  0.5142
  177DOPC   O1421610   5.125   6.523  13.312 -0.1686 -0.3737 -0.5499
  177DOPC   O1221611   5.301   6.386  13.445  0.0125 -0.6515  1.2419
  177DOPC   O1121612   5.057   6.376  13.493 -0.8153 -0.0200  0.0977
  177DOPC    C121613   5.092   6.438  13.622  0.1496 -0.4070 -0.6663
  177DOPC    HA21614   5.133   6.539  13.604  0.7491 -0.4133  0.5652
  177DOPC    HB21615   5.179   6.389  13.670  0.6755  1.4846  0.4092
  177DOPC    C221616   4.969   6.455  13.719  0.0183 -0.0595 -0.3166
  177DOPC    HS21617   4.992   6.502  13.817 -1.5036  2.4847 -1.0946
  177DOPC   O2121618   4.900   6.327  13.731  0.0899  0.3105 -0.8898
  177DOPC   C2121619   4.969   6.238  13.795  0.3872 -0.1486  0.5267
  177DOPC   O2221620   5.066   6.257  13.868  0.3644 -0.2465  0.6360
  177DOPC   C2221621   4.904   6.096  13.777 -0.0984  0.3913 -0.2911
  177DOPC   H2R21622   4.879   6.091  13.669 -0.3341  1.8625 -0.3262
  177DOPC   H2S21623   4.811   6.103  13.837  0.3093  0.1333  0.3720
  177DOPC    C321624   4.878   6.563  13.653  0.2003 -0.4634  0.1907
  177DOPC    HX21625   4.777   6.581  13.696 -0.2463 -1.7651 -0.2602
  177DOPC    HY21626   4.864   6.535  13.546  0.9556  0.6741 -0.2170
  177DOPC   O3121627   4.954   6.686  13.662 -0.2112 -0.0986 -0.1808
  177DOPC   C3121628   4.973   6.754  13.554  0.1108  0.8289  0.1783
  177DOPC   O3221629   4.909   6.738  13.452  0.1884 -0.7171  0.4387
  177DOPC   C3221630   5.091   6.846  13.572 -0.1003  0.2714  0.5918
  177DOPC   H2X21631   5.169   6.786  13.623  1.8452 -0.4812 -2.9696
  177DOPC   H2Y21632   5.126   6.873  13.470 -0.8798  1.7284  0.6794
  177DOPC   C2321633   5.001   5.981  13.827 -0.2944 -0.1665  0.1234
  177DOPC   H3R21634   5.042   6.006  13.927 -0.3794 -2.7678  0.8709
  177DOPC   H3S21635   5.090   5.991  13.762  0.3411  1.4756  1.1793
  177DOPC   C2421636   4.938   5.846  13.826  0.6082 -0.8813  0.2333
  177DOPC   H4R21637   4.905   5.831  13.721 -0.7109 -0.0514  0.5064
  177DOPC   H4S21638   4.839   5.855  13.876  0.9923  0.3911  0.7987
  177DOPC   C2521639   5.019   5.730  13.886  0.0941 -0.8911  0.0102
  177DOPC   H5R21640   5.115   5.705  13.836  0.4284 -3.4503  1.7618
  177DOPC   H5S21641   4.959   5.638  13.875  0.2152 -0.6767 -3.2198
  177DOPC   C2621642   5.029   5.749  14.037 -0.5478  0.5959  0.0701
  177DOPC   H6R21643   4.929   5.762  14.083  0.2295 -0.6083  2.2780
  177DOPC   H6S21644   5.084   5.842  14.063 -0.9223  2.1203 -3.8640
  177DOPC   C2721645   5.102   5.633  14.102  0.6341 -0.2066 -0.3360
  177DOPC   H7R21646   5.210   5.646  14.081  0.6423  1.8625  0.7287
  177DOPC   H7S21647   5.081   5.534  14.055  1.7200  0.1994 -1.7461
  177DOPC   C2821648   5.078   5.614  14.257 -0.4288 -0.0034 -0.1571
  177DOPC   H8R21649   4.973   5.592  14.284  0.3022 -0.9987  2.0747
  177DOPC   H8S21650   5.097   5.714  14.302 -0.2949  0.0113 -0.2447
  177DOPC   C2921651   5.173   5.519  14.319 -0.3472 -0.0464  0.0402
  177DOPC   H9R21652   5.279   5.525  14.292 -0.5359  1.9208 -0.3566
  177DOPC  C21021653   5.147   5.435  14.420  0.0081  0.1686 -0.2010
  177DOPC  H10R21654   5.229   5.371  14.454 -0.9553 -0.0741  1.8468
  177DOPC  C21121655   5.013   5.426  14.496  0.0103  0.3436 -0.5179
  177DOPC  H11R21656   4.992   5.318  14.510 -1.6555  0.5363 -1.2068
  177DOPC  H11S21657   4.928   5.470  14.439 -1.8729 -0.8227  1.2606
  177DOPC  C21221658   5.019   5.495  14.624 -0.0946  0.0113 -0.5719
  177DOPC  H12R21659   5.015   5.605  14.605  4.1474  0.5389  0.4294
  177DOPC  H12S21660   5.107   5.478  14.689  0.0859  0.4157 -0.7035
  177DOPC  C21321661   4.906   5.452  14.720 -1.0480 -0.6220 -0.1515
  177DOPC  H13R21662   4.949   5.471  14.821  1.1062  1.1980 -1.3086
  177DOPC  H13S21663   4.893   5.341  14.716  1.3800 -1.0264  1.0343
  177DOPC  C21421664   4.771   5.527  14.699 -0.5168  0.7566  0.6558
  177DOPC  H14R21665   4.738   5.509  14.595 -1.6007 -2.1135  1.4124
  177DOPC  H14S21666   4.790   5.637  14.708 -0.6782  0.7463  1.1293
  177DOPC  C21521667   4.649   5.497  14.789  1.0048  0.3323  0.0812
  177DOPC  H15R21668   4.683   5.519  14.893  1.7162 -1.5625  0.2899
  177DOPC  H15S21669   4.611   5.393  14.781 -1.4192  0.8275  3.2380
  177DOPC  C21621670   4.533   5.590  14.765 -0.3951 -0.5470 -0.1349
  177DOPC  H16R21671   4.496   5.583  14.660  2.0308  0.4069 -1.1320
  177DOPC  H16S21672   4.573   5.694  14.771 -1.0791 -0.3139  0.4317
  177DOPC  C21721673   4.429   5.575  14.875 -1.1885 -0.4171  0.0771
  177DOPC  H17R21674   4.481   5.594  14.971 -0.2985  1.4482 -0.7287
  177DOPC  H17S21675   4.381   5.475  14.866 -0.7817 -0.6175  0.1297
  177DOPC  C21821676   4.325   5.682  14.859  0.0210 -0.4134  0.2288
  177DOPC  H18R21677   4.373   5.782  14.862 -0.8278  0.0633 -1.2056
  177DOPC  H18S21678   4.242   5.682  14.933  0.4452  0.0425  0.7102
  177DOPC  H18T21679   4.267   5.663  14.766  1.6936  0.0601 -0.9481
  177DOPC   C3321680   5.067   6.979  13.649  0.2255  0.1195  0.4494
  177DOPC   H3X21681   5.004   6.962  13.738  1.6202 -0.5402  1.3504
  177DOPC   H3Y21682   5.017   7.057  13.587 -0.1711 -0.8814 -0.5314
  177DOPC   C3421683   5.186   7.043  13.712  0.0015 -0.3534 -1.1218
  177DOPC   H4X21684   5.257   7.077  13.634 -0.6786  0.1074 -1.5533
  177DOPC   H4Y21685   5.229   6.983  13.796 -1.7259 -0.5795 -0.3519
  177DOPC   C3521686   5.161   7.180  13.789 -0.3545 -0.2540  0.1216
  177DOPC   H5X21687   5.080   7.237  13.738  0.0472 -0.6931 -1.0257
  177DOPC   H5Y21688   5.251   7.245  13.781 -0.4018  0.2332  2.6898
  177DOPC   C3621689   5.131   7.170  13.938 -0.0481  0.5207  0.4137
  177DOPC   H6X21690   5.038   7.116  13.965 -0.5821  0.1081 -1.9872
  177DOPC   H6Y21691   5.222   7.117  13.973  1.9153  2.3478 -1.5999
  177DOPC   C3721692   5.126   7.311  14.001  0.0105 -0.0651 -0.0768
  177DOPC   H7X21693   5.219   7.368  13.979 -1.1660  1.7656 -0.6084
  177DOPC   H7Y21694   5.039   7.371  13.965 -0.7265  0.1137  1.8684
  177DOPC   C3821695   5.109   7.297  14.156  0.1219 -0.1734 -0.5616
  177DOPC   H8X21696   5.163   7.206  14.191 -1.7452 -1.0070  0.3210
  177DOPC   H8Y21697   5.004   7.266  14.177  0.0011  0.5069 -0.1305
  177DOPC   C3921698   5.145   7.422  14.228 -0.2131  0.4202 -0.4276
  177DOPC   H9X21699   5.248   7.459  14.217 -0.6582  1.8592  0.0939
  177DOPC  C31021700   5.065   7.505  14.301 -1.4097  0.2975 -0.2358
  177DOPC  H10X21701   5.109   7.588  14.358 -3.6552  0.5263  1.2618
  177DOPC  C31121702   4.920   7.480  14.333  0.0832 -0.3118  0.3174
  177DOPC  H11X21703   4.884   7.382  14.294  2.2140 -1.9622  2.2744
  177DOPC  H11Y21704   4.860   7.557  14.278 -0.3868 -2.3252 -2.1893
  177DOPC  C31221705   4.897   7.471  14.484 -0.0260  0.1646 -0.3801
  177DOPC  H12X21706   4.787   7.471  14.500  0.4361  1.2470  3.9408
  177DOPC  H12Y21707   4.937   7.565  14.527 -1.6480  1.1558 -0.9649
  177DOPC  C31321708   4.960   7.344  14.555  0.2258 -0.3381  0.0179
  177DOPC  H13X21709   4.907   7.260  14.505 -1.6603  1.4716 -1.1494
  177DOPC  H13Y21710   5.071   7.341  14.560  0.2593  0.9295  0.4021
  177DOPC  C31421711   4.922   7.337  14.704  0.1234  0.0401 -0.2954
  177DOPC  H14X21712   4.987   7.406  14.763 -0.5757 -1.6288  2.6823
  177DOPC  H14Y21713   4.815   7.366  14.711  0.2016  0.2456  0.1227
  177DOPC  C31521714   4.931   7.198  14.774  0.3987 -0.3749 -0.4706
  177DOPC  H15X21715   4.917   7.221  14.882 -0.1291 -3.2046  0.1461
  177DOPC  H15Y21716   5.032   7.155  14.764  0.0219 -1.1496 -1.0050
  177DOPC  C31621717   4.820   7.099  14.725 -0.0328  0.9170 -0.4708
  177DOPC  H16X21718   4.720   7.147  14.731 -1.0772 -1.1683 -0.6300
  177DOPC  H16Y21719   4.837   7.074  14.619  1.9414  1.7264 -0.3928
  177DOPC  C31721720   4.833   6.964  14.804  0.5316 -0.5701  0.9191
  177DOPC  H17X21721   4.779   6.881  14.754  0.4676 -0.9562  1.6162
  177DOPC  H17Y21722   4.941   6.938  14.813  0.8754 -0.1814 -1.5782
  177DOPC  C31821723   4.778   6.978  14.948  0.3036  0.2918 -0.1523
  177DOPC  H18X21724   4.779   6.880  14.999  2.3482  1.3886  2.1402
  177DOPC  H18Y21725   4.829   7.050  15.016  0.0701 -1.1861  1.6614
  177DOPC  H18Z21726   4.676   7.023  14.938  0.1374  0.4774  1.8767
  178DOPC     N21727   3.432   5.150  13.031  0.0798 -0.2357  0.0410
  178DOPC   C1221728   3.395   5.182  13.177  1.0311 -0.4083 -0.5267
  178DOPC  H12A21729   3.323   5.116  13.224 -0.1244  2.1269  1.5513
  178DOPC  H12B21730   3.361   5.284  13.177 -0.1161 -0.6632  2.7018
  178DOPC   C1321731   3.524   5.249  12.966 -0.0960  0.4384  0.1020
  178DOPC  H13A21732   3.622   5.263  13.008 -0.1694 -0.1612  0.4905
  178DOPC  H13B21733   3.532   5.233  12.859  1.3180  3.5911 -0.3758
  178DOPC  H13C21734   3.478   5.346  12.965 -2.4805 -0.5975  1.5604
  178DOPC   C1421735   3.312   5.152  12.946  0.3454 -0.0936 -0.3091
  178DOPC  H14A21736   3.226   5.133  13.008  1.4004 -1.0663  0.9038
  178DOPC  H14B21737   3.298   5.252  12.907 -0.7973 -0.7411 -1.6773
  178DOPC  H14C21738   3.323   5.088  12.860 -1.4182  0.1536 -0.7607
  178DOPC   C1521739   3.501   5.011  13.023 -0.0366 -0.9660  0.6798
  178DOPC  H15A21740   3.520   4.995  12.918 -1.1574 -2.9082  0.7314
  178DOPC  H15B21741   3.429   4.936  13.050 -0.3924 -0.3574  1.4625
  178DOPC  H15C21742   3.587   5.014  13.088 -0.7103 -2.0535  1.6447
  178DOPC   C1121743   3.507   5.200  13.287 -0.7287 -0.0263  0.6106
  178DOPC  H11A21744   3.465   5.193  13.389  0.1034 -1.4435  0.8809
  178DOPC  H11B21745   3.573   5.111  13.279  1.1643  1.3481  0.4616
  178DOPC     P21746   3.555   5.465  13.269 -0.1456 -0.0702  0.4401
  178DOPC   O1321747   3.407   5.480  13.262  0.4765  0.3212 -0.7409
  178DOPC   O1421748   3.631   5.534  13.165 -0.1170  0.0146  0.1121
  178DOPC   O1221749   3.593   5.313  13.265 -0.3949 -0.1517 -0.2021
  178DOPC   O1121750   3.593   5.520  13.421  0.6656 -0.6073 -0.3947
  178DOPC    C121751   3.695   5.455  13.494 -0.4228 -0.3135 -0.0039
  178DOPC    HA21752   3.774   5.414  13.428 -2.5615 -1.3824 -2.0520
  178DOPC    HB21753   3.659   5.367  13.551  1.5899 -0.9183  0.4185
  178DOPC    C221754   3.746   5.552  13.602 -0.4659 -0.6540  0.3095
  178DOPC    HS21755   3.834   5.506  13.653  0.9654  0.6590 -0.8846
  178DOPC   O2121756   3.640   5.592  13.690 -0.2913 -0.3089 -0.0897
  178DOPC   C2121757   3.623   5.502  13.786 -0.0903  0.2430  0.3697
  178DOPC   O2221758   3.686   5.402  13.806 -0.4408 -0.1668  0.1585
  178DOPC   C2221759   3.494   5.540  13.855  0.6105  0.0438  0.1901
  178DOPC   H2R21760   3.425   5.576  13.777 -0.2771  0.4219  1.1322
  178DOPC   H2S21761   3.513   5.625  13.924  1.6261  0.9296 -1.1332
  178DOPC    C321762   3.803   5.692  13.546 -0.0833 -0.3369 -0.1116
  178DOPC    HX21763   3.713   5.745  13.506  0.1500  0.6944  0.6928
  178DOPC    HY21764   3.872   5.672  13.461 -1.2933  0.0787 -1.2361
  178DOPC   O3121765   3.859   5.772  13.653  0.0564  0.3458 -0.1245
  178DOPC   C3121766   3.986   5.755  13.687 -0.4670  0.3721  0.0109
  178DOPC   O3221767   4.064   5.668  13.648  0.4909  0.1634 -0.7288
  178DOPC   C3221768   4.021   5.864  13.792 -0.1991 -1.3667 -0.0024
  178DOPC   H2X21769   4.112   5.831  13.847  0.4966  0.5591  0.0713
  178DOPC   H2Y21770   4.041   5.951  13.727 -0.1511 -0.6287  0.9810
  178DOPC   C2321771   3.429   5.422  13.925  0.0794  0.2574 -0.8786
  178DOPC   H3R21772   3.491   5.382  14.008 -2.4245 -1.2007  0.4085
  178DOPC   H3S21773   3.393   5.341  13.857  0.8125 -0.5599 -0.3224
  178DOPC   C2421774   3.296   5.462  13.997  0.6203 -0.3762 -0.2193
  178DOPC   H4R21775   3.304   5.552  14.061  2.4840  0.0810 -1.0217
  178DOPC   H4S21776   3.279   5.376  14.065 -0.8818  0.6391  0.7568
  178DOPC   C2521777   3.169   5.460  13.913 -0.6384  0.9254  0.2665
  178DOPC   H5R21778   3.162   5.373  13.844 -1.4272 -0.2727  1.7983
  178DOPC   H5S21779   3.161   5.550  13.848 -0.7821  1.2579  0.7390
  178DOPC   C2621780   3.045   5.454  14.001 -0.2717  0.8675 -0.1813
  178DOPC   H6R21781   3.041   5.548  14.060  0.0945  0.8444 -0.1136
  178DOPC   H6S21782   3.055   5.361  14.062 -0.7043 -0.6034 -2.2391
  178DOPC   C2721783   2.913   5.464  13.924  0.0768 -0.4570 -0.2973
  178DOPC   H7R21784   2.912   5.385  13.846 -2.1203  1.2640 -2.1786
  178DOPC   H7S21785   2.928   5.553  13.859 -0.4922 -0.2424 -0.1431
  178DOPC   C2821786   2.791   5.472  14.012 -0.0530  0.4570 -0.0393
  178DOPC   H8R21787   2.796   5.525  14.109 -2.4320  1.7341 -0.5485
  178DOPC   H8S21788   2.769   5.364  14.026  1.9106  0.1495  1.1624
  178DOPC   C2921789   2.680   5.531  13.936  0.4065  0.5626 -0.3674
  178DOPC   H9R21790   2.677   5.489  13.834  1.1920 -0.9991  0.2183
  178DOPC  C21021791   2.597   5.630  13.978 -0.2012  0.1785 -0.4596
  178DOPC  H10R21792   2.509   5.655  13.917 -1.5166 -2.3707  0.2297
  178DOPC  C21121793   2.599   5.699  14.109  0.6213 -0.6358  0.0405
  178DOPC  H11R21794   2.557   5.802  14.101 -0.1224 -0.8541  1.0433
  178DOPC  H11S21795   2.700   5.711  14.153 -0.1397  0.7855  1.5168
  178DOPC  C21221796   2.524   5.630  14.227  0.5603 -0.5712  0.9794
  178DOPC  H12R21797   2.549   5.524  14.245 -0.7836 -0.9892  0.4721
  178DOPC  H12S21798   2.419   5.615  14.194  0.4128  1.0803  0.5910
  178DOPC  C21321799   2.515   5.720  14.344  0.0087  0.2563 -0.4506
  178DOPC  H13R21800   2.499   5.827  14.317 -0.4084  1.2313  3.1254
  178DOPC  H13S21801   2.619   5.724  14.384  0.8307 -3.4906 -1.8764
  178DOPC  C21421802   2.414   5.678  14.457  0.1585  0.3644  0.0193
  178DOPC  H14R21803   2.431   5.733  14.552 -3.3091 -2.2963  2.4141
  178DOPC  H14S21804   2.432   5.569  14.463  0.6481  0.1860 -2.8748
  178DOPC  C21521805   2.268   5.710  14.418  1.3181 -0.0203 -0.0608
  178DOPC  H15R21806   2.241   5.667  14.319  1.2273 -1.2218  0.4804
  178DOPC  H15S21807   2.249   5.819  14.406 -2.8012 -0.5972 -0.4235
  178DOPC  C21621808   2.168   5.662  14.526 -0.2146 -1.0573  0.1465
  178DOPC  H16R21809   2.180   5.553  14.548  0.5371 -1.3628 -1.5505
  178DOPC  H16S21810   2.082   5.688  14.460  1.8279  0.3050 -2.1254
  178DOPC  C21721811   2.160   5.747  14.655 -0.0104 -0.7072  0.7813
  178DOPC  H17R21812   2.060   5.729  14.701 -0.2694 -0.0915  0.4791
  178DOPC  H17S21813   2.154   5.855  14.630 -0.1546 -0.2862  2.4933
  178DOPC  C21821814   2.261   5.729  14.766  0.0453 -0.0662 -0.3337
  178DOPC  H18R21815   2.230   5.768  14.865  0.2232 -0.9772  0.0931
  178DOPC  H18S21816   2.351   5.787  14.738  0.1430 -0.0929 -0.0685
  178DOPC  H18T21817   2.295   5.625  14.783 -1.9423 -0.4362  2.0026
  178DOPC   C3321818   3.905   5.890  13.893 -0.5159 -0.5587  0.4760
  178DOPC   H3X21819   3.817   5.923  13.833  0.0739  0.1599 -0.0055
  178DOPC   H3Y21820   3.932   5.979  13.954  0.7610  1.0482 -2.2429
  178DOPC   C3421821   3.860   5.763  13.975 -0.1859  0.2508  0.1621
  178DOPC   H4X21822   3.842   5.676  13.908  1.9399 -0.5573  0.5475
  178DOPC   H4Y21823   3.762   5.787  14.021  0.5071  1.6730  0.9604
  178DOPC   C3521824   3.966   5.715  14.073  0.0695 -0.1107  0.1939
  178DOPC   H5X21825   4.020   5.799  14.123  0.6250 -0.1524 -0.3262
  178DOPC   H5Y21826   4.040   5.658  14.014  0.1645 -0.6969  0.8615
  178DOPC   C3621827   3.912   5.617  14.181  0.0440 -0.9047 -0.1743
  178DOPC   H6X21828   3.820   5.655  14.229  0.4997  2.1053 -1.4585
  178DOPC   H6Y21829   3.874   5.523  14.135 -1.5095 -0.0232 -0.7439
  178DOPC   C3721830   4.009   5.595  14.296 -0.6804  0.4135  0.1669
  178DOPC   H7X21831   4.038   5.488  14.295 -0.1110  0.4202  3.3477
  178DOPC   H7Y21832   4.105   5.649  14.280  1.5527 -2.8271  1.3753
  178DOPC   C3821833   3.969   5.626  14.441 -0.0877  0.4010 -0.0079
  178DOPC   H8X21834   4.057   5.609  14.507 -0.1502 -0.0181 -0.0317
  178DOPC   H8Y21835   3.897   5.546  14.468  1.5383 -2.2465 -2.8449
  178DOPC   C3921836   3.910   5.759  14.456  0.1057  0.8432 -0.1280
  178DOPC   H9X21837   3.809   5.776  14.416  0.2638  1.5190 -0.2612
  178DOPC  C31021838   3.974   5.879  14.490 -0.7492 -0.0494 -0.3531
  178DOPC  H10X21839   3.923   5.977  14.491 -1.6993 -0.5180  1.2884
  178DOPC  C31121840   4.123   5.889  14.521 -0.3944 -0.5657 -0.6192
  178DOPC  H11X21841   4.172   5.791  14.500 -1.1905 -1.1041 -0.0713
  178DOPC  H11Y21842   4.127   5.911  14.630 -0.1355 -0.6203 -0.6181
  178DOPC  C31221843   4.179   5.999  14.438  0.3214 -0.3818 -0.4733
  178DOPC  H12X21844   4.132   6.098  14.459  0.0205 -0.1425 -2.1249
  178DOPC  H12Y21845   4.166   5.979  14.329  1.4222  1.7845 -1.0626
  178DOPC  C31321846   4.328   6.024  14.457 -0.0675  0.1935  0.3901
  178DOPC  H13X21847   4.363   6.100  14.385  0.7470 -0.6891 -0.1735
  178DOPC  H13Y21848   4.341   6.053  14.564 -0.0354 -0.5088  0.5823
  178DOPC  C31421849   4.413   5.899  14.425 -1.2712 -0.1534  0.1151
  178DOPC  H14X21850   4.387   5.823  14.502  3.8063 -0.0959  2.3157
  178DOPC  H14Y21851   4.392   5.865  14.321  1.9093 -1.9431 -0.0902
  178DOPC  C31521852   4.562   5.936  14.425  1.4389  0.5351  0.2806
  178DOPC  H15X21853   4.576   5.977  14.527 -1.1855 -1.3708  1.5483
  178DOPC  H15Y21854   4.577   6.021  14.356 -1.0871  1.7253  1.0634
  178DOPC  C31621855   4.650   5.809  14.401  0.2374  0.4034  0.0279
  178DOPC  H16X21856   4.604   5.727  14.460 -1.1681  0.9714 -0.2486
  178DOPC  H16Y21857   4.649   5.769  14.297  3.0765 -0.4140  0.2282
  178DOPC  C31721858   4.793   5.821  14.440  0.0049 -0.2081  0.1858
  178DOPC  H17X21859   4.801   5.856  14.545  1.2290  0.9546 -0.2593
  178DOPC  H17Y21860   4.844   5.727  14.411 -3.7142 -1.8905 -1.5157
  178DOPC  C31821861   4.870   5.928  14.360 -0.6800  0.4191  0.1042
  178DOPC  H18X21862   4.981   5.922  14.369 -0.5791  0.9189 -0.7825
  178DOPC  H18Y21863   4.842   5.914  14.254 -1.6441  2.1250  0.1014
  178DOPC  H18Z21864   4.840   6.028  14.397 -1.2395  0.2964 -0.0185
  179DOPC     N21865   6.479   6.606  12.971  0.2180 -0.1907  0.1424
  179DOPC   C1221866   6.350   6.526  12.943  1.2001 -0.2641 -0.4049
  179DOPC  H12A21867   6.363   6.421  12.966 -0.6320 -0.0422  1.9613
  179DOPC  H12B21868   6.339   6.524  12.835  0.7503 -1.2957 -0.3543
  179DOPC   C1321869   6.587   6.552  12.881 -0.2311 -0.2867 -0.4336
  179DOPC  H13A21870   6.617   6.451  12.907 -1.9476 -1.0098 -1.1602
  179DOPC  H13B21871   6.558   6.565  12.778  0.7101 -1.8729 -0.9388
  179DOPC  H13C21872   6.675   6.614  12.890 -0.4858 -0.1482  1.3727
  179DOPC   C1421873   6.524   6.593  13.111 -0.1976 -0.3332 -0.2515
  179DOPC  H14A21874   6.452   6.642  13.175 -0.8488 -3.4104  1.5742
  179DOPC  H14B21875   6.547   6.495  13.150  0.3547  0.1217  0.6205
  179DOPC  H14C21876   6.614   6.648  13.135 -1.2915  1.3477  0.2023
  179DOPC   C1521877   6.454   6.745  12.937  0.3352 -0.5700 -0.4274
  179DOPC  H15A21878   6.536   6.807  12.973 -1.3193  1.2098  0.5012
  179DOPC  H15B21879   6.363   6.789  12.974  1.3572  2.2937 -0.9775
  179DOPC  H15C21880   6.442   6.770  12.833 -0.8543 -1.6675 -0.5746
  179DOPC   C1121881   6.217   6.563  13.014 -0.3039  0.9371 -0.1513
  179DOPC  H11A21882   6.191   6.662  12.970 -0.8091  0.0940 -1.8517
  179DOPC  H11B21883   6.138   6.494  12.977  0.5278  0.0208 -0.2564
  179DOPC     P21884   6.213   6.434  13.248 -0.0516  0.2412 -0.2080
  179DOPC   O1321885   6.306   6.332  13.204  0.6721  0.2452  0.0810
  179DOPC   O1421886   6.069   6.398  13.251 -0.1296 -0.4631  0.0480
  179DOPC   O1221887   6.233   6.561  13.154 -0.3466 -0.1629  1.2097
  179DOPC   O1121888   6.246   6.491  13.388 -0.0429 -0.2909 -0.0898
  179DOPC    C121889   6.267   6.399  13.496  0.3565 -0.1465 -0.7946
  179DOPC    HA21890   6.324   6.450  13.577 -1.4099  1.5868 -0.5627
  179DOPC    HB21891   6.316   6.302  13.471  0.5576 -0.2483 -0.0310
  179DOPC    C221892   6.134   6.365  13.562  0.2579 -0.5334 -0.2886
  179DOPC    HS21893   6.078   6.323  13.475 -0.9340  1.2859 -0.4671
  179DOPC   O2121894   6.083   6.483  13.618 -0.1315  0.1417  0.2219
  179DOPC   C2121895   5.950   6.485  13.620 -0.1186  0.2227 -0.0191
  179DOPC   O2221896   5.877   6.404  13.565  0.6190 -0.1539  0.2036
  179DOPC   C2221897   5.894   6.606  13.686  0.3111  0.5696  0.3258
  179DOPC   H2R21898   5.790   6.617  13.647  1.0237  0.1685 -1.8345
  179DOPC   H2S21899   5.950   6.694  13.647  0.4150 -0.3685 -1.7819
  179DOPC    C321900   6.144   6.270  13.682  0.1100 -0.0114 -0.1642
  179DOPC    HX21901   6.043   6.251  13.723  0.8572  1.7258  2.7517
  179DOPC    HY21902   6.190   6.328  13.764  1.7249 -0.2364 -0.8632
  179DOPC   O3121903   6.231   6.164  13.652  0.8047 -0.6246 -1.0426
  179DOPC   C3121904   6.170   6.042  13.643  0.0306  0.1982  0.0483
  179DOPC   O3221905   6.052   6.027  13.656  0.3378 -0.0727 -0.7751
  179DOPC   C3221906   6.275   5.941  13.598  0.2198  0.0867 -0.0351
  179DOPC   H2X21907   6.318   5.977  13.502  0.1866 -0.9583 -0.4570
  179DOPC   H2Y21908   6.358   5.944  13.672  0.3181  0.6292 -0.1626
  179DOPC   C2321909   5.893   6.596  13.838 -0.0783  1.1607  0.2912
  179DOPC   H3R21910   5.858   6.495  13.868 -0.3966  0.8926 -0.9285
  179DOPC   H3S21911   5.822   6.675  13.869 -0.6179  1.0144 -0.5381
  179DOPC   C2421912   6.029   6.622  13.901  0.5077  0.5379 -0.8789
  179DOPC   H4R21913   6.091   6.698  13.849  2.2018  1.5039  2.2967
  179DOPC   H4S21914   6.081   6.524  13.903  0.4503  0.4951 -1.4191
  179DOPC   C2521915   6.018   6.660  14.053 -0.4066  0.0967  1.4047
  179DOPC   H5R21916   5.952   6.585  14.101  1.0441 -2.7955 -0.8043
  179DOPC   H5S21917   5.972   6.761  14.061 -0.5344  0.0878  0.8351
  179DOPC   C2621918   6.150   6.677  14.123  0.0709  0.8170 -0.6193
  179DOPC   H6R21919   6.194   6.758  14.061 -0.0225 -0.2224 -2.0803
  179DOPC   H6S21920   6.212   6.585  14.122  1.1576  1.5422 -0.6415
  179DOPC   C2721921   6.126   6.723  14.270 -0.0181  0.4787 -0.3867
  179DOPC   H7R21922   6.081   6.635  14.322  0.8587 -0.4519 -1.1611
  179DOPC   H7S21923   6.046   6.800  14.272 -2.2239 -1.6712  1.8544
  179DOPC   C2821924   6.247   6.764  14.352 -0.0888 -0.1900 -0.6034
  179DOPC   H8R21925   6.224   6.803  14.454 -0.5265 -0.6210 -0.5342
  179DOPC   H8S21926   6.299   6.846  14.298  0.8927  0.7515  1.6469
  179DOPC   C2921927   6.338   6.641  14.369  0.0496 -0.3992 -0.2288
  179DOPC   H9R21928   6.406   6.623  14.285  0.0449 -0.3117 -0.2515
  179DOPC  C21021929   6.330   6.548  14.461 -0.3484  0.6261  0.1085
  179DOPC  H10R21930   6.402   6.465  14.462  1.4588  2.1104  0.9444
  179DOPC  C21121931   6.225   6.554  14.569  0.6436  0.6086 -0.0182
  179DOPC  H11R21932   6.184   6.456  14.600  0.9545  0.7275  0.7804
  179DOPC  H11S21933   6.138   6.607  14.524 -0.5866 -1.5623 -0.3556
  179DOPC  C21221934   6.256   6.633  14.702  0.4615  0.1251  0.3876
  179DOPC  H12R21935   6.162   6.670  14.748  1.4178  1.3073  1.4738
  179DOPC  H12S21936   6.317   6.722  14.674  1.7238 -1.3425 -1.8128
  179DOPC  C21321937   6.341   6.554  14.803  0.4574 -0.2332 -0.1954
  179DOPC  H13R21938   6.442   6.539  14.760  1.2552  1.3026  1.0461
  179DOPC  H13S21939   6.283   6.459  14.808  1.1246 -0.7139 -1.1182
  179DOPC  C21421940   6.352   6.616  14.940  0.0530  0.7419 -0.7717
  179DOPC  H14R21941   6.249   6.646  14.969 -0.1401  1.1724 -1.8669
  179DOPC  H14S21942   6.414   6.708  14.946  1.4595 -0.2383  0.6120
  179DOPC  C21521943   6.413   6.506  15.040 -0.1477  0.2272  0.1076
  179DOPC  H15R21944   6.346   6.418  15.050  2.8874 -2.2127  0.5767
  179DOPC  H15S21945   6.409   6.560  15.137  0.0722 -0.4351  0.4960
  179DOPC  C21621946   6.545   6.451  15.002 -0.6104  0.4897  0.2320
  179DOPC  H16R21947   6.621   6.520  14.958  3.4127 -3.2850  0.5589
  179DOPC  H16S21948   6.531   6.389  14.911  2.5476  0.0720 -0.0972
  179DOPC  C21721949   6.609   6.360  15.109 -0.7594  0.5622 -0.5326
  179DOPC  H17R21950   6.537   6.287  15.152 -0.6373  0.6167 -0.2275
  179DOPC  H17S21951   6.646   6.413  15.200 -0.9607  0.0332 -0.1348
  179DOPC  C21821952   6.726   6.276  15.054 -0.2206  0.1678  0.5548
  179DOPC  H18R21953   6.809   6.344  15.029 -0.6609  0.2166 -0.8372
  179DOPC  H18S21954   6.697   6.230  14.957 -1.1656  0.3913  0.7237
  179DOPC  H18T21955   6.763   6.195  15.121 -1.0143  0.3112  1.1821
  179DOPC   C3321956   6.218   5.800  13.582  0.0958 -0.5052 -0.2794
  179DOPC   H3X21957   6.293   5.740  13.526 -1.3507 -0.9597 -1.7907
  179DOPC   H3Y21958   6.131   5.799  13.514 -0.7376  1.8089  0.6602
  179DOPC   C3421959   6.185   5.729  13.711  0.2738 -1.2716 -0.4780
  179DOPC   H4X21960   6.118   5.642  13.697  1.3005 -1.9377 -1.3970
  179DOPC   H4Y21961   6.142   5.801  13.785 -1.0895  0.8618 -3.1778
  179DOPC   C3521962   6.306   5.653  13.768 -0.6037 -0.3451 -0.4726
  179DOPC   H5X21963   6.405   5.700  13.754 -0.6912 -0.9317 -3.6211
  179DOPC   H5Y21964   6.319   5.563  13.704  0.2070  0.3334 -1.2831
  179DOPC   C3621965   6.283   5.598  13.909  0.3514  0.0971 -0.4965
  179DOPC   H6X21966   6.183   5.556  13.931  1.2926 -0.4378  3.4891
  179DOPC   H6Y21967   6.362   5.524  13.934 -0.5197 -0.6161  0.2268
  179DOPC   C3721968   6.297   5.710  14.017  0.0250 -0.3153  0.3608
  179DOPC   H7X21969   6.401   5.746  14.010 -0.1978  0.1079 -0.9428
  179DOPC   H7Y21970   6.226   5.791  13.990  1.2125  0.5329 -0.2567
  179DOPC   C3821971   6.273   5.666  14.162  0.6287 -0.4470  0.2817
  179DOPC   H8X21972   6.315   5.752  14.220  1.7278  0.0462 -1.1929
  179DOPC   H8Y21973   6.331   5.574  14.184 -1.5832 -1.8340  0.6415
  179DOPC   C3921974   6.125   5.632  14.185  0.7156 -0.5950  0.0336
  179DOPC   H9X21975   6.091   5.551  14.119  1.2282 -0.2302 -0.6919
  179DOPC  C31021976   6.034   5.692  14.266 -0.4040  0.0013 -0.3259
  179DOPC  H10X21977   5.932   5.651  14.261 -0.3916  0.0319 -0.7939
  179DOPC  C31121978   6.065   5.808  14.355 -0.2386  0.1289  0.4490
  179DOPC  H11X21979   5.971   5.864  14.372 -0.6840 -0.0515 -1.2019
  179DOPC  H11Y21980   6.130   5.878  14.297 -3.0359  0.8738 -2.0032
  179DOPC  C31221981   6.136   5.762  14.486 -0.0370  0.0130  0.4802
  179DOPC  H12X21982   6.239   5.725  14.466 -0.5091 -1.8232  1.2612
  179DOPC  H12Y21983   6.076   5.703  14.558 -2.2615  0.5959 -0.8143
  179DOPC  C31321984   6.183   5.877  14.580 -0.0592 -0.1469 -0.8731
  179DOPC  H13X21985   6.087   5.931  14.590  0.0985 -0.0942  0.6420
  179DOPC  H13Y21986   6.219   5.841  14.679  1.0065  2.0366 -0.3952
  179DOPC  C31421987   6.295   5.957  14.518  0.0586 -0.6969 -0.1789
  179DOPC  H14X21988   6.383   5.890  14.536 -0.8648 -1.2158  3.0395
  179DOPC  H14Y21989   6.292   5.971  14.408 -2.8046 -1.9728 -0.3626
  179DOPC  C31521990   6.298   6.093  14.588  0.2430  0.4430  0.0995
  179DOPC  H15X21991   6.288   6.070  14.696  2.5728 -0.9048  0.1062
  179DOPC  H15Y21992   6.210   6.150  14.551  0.0659  0.1986  0.1442
  179DOPC  C31621993   6.413   6.187  14.555 -0.0113 -0.5906  0.6544
  179DOPC  H16X21994   6.416   6.205  14.446 -0.9888 -1.0842  0.5384
  179DOPC  H16Y21995   6.388   6.277  14.615 -1.3346 -2.0927  2.4662
  179DOPC  C31721996   6.554   6.135  14.585  0.5320  0.5673  0.0025
  179DOPC  H17X21997   6.553   6.085  14.684 -0.3244  2.3866  0.9745
  179DOPC  H17Y21998   6.586   6.059  14.511  3.1870  2.4123 -0.9087
  179DOPC  C31821999   6.664   6.246  14.573  0.3200  0.1292 -0.1082
  179DOPC  H18X22000   6.761   6.191  14.578  1.0345  1.4163  0.9104
  179DOPC  H18Y22001   6.660   6.291  14.472 -0.4104 -1.1363 -0.6708
  179DOPC  H18Z22002   6.660   6.322  14.654  0.4590  0.8921 -0.8143
  180DOPC     N22003   6.831   3.265  12.888 -0.4052  0.6211  0.2733
  180DOPC   C1222004   6.790   3.208  13.021 -0.2551 -0.3567  0.3009
  180DOPC  H12A22005   6.829   3.107  13.027 -1.8121 -1.0097  0.0298
  180DOPC  H12B22006   6.683   3.191  13.022 -0.4863  0.6756 -1.5839
  180DOPC   C1322007   6.792   3.182  12.772  0.3515 -0.3027 -0.2209
  180DOPC  H13A22008   6.829   3.221  12.678  1.5886  1.5376  0.9546
  180DOPC  H13B22009   6.836   3.085  12.787 -0.4562 -0.7186 -0.4873
  180DOPC  H13C22010   6.685   3.168  12.764  0.0777 -0.8939  2.9757
  180DOPC   C1422011   6.979   3.273  12.884 -0.4174  1.0317  0.1033
  180DOPC  H14A22012   7.017   3.291  12.784  1.8024 -0.2878  0.6315
  180DOPC  H14B22013   7.019   3.346  12.953 -0.3651  0.9531  0.1571
  180DOPC  H14C22014   7.019   3.179  12.920 -1.5824  1.3958  2.5405
  180DOPC   C1522015   6.778   3.405  12.862 -0.1291 -0.4001 -0.5835
  180DOPC  H15A22016   6.824   3.435  12.769  1.1926  2.1473  0.7791
  180DOPC  H15B22017   6.816   3.474  12.937 -0.1565 -0.1136 -0.8321
  180DOPC  H15C22018   6.670   3.406  12.860 -0.3226  1.7270  2.5303
  180DOPC   C1122019   6.840   3.277  13.149  0.4208 -0.4517 -0.0900
  180DOPC  H11A22020   6.805   3.211  13.232  2.2417 -0.1303  0.9950
  180DOPC  H11B22021   6.951   3.286  13.158  0.4194  0.7977 -1.0587
  180DOPC     P22022   6.838   3.524  13.234  0.0272 -0.0470 -0.1370
  180DOPC   O1322023   6.740   3.627  13.248  0.3607 -0.2305  0.3286
  180DOPC   O1422024   6.971   3.556  13.169  0.0392 -0.3960 -0.1339
  180DOPC   O1222025   6.775   3.404  13.159 -0.4014 -1.1163  0.0425
  180DOPC   O1122026   6.865   3.471  13.384 -0.0005 -0.5337  0.3764
  180DOPC    C122027   6.767   3.486  13.490 -0.5145  0.7192  0.6621
  180DOPC    HA22028   6.782   3.400  13.560  4.4035 -1.3664 -2.4193
  180DOPC    HB22029   6.665   3.479  13.448 -0.1580 -0.0270 -0.1252
  180DOPC    C222030   6.795   3.612  13.573 -0.3393  0.3721 -0.1543
  180DOPC    HS22031   6.827   3.702  13.515  3.5601 -1.2120 -0.8031
  180DOPC   O2122032   6.895   3.586  13.665  0.0193 -0.2246 -0.6908
  180DOPC   C2122033   7.021   3.581  13.618  0.5538  0.0479 -0.0643
  180DOPC   O2222034   7.060   3.632  13.515 -0.1477  0.4188  0.7715
  180DOPC   C2222035   7.111   3.514  13.717  0.4744  0.1154 -0.2026
  180DOPC   H2R22036   7.119   3.415  13.668 -0.2722  0.3366 -0.7992
  180DOPC   H2S22037   7.068   3.514  13.819  0.9844 -0.8399  0.0198
  180DOPC    C322038   6.670   3.652  13.651  0.1010 -0.9671 -0.2070
  180DOPC    HX22039   6.594   3.682  13.577  2.9042  0.6114 -2.6847
  180DOPC    HY22040   6.702   3.744  13.705  0.4928 -1.1391 -0.1425
  180DOPC   O3122041   6.612   3.549  13.736  0.1999 -0.4234  0.0869
  180DOPC   C3122042   6.636   3.565  13.866 -0.1523 -0.7261 -0.3238
  180DOPC   O3222043   6.696   3.665  13.911 -0.4627  0.3599 -1.0102
  180DOPC   C3222044   6.575   3.459  13.951  0.0181  0.2358  0.2253
  180DOPC   H2X22045   6.592   3.490  14.056 -0.6140 -0.9254  0.6808
  180DOPC   H2Y22046   6.469   3.449  13.920  0.7270  0.5458 -2.6039
  180DOPC   C2322047   7.248   3.586  13.718  0.2734 -0.5675  0.3489
  180DOPC   H3R22048   7.238   3.697  13.723 -0.9233 -0.6203 -0.6158
  180DOPC   H3S22049   7.293   3.563  13.619 -0.1898 -0.1376  0.0345
  180DOPC   C2422050   7.344   3.529  13.823 -0.3760  0.2374  0.5341
  180DOPC   H4R22051   7.442   3.572  13.793 -1.3150  1.5185 -0.8291
  180DOPC   H4S22052   7.353   3.418  13.817 -1.3679  0.2161 -1.5742
  180DOPC   C2522053   7.316   3.573  13.972  0.3775  0.0919  0.1042
  180DOPC   H5R22054   7.216   3.529  13.989  0.6093 -0.2993  0.4722
  180DOPC   H5S22055   7.298   3.683  13.980 -0.2291 -0.1428  2.6398
  180DOPC   C2622056   7.408   3.518  14.077 -0.2615  0.1524 -0.0120
  180DOPC   H6R22057   7.507   3.565  14.061 -1.2402  2.0263 -0.8243
  180DOPC   H6S22058   7.415   3.409  14.058  1.9653  0.4439 -1.1796
  180DOPC   C2722059   7.353   3.545  14.220 -0.1503 -0.1864 -0.7303
  180DOPC   H7R22060   7.250   3.507  14.232 -0.5529  1.3666  1.2036
  180DOPC   H7S22061   7.339   3.654  14.234  0.0118 -0.1997 -0.4463
  180DOPC   C2822062   7.442   3.483  14.328 -0.1270  0.8182 -0.0594
  180DOPC   H8R22063   7.455   3.373  14.312 -0.4346  0.8279 -0.3862
  180DOPC   H8S22064   7.401   3.491  14.430 -0.0111  2.3286 -0.1196
  180DOPC   C2922065   7.578   3.541  14.335 -0.7685 -0.1624  0.1656
  180DOPC   H9R22066   7.624   3.536  14.235 -1.0842  1.5635 -0.0851
  180DOPC  C21022067   7.639   3.599  14.438 -0.7759  0.0772 -0.5961
  180DOPC  H10R22068   7.742   3.636  14.427  0.1035 -2.1744 -0.3718
  180DOPC  C21122069   7.583   3.630  14.577  0.0522  0.4874 -0.3865
  180DOPC  H11R22070   7.633   3.562  14.650 -2.5379 -0.7698  0.3358
  180DOPC  H11S22071   7.474   3.608  14.582  0.1034 -0.7376 -3.0124
  180DOPC  C21222072   7.600   3.779  14.621  0.3780 -0.6734  0.3497
  180DOPC  H12R22073   7.573   3.843  14.534 -0.7535 -0.6260  0.7176
  180DOPC  H12S22074   7.710   3.792  14.628  0.3309  0.4544 -0.7293
  180DOPC  C21322075   7.530   3.812  14.757 -0.1711 -0.3200  0.2073
  180DOPC  H13R22076   7.567   3.736  14.829 -0.8885 -1.3943 -0.5199
  180DOPC  H13S22077   7.421   3.791  14.746  0.0063 -0.2749 -2.1219
  180DOPC  C21422078   7.562   3.946  14.806 -0.0708 -0.6272 -0.2990
  180DOPC  H14R22079   7.493   3.972  14.889  0.5289  0.7153 -0.2012
  180DOPC  H14S22080   7.541   4.023  14.728  0.4491 -1.6836 -1.5227
  180DOPC  C21522081   7.715   3.966  14.850  1.2810  0.0469 -0.0843
  180DOPC  H15R22082   7.742   4.073  14.861 -1.8655  0.8826  0.2833
  180DOPC  H15S22083   7.782   3.926  14.770  1.8083 -0.1491  0.4418
  180DOPC  C21622084   7.752   3.919  14.992 -0.0143 -0.1354  0.2136
  180DOPC  H16R22085   7.862   3.903  14.998  0.0617  0.8140  1.7194
  180DOPC  H16S22086   7.707   3.819  15.010  0.8690 -0.3220  1.5510
  180DOPC  C21722087   7.711   4.023  15.097  0.8369  0.3480 -0.2937
  180DOPC  H17R22088   7.609   3.986  15.121  0.6686 -1.1577 -2.8917
  180DOPC  H17S22089   7.699   4.126  15.059  1.5636  0.6611  0.3005
  180DOPC  C21822090   7.806   4.037  15.208  0.3501 -0.0485  0.1309
  180DOPC  H18R22091   7.910   4.045  15.171  0.5201  2.5861  0.9129
  180DOPC  H18S22092   7.810   3.950  15.277  1.7879 -0.0434  0.0907
  180DOPC  H18T22093   7.798   4.117  15.285  4.7000  0.2408  0.5514
  180DOPC   C3322094   6.628   3.322  13.928 -0.7827  0.0736  0.4979
  180DOPC   H3X22095   6.739   3.319  13.926 -0.8030 -0.2592 -0.4663
  180DOPC   H3Y22096   6.594   3.278  13.832 -2.8114 -0.0371  1.2238
  180DOPC   C3422097   6.591   3.227  14.042  1.6068  0.4241  0.0850
  180DOPC   H4X22098   6.628   3.258  14.143 -3.4613 -0.6858  2.6110
  180DOPC   H4Y22099   6.630   3.124  14.028 -1.1379 -0.3730 -2.6399
  180DOPC   C3522100   6.439   3.200  14.052 -0.6182  0.3795  0.4803
  180DOPC   H5X22101   6.414   3.144  13.960 -0.4973 -2.0193  1.8127
  180DOPC   H5Y22102   6.381   3.294  14.068 -1.1648 -0.1170  1.5048
  180DOPC   C3622103   6.418   3.092  14.163 -0.3007 -1.4794  0.2325
  180DOPC   H6X22104   6.479   3.005  14.131 -0.7950 -2.4714  1.8845
  180DOPC   H6Y22105   6.451   3.129  14.263 -1.8353  1.3694 -0.2077
  180DOPC   C3722106   6.271   3.044  14.179 -0.1475 -0.6062  0.2987
  180DOPC   H7X22107   6.200   3.107  14.237 -0.2358  0.7481 -1.2224
  180DOPC   H7Y22108   6.226   3.040  14.077 -1.8189  0.6493  0.9360
  180DOPC   C3822109   6.255   2.903  14.252 -0.1151 -0.5536  0.1463
  180DOPC   H8X22110   6.273   2.921  14.360  0.6985 -0.7447  0.0498
  180DOPC   H8Y22111   6.335   2.842  14.206  0.2297  0.7478 -1.0685
  180DOPC   C3922112   6.125   2.839  14.220  0.0588 -0.1370  0.2050
  180DOPC   H9X22113   6.133   2.809  14.114  0.3399 -0.5874  0.3499
  180DOPC  C31022114   6.037   2.790  14.309 -0.5532  0.9757 -0.3801
  180DOPC  H10X22115   5.963   2.720  14.268  0.1297 -0.9964  1.5719
  180DOPC  C31122116   6.053   2.788  14.463  0.7051  0.5000  0.8386
  180DOPC  H11X22117   5.993   2.874  14.498 -2.4138 -1.2353  0.1764
  180DOPC  H11Y22118   6.160   2.809  14.481  1.0867  1.0493 -1.6450
  180DOPC  C31222119   5.989   2.662  14.540  0.1202 -0.1915 -0.2607
  180DOPC  H12X22120   6.075   2.592  14.540  0.8066  0.6250  0.6509
  180DOPC  H12Y22121   5.905   2.613  14.487  0.2686  1.2308 -1.9189
  180DOPC  C31322122   5.963   2.707  14.681 -0.0859  0.6301  0.3881
  180DOPC  H13X22123   6.053   2.763  14.714 -0.7680  2.3947 -0.5924
  180DOPC  H13Y22124   5.874   2.773  14.677  0.2818  1.0912 -1.3778
  180DOPC  C31422125   5.945   2.581  14.772  0.4376 -0.1950 -0.2600
  180DOPC  H14X22126   5.855   2.524  14.740 -0.4273  1.6187 -1.1996
  180DOPC  H14Y22127   6.040   2.526  14.755  0.3343 -0.3094 -0.4650
  180DOPC  C31522128   5.946   2.611  14.917  0.3108 -0.9932 -0.0782
  180DOPC  H15X22129   6.040   2.667  14.937 -0.7284  0.1204  2.1122
  180DOPC  H15Y22130   5.948   2.526  14.988  2.0294 -1.1554 -0.2815
  180DOPC  C31622131   5.844   2.714  14.962 -0.1521  0.6462  0.9641
  180DOPC  H16X22132   5.880   2.750  15.061  1.0762  0.6464  0.5295
  180DOPC  H16Y22133   5.845   2.801  14.892  0.7644 -0.7204 -0.7773
  180DOPC  C31722134   5.693   2.673  14.965  0.1209  0.7342 -0.0045
  180DOPC  H17X22135   5.643   2.696  14.868 -1.3102  0.8720  0.7472
  180DOPC  H17Y22136   5.685   2.563  14.982 -2.1563  0.7639 -0.5945
  180DOPC  C31822137   5.623   2.737  15.083 -0.0527  0.2058  0.1346
  180DOPC  H18X22138   5.681   2.719  15.176  1.3910  1.9544 -0.3781
  180DOPC  H18Y22139   5.603   2.844  15.059 -1.0650 -0.0487 -0.1982
  180DOPC  H18Z22140   5.524   2.687  15.091 -0.2235  0.3176 -1.1236
  181DOPC     N22141   0.501   3.630  12.771  0.5638  0.3740 -0.5518
  181DOPC   C1222142   0.474   3.529  12.881  0.2181  0.1509  0.2790
  181DOPC  H12A22143   0.470   3.575  12.978  1.4042 -3.6025  2.2945
  181DOPC  H12B22144   0.559   3.464  12.896  1.0015  1.3197  1.0909
  181DOPC   C1322145   0.374   3.714  12.742  0.2832 -0.0181 -0.4209
  181DOPC  H13A22146   0.392   3.790  12.667 -1.5595  0.1370 -0.7349
  181DOPC  H13B22147   0.296   3.647  12.710 -2.2900  2.5356  0.1441
  181DOPC  H13C22148   0.331   3.762  12.829  0.1167  2.3406 -1.7054
  181DOPC   C1422149   0.534   3.565  12.639  0.3388 -0.5791 -0.0183
  181DOPC  H14A22150   0.609   3.488  12.654  1.3207 -0.4802 -3.5600
  181DOPC  H14B22151   0.444   3.524  12.597  1.5926 -2.2439 -1.2457
  181DOPC  H14C22152   0.577   3.650  12.588  0.5491  1.9358  3.8778
  181DOPC   C1522153   0.597   3.726  12.816 -0.5640 -0.5272 -0.4108
  181DOPC  H15A22154   0.685   3.671  12.845 -0.4205 -2.2202 -3.5997
  181DOPC  H15B22155   0.556   3.791  12.892 -1.1887 -1.2059 -0.1449
  181DOPC  H15C22156   0.627   3.791  12.735 -2.6448  0.5703 -0.3599
  181DOPC   C1122157   0.351   3.446  12.867  0.0363  0.3300 -0.7463
  181DOPC  H11A22158   0.349   3.400  12.765 -2.1660 -0.3687 -0.4486
  181DOPC  H11B22159   0.350   3.353  12.928 -1.3840  1.5085  1.1311
  181DOPC     P22160   0.156   3.520  13.022  0.1924 -0.0028 -0.0895
  181DOPC   O1322161   0.089   3.392  13.048  0.0780  0.2961  0.3713
  181DOPC   O1422162   0.066   3.634  13.024  0.1895 -0.8010 -0.7197
  181DOPC   O1222163   0.225   3.518  12.881  0.0239  0.1198  0.3373
  181DOPC   O1122164   0.271   3.537  13.122 -1.2672  0.0915 -0.2930
  181DOPC    C122165   0.319   3.657  13.178 -0.5219  0.3024 -0.7349
  181DOPC    HA22166   0.235   3.727  13.199 -0.5556 -0.2933  1.3133
  181DOPC    HB22167   0.394   3.717  13.122  1.9659 -0.4008  1.6419
  181DOPC    C222168   0.372   3.633  13.329 -0.0276 -0.0769 -0.5864
  181DOPC    HS22169   0.444   3.549  13.317  0.6346  0.5225 -0.8657
  181DOPC   O2122170   0.266   3.587  13.413  0.0492 -0.4965 -0.0232
  181DOPC   C2122171   0.302   3.507  13.515  0.2958 -0.3671 -0.0530
  181DOPC   O2222172   0.417   3.462  13.532 -0.2317 -0.3144 -0.1812
  181DOPC   C2222173   0.187   3.479  13.611 -0.5718 -0.0003 -0.3438
  181DOPC   H2R22174   0.202   3.382  13.663 -1.2068  0.3615  0.5421
  181DOPC   H2S22175   0.096   3.466  13.548  0.2977 -1.0559 -1.4277
  181DOPC    C322176   0.434   3.765  13.392 -0.1908 -0.2753 -0.2585
  181DOPC    HX22177   0.353   3.838  13.414  0.1310  0.0642 -0.2032
  181DOPC    HY22178   0.486   3.824  13.314  0.6600 -0.7329 -0.0440
  181DOPC   O3122179   0.509   3.739  13.508 -0.0617  0.3249  0.1295
  181DOPC   C3122180   0.631   3.695  13.490  0.7529 -0.0272 -0.2515
  181DOPC   O3222181   0.682   3.673  13.382  0.4869  0.1703  0.6932
  181DOPC   C3222182   0.717   3.669  13.614 -0.3081 -0.1951 -0.3372
  181DOPC   H2X22183   0.661   3.612  13.690 -1.1833  0.3806 -0.5346
  181DOPC   H2Y22184   0.806   3.612  13.581  0.6636 -0.3032  2.2381
  181DOPC   C2322185   0.171   3.587  13.719 -0.0330  1.5798  0.5377
  181DOPC   H3R22186   0.147   3.679  13.660  0.1771  1.2794 -0.0287
  181DOPC   H3S22187   0.269   3.597  13.771 -0.2597 -2.5487  2.0904
  181DOPC   C2422188   0.052   3.540  13.804 -0.3336 -0.1540 -0.0259
  181DOPC   H4R22189  -0.016   3.485  13.736 -0.6954 -1.1759  1.1322
  181DOPC   H4S22190  -0.003   3.624  13.853 -1.5111 -1.5610  1.1636
  181DOPC   C2522191   0.095   3.446  13.918 -0.1365  0.7516 -0.8743
  181DOPC   H5R22192   0.138   3.354  13.873 -0.6541  0.6568 -1.1854
  181DOPC   H5S22193   0.007   3.409  13.976  0.9146  0.6947  0.7454
  181DOPC   C2622194   0.205   3.508  14.013  0.7958  0.1048  0.5572
  181DOPC   H6R22195   0.175   3.607  14.051 -0.8966 -0.6337  1.2645
  181DOPC   H6S22196   0.305   3.527  13.969  1.1429  1.0770  1.7317
  181DOPC   C2722197   0.253   3.418  14.133  0.1737  0.0248  0.0992
  181DOPC   H7R22198   0.288   3.323  14.086 -2.9444 -0.2745 -1.9007
  181DOPC   H7S22199   0.171   3.404  14.207 -0.5956  0.6898 -0.6197
  181DOPC   C2822200   0.372   3.476  14.223  0.0182 -1.0021  0.0711
  181DOPC   H8R22201   0.363   3.397  14.301 -0.7286 -1.9904 -0.9803
  181DOPC   H8S22202   0.347   3.574  14.269  1.6522  0.6826 -2.3627
  181DOPC   C2922203   0.505   3.475  14.157  0.6698  0.2413 -0.5875
  181DOPC   H9R22204   0.529   3.387  14.095 -2.7172 -0.8476 -0.5947
  181DOPC  C21022205   0.597   3.569  14.171  0.3944  0.4381  0.4576
  181DOPC  H10R22206   0.690   3.549  14.116  0.5044 -1.2539  1.2083
  181DOPC  C21122207   0.595   3.699  14.253 -0.2016 -0.0187  0.5566
  181DOPC  H11R22208   0.499   3.727  14.300  0.3236 -1.1455  2.4375
  181DOPC  H11S22209   0.628   3.783  14.188  1.2933 -0.1196  1.1443
  181DOPC  C21222210   0.698   3.702  14.369 -0.3218  0.0568 -0.0003
  181DOPC  H12R22211   0.790   3.647  14.341 -0.0473  1.1130 -1.2416
  181DOPC  H12S22212   0.643   3.653  14.453  0.3358 -1.0200 -0.1730
  181DOPC  C21322213   0.713   3.852  14.410 -0.1810 -0.6412  0.1414
  181DOPC  H13R22214   0.615   3.894  14.442 -0.8152 -0.0601 -2.2785
  181DOPC  H13S22215   0.748   3.901  14.316  1.6347 -1.4107  0.3761
  181DOPC  C21422216   0.821   3.882  14.517 -0.1533 -0.2657  0.5350
  181DOPC  H14R22217   0.920   3.835  14.498 -0.2726  0.4498 -2.1457
  181DOPC  H14S22218   0.779   3.846  14.613 -2.4429  0.1821 -0.2450
  181DOPC  C21522219   0.840   4.037  14.530 -0.0011 -0.1785 -0.3193
  181DOPC  H15R22220   0.738   4.078  14.541 -0.4367 -1.2481 -0.2327
  181DOPC  H15S22221   0.886   4.075  14.436  0.7294  0.6476  0.3635
  181DOPC  C21622222   0.937   4.077  14.640  1.0853  0.9149  1.1200
  181DOPC  H16R22223   1.040   4.054  14.606  0.3620 -2.4008  0.8026
  181DOPC  H16S22224   0.921   4.011  14.728  1.8025  1.3668  1.5952
  181DOPC  C21722225   0.927   4.223  14.688 -0.1191  0.0188  0.4225
  181DOPC  H17R22226   0.824   4.255  14.715  0.5956  1.8311  1.1702
  181DOPC  H17S22227   0.951   4.293  14.606 -4.1224  0.5416 -0.5174
  181DOPC  C21822228   1.017   4.248  14.812  0.0633  0.3694 -0.0587
  181DOPC  H18R22229   1.121   4.227  14.776 -1.0903 -2.4583 -2.1407
  181DOPC  H18S22230   1.001   4.175  14.894 -0.9407  2.0717  1.3296
  181DOPC  H18T22231   1.010   4.349  14.856 -1.1922 -0.3350  1.4771
  181DOPC   C3322232   0.771   3.797  13.688 -0.6845  0.2098 -0.5098
  181DOPC   H3X22233   0.696   3.879  13.681  0.5197  1.3408 -0.5718
  181DOPC   H3Y22234   0.865   3.825  13.636 -0.7994  1.4216 -0.0881
  181DOPC   C3422235   0.811   3.780  13.841  0.5983 -0.0010  0.1040
  181DOPC   H4X22236   0.886   3.700  13.854  0.0946 -0.5260 -0.1437
  181DOPC   H4Y22237   0.715   3.749  13.888  0.0903  0.2998 -0.6939
  181DOPC   C3522238   0.848   3.915  13.892  0.0553 -0.2625 -0.6405
  181DOPC   H5X22239   0.773   3.990  13.860  0.5271  0.4292 -0.1533
  181DOPC   H5Y22240   0.949   3.948  13.861 -0.1965 -0.3373 -1.5637
  181DOPC   C3622241   0.836   3.931  14.047  0.0009  0.4087 -0.5055
  181DOPC   H6X22242   0.731   3.953  14.075 -0.0709 -1.5505  0.9572
  181DOPC   H6Y22243   0.860   3.835  14.097 -0.0782  1.9983  2.8393
  181DOPC   C3722244   0.922   4.043  14.108 -0.4504 -0.0558  0.3502
  181DOPC   H7X22245   0.942   4.029  14.216  0.3849 -2.1886 -0.0431
  181DOPC   H7Y22246   1.015   4.047  14.047 -0.4543 -3.6205 -0.0558
  181DOPC   C3822247   0.863   4.187  14.102  0.0575  0.0967 -0.6980
  181DOPC   H8X22248   0.756   4.173  14.132  0.9622 -2.0807  1.9482
  181DOPC   H8Y22249   0.848   4.230  14.000 -1.4772  2.3629  0.3880
  181DOPC   C3922250   0.929   4.280  14.199 -0.3483  0.1382 -0.1425
  181DOPC   H9X22251   1.031   4.305  14.165 -0.0641 -0.9641 -0.1407
  181DOPC  C31022252   0.875   4.354  14.298 -0.3062 -0.0137  0.3164
  181DOPC  H10X22253   0.926   4.430  14.359  0.5320  0.3513 -0.7993
  181DOPC  C31122254   0.724   4.344  14.320 -0.1729 -0.0049  0.0369
  181DOPC  H11X22255   0.701   4.373  14.424  1.4141  1.2654  0.0878
  181DOPC  H11Y22256   0.693   4.239  14.306 -1.8972  0.5681 -0.6766
  181DOPC  C31222257   0.639   4.433  14.229 -0.0209  0.5757 -0.1777
  181DOPC  H12X22258   0.684   4.432  14.127 -2.0494  1.0320 -1.1190
  181DOPC  H12Y22259   0.634   4.536  14.271 -1.1011  0.0417  1.0481
  181DOPC  C31322260   0.501   4.385  14.209  0.3043  0.5741 -0.5762
  181DOPC  H13X22261   0.498   4.277  14.183  2.7307  0.9243 -2.8451
  181DOPC  H13Y22262   0.450   4.389  14.307  0.8975  1.0140 -0.2827
  181DOPC  C31422263   0.416   4.459  14.106 -0.5989 -0.1905 -0.8865
  181DOPC  H14X22264   0.414   4.565  14.141  2.3411  0.1838 -1.5831
  181DOPC  H14Y22265   0.479   4.455  14.015 -1.8236 -4.2167 -1.7721
  181DOPC  C31522266   0.281   4.400  14.070  0.3948 -0.2775  0.1024
  181DOPC  H15X22267   0.215   4.383  14.158  0.1106  2.2616  0.4742
  181DOPC  H15Y22268   0.301   4.304  14.019 -2.5252 -0.5959 -0.6183
  181DOPC  C31622269   0.209   4.488  13.968  0.4351  0.0080  0.1731
  181DOPC  H16X22270   0.192   4.586  14.017 -0.2806 -0.4440  0.8411
  181DOPC  H16Y22271   0.271   4.504  13.877  0.6336 -0.6671  0.1787
  181DOPC  C31722272   0.066   4.438  13.933 -0.4291 -0.4513 -0.0935
  181DOPC  H17X22273   0.040   4.506  13.849  1.0957 -2.0446 -2.0021
  181DOPC  H17Y22274   0.067   4.345  13.871  0.0902  0.5058 -1.5944
  181DOPC  C31822275  -0.034   4.445  14.044  0.0860 -0.1216  0.2099
  181DOPC  H18X22276  -0.130   4.412  13.998 -0.2659  2.4287 -1.0593
  181DOPC  H18Y22277   0.003   4.387  14.132  0.7444  1.6321  1.1306
  181DOPC  H18Z22278  -0.037   4.546  14.091  1.9296 -0.4916  1.2399
  182DOPC     N22279   1.460   0.684  12.766  0.3261 -0.3590  0.0991
  182DOPC   C1222280   1.563   0.578  12.772 -0.5079 -0.4426  1.1823
  182DOPC  H12A22281   1.658   0.627  12.788 -0.8615  0.1760  1.4490
  182DOPC  H12B22282   1.578   0.546  12.671  0.9695  0.8396  0.9480
  182DOPC   C1322283   1.432   0.738  12.902 -0.4918 -0.2773  0.2114
  182DOPC  H13A22284   1.521   0.792  12.931  0.5668  0.0647 -3.2204
  182DOPC  H13B22285   1.358   0.816  12.899 -2.4716 -2.1011 -1.7886
  182DOPC  H13C22286   1.408   0.656  12.968  1.9091 -0.3463  1.1061
  182DOPC   C1422287   1.338   0.623  12.706 -0.1531  0.8700 -0.2066
  182DOPC  H14A22288   1.259   0.696  12.718 -0.7845  0.1344  0.1598
  182DOPC  H14B22289   1.353   0.621  12.599 -0.3116  3.0164 -0.3110
  182DOPC  H14C22290   1.316   0.525  12.746  0.1180  0.7814 -0.2721
  182DOPC   C1522291   1.495   0.797  12.671 -0.3608 -0.6578  0.3282
  182DOPC  H15A22292   1.569   0.862  12.714  1.9267 -1.1149 -2.5964
  182DOPC  H15B22293   1.402   0.846  12.649  0.1057  0.6485  1.1884
  182DOPC  H15C22294   1.527   0.757  12.576 -0.8352 -0.1562 -0.0501
  182DOPC   C1122295   1.560   0.459  12.868 -0.5489 -0.0169 -0.6805
  182DOPC  H11A22296   1.651   0.397  12.859 -0.9964 -0.4710 -2.4969
  182DOPC  H11B22297   1.550   0.497  12.972 -2.8096 -0.1088 -0.8228
  182DOPC     P22298   1.336   0.347  12.942 -0.2045  0.0653  0.1889
  182DOPC   O1322299   1.239   0.254  12.885  0.2261  0.2100 -0.5744
  182DOPC   O1422300   1.285   0.477  12.993  0.0517  0.5036  0.1756
  182DOPC   O1222301   1.445   0.375  12.839 -0.2439 -0.0900  0.2334
  182DOPC   O1122302   1.412   0.275  13.060  0.4309  0.0519 -0.3300
  182DOPC    C122303   1.452   0.138  13.043 -0.0684  0.0384  0.5283
  182DOPC    HA22304   1.459   0.099  12.939 -0.0975 -2.4740  1.3850
  182DOPC    HB22305   1.369   0.074  13.081 -0.2083 -1.2079 -1.7164
  182DOPC    C222306   1.586   0.115  13.110 -0.0196 -0.3658 -0.2101
  182DOPC    HS22307   1.634   0.026  13.066 -2.7982 -2.2541  0.2691
  182DOPC   O2122308   1.565   0.100  13.247 -0.3880 -0.1517  0.0379
  182DOPC   C2122309   1.552  -0.028  13.289  0.2135 -0.0218  1.0575
  182DOPC   O2222310   1.558  -0.127  13.217  0.1599  0.0153  0.0901
  182DOPC   C2222311   1.542  -0.028  13.441 -0.6659  0.4031  0.4457
  182DOPC   H2R22312   1.435  -0.035  13.469 -0.7375  1.5522  0.4764
  182DOPC   H2S22313   1.575   0.070  13.479 -1.5473  1.0594 -0.4274
  182DOPC    C322314   1.689   0.230  13.084  0.0181 -0.4331 -0.4256
  182DOPC    HX22315   1.645   0.325  13.120  0.3081 -0.5081  0.1372
  182DOPC    HY22316   1.705   0.244  12.975  0.4843 -0.4154 -0.3564
  182DOPC   O3122317   1.825   0.202  13.139  0.2845 -0.2095  0.9645
  182DOPC   C3122318   1.901   0.310  13.173 -0.1549 -0.0955 -0.3485
  182DOPC   O3222319   1.870   0.425  13.158  0.3472 -0.0933  0.0645
  182DOPC   C3222320   2.033   0.267  13.234  0.2747 -0.4001 -0.3975
  182DOPC   H2X22321   2.071   0.178  13.180  0.2789 -1.8437  1.8774
  182DOPC   H2Y22322   2.105   0.350  13.215 -0.6867  0.8635  1.1542
  182DOPC   C2322323   1.630  -0.139  13.513  0.4238 -0.3240 -0.8014
  182DOPC   H3R22324   1.738  -0.110  13.518  0.5388 -0.9888  1.2913
  182DOPC   H3S22325   1.615  -0.234  13.458 -0.0800 -0.4070 -0.5193
  182DOPC   C2422326   1.578  -0.167  13.658  0.3568 -0.2210 -0.5889
  182DOPC   H4R22327   1.490  -0.233  13.642  0.0404  0.0624 -0.0246
  182DOPC   H4S22328   1.556  -0.069  13.705 -0.1331 -1.4870  1.9816
  182DOPC   C2522329   1.680  -0.237  13.749  0.3783  0.0921  0.5037
  182DOPC   H5R22330   1.784  -0.198  13.737  0.3389  0.1957  0.4949
  182DOPC   H5S22331   1.693  -0.344  13.722 -0.8284 -0.5817  2.4125
  182DOPC   C2622332   1.651  -0.228  13.900 -0.3213 -0.1652  0.4658
  182DOPC   H6R22333   1.558  -0.287  13.915  0.1464 -0.4915  2.2575
  182DOPC   H6S22334   1.646  -0.121  13.929  0.7171 -0.4752  1.8823
  182DOPC   C2722335   1.751  -0.289  13.992 -0.2477 -1.2197  0.5575
  182DOPC   H7R22336   1.842  -0.226  13.999 -1.4349  0.4436  1.4330
  182DOPC   H7S22337   1.775  -0.396  13.973  0.1567 -1.4362  2.1261
  182DOPC   C2822338   1.696  -0.293  14.133 -0.2942  0.3198  0.1072
  182DOPC   H8R22339   1.613  -0.366  14.125  1.2571 -1.3235 -2.7273
  182DOPC   H8S22340   1.650  -0.195  14.157  0.1477  0.4321  0.5057
  182DOPC   C2922341   1.799  -0.320  14.240 -0.4287 -0.0142 -0.0548
  182DOPC   H9R22342   1.901  -0.332  14.198 -0.8412 -0.3123 -1.0031
  182DOPC  C21022343   1.778  -0.345  14.369  0.4122  0.5549  0.3764
  182DOPC  H10R22344   1.861  -0.344  14.441  0.9570  1.7971 -0.2478
  182DOPC  C21122345   1.647  -0.351  14.435 -0.0440  0.2943 -0.4363
  182DOPC  H11R22346   1.587  -0.262  14.408  0.0799  0.7885  0.8271
  182DOPC  H11S22347   1.666  -0.353  14.545  0.6887  1.2997 -0.5232
  182DOPC  C21222348   1.582  -0.494  14.402 -0.3863 -0.5510 -0.7169
  182DOPC  H12R22349   1.646  -0.573  14.447  0.2546  1.2846  1.8103
  182DOPC  H12S22350   1.577  -0.519  14.294 -0.9006 -0.9697 -0.5979
  182DOPC  C21322351   1.438  -0.507  14.451  0.1123 -0.1184 -0.3656
  182DOPC  H13R22352   1.360  -0.449  14.397 -0.3663  1.6248  2.0595
  182DOPC  H13S22353   1.437  -0.456  14.550  0.6112  0.0643 -0.4532
  182DOPC  C21422354   1.381  -0.655  14.460 -0.1059  0.1863  0.0569
  182DOPC  H14R22355   1.445  -0.720  14.395  1.6239 -1.3827  3.1122
  182DOPC  H14S22356   1.274  -0.662  14.432  0.2669  0.7634 -1.6311
  182DOPC  C21522357   1.394  -0.704  14.606  0.4509  0.1398  0.2695
  182DOPC  H15R22358   1.358  -0.628  14.678  1.8970  0.9056  0.2302
  182DOPC  H15S22359   1.501  -0.714  14.637  0.7502  1.8491 -0.1330
  182DOPC  C21622360   1.329  -0.842  14.628  0.0322 -0.1600  0.1999
  182DOPC  H16R22361   1.219  -0.839  14.617  0.2166  0.4695 -1.7772
  182DOPC  H16S22362   1.351  -0.880  14.730  0.7078  1.6377  0.7684
  182DOPC  C21722363   1.363  -0.950  14.529  0.2696  0.1148  0.1553
  182DOPC  H17R22364   1.466  -0.982  14.556  0.0753  0.1452  0.9726
  182DOPC  H17S22365   1.363  -0.917  14.423  2.2577  0.7198  0.3052
  182DOPC  C21822366   1.281  -1.080  14.539  0.2336  0.5448  0.0036
  182DOPC  H18R22367   1.172  -1.059  14.532 -0.1506 -1.0652  0.7768
  182DOPC  H18S22368   1.296  -1.136  14.633 -1.3011 -0.7369 -0.4840
  182DOPC  H18T22369   1.301  -1.136  14.445  1.0521 -0.6106  0.8338
  182DOPC   C3322370   2.023   0.252  13.388  0.3781 -0.1737  0.2587
  182DOPC   H3X22371   1.984   0.151  13.411 -1.9674  1.1057  2.4349
  182DOPC   H3Y22372   1.952   0.326  13.431  0.1481 -0.6590  0.7207
  182DOPC   C3422373   2.158   0.276  13.461  0.0040  0.1104  0.5718
  182DOPC   H4X22374   2.189   0.381  13.442 -0.3100  0.2335  0.7189
  182DOPC   H4Y22375   2.239   0.213  13.420  0.2090  0.9728 -0.3839
  182DOPC   C3522376   2.152   0.248  13.614 -0.0545 -0.1955  0.1027
  182DOPC   H5X22377   2.107   0.148  13.632  2.2534 -1.4904 -0.8509
  182DOPC   H5Y22378   2.095   0.330  13.662 -0.6493 -0.6698  0.2324
  182DOPC   C3622379   2.284   0.249  13.690 -0.6295 -0.4696 -0.3571
  182DOPC   H6X22380   2.300   0.353  13.726 -2.2171 -0.8244  1.5893
  182DOPC   H6Y22381   2.281   0.190  13.784  2.9670  0.5638  0.5442
  182DOPC   C3722382   2.409   0.192  13.616 -0.9737 -0.2341 -0.3981
  182DOPC   H7X22383   2.388   0.091  13.575 -0.5237 -0.5104  0.0401
  182DOPC   H7Y22384   2.445   0.259  13.535  1.9106 -2.5375 -1.1813
  182DOPC   C3822385   2.533   0.180  13.707 -0.0626 -0.1738  0.8339
  182DOPC   H8X22386   2.630   0.164  13.656 -0.8457  1.0511 -1.1269
  182DOPC   H8Y22387   2.536   0.093  13.776  0.0875 -2.2656 -1.6563
  182DOPC   C3922388   2.560   0.307  13.787  0.1360 -0.6485 -0.1922
  182DOPC   H9X22389   2.625   0.376  13.732  0.6196 -1.2647 -0.4009
  182DOPC  C31022390   2.531   0.347  13.913 -0.2893 -0.0343  0.0056
  182DOPC  H10X22391   2.556   0.452  13.935  1.1407 -0.3231 -0.0952
  182DOPC  C31122392   2.454   0.274  14.018 -0.4286  0.3291 -0.2620
  182DOPC  H11X22393   2.443   0.167  13.991 -3.9465 -0.1575  2.3870
  182DOPC  H11Y22394   2.357   0.328  14.018  0.8807  2.9088  1.7138
  182DOPC  C31222395   2.518   0.287  14.154 -1.3336  0.4281 -0.0378
  182DOPC  H12X22396   2.497   0.387  14.197 -2.4382  0.3826 -0.4447
  182DOPC  H12Y22397   2.629   0.285  14.148 -1.1335 -1.2854  2.4535
  182DOPC  C31322398   2.476   0.176  14.253  0.0778 -0.0492  0.6955
  182DOPC  H13X22399   2.366   0.163  14.260 -0.3111  3.2552  2.6099
  182DOPC  H13Y22400   2.528   0.083  14.222 -1.5244 -0.8350  0.2696
  182DOPC  C31422401   2.518   0.215  14.394 -0.1527 -0.2961 -0.2751
  182DOPC  H14X22402   2.623   0.248  14.375 -0.0981  0.4256  1.1633
  182DOPC  H14Y22403   2.474   0.312  14.428  0.3898 -0.0555 -0.2431
  182DOPC  C31522404   2.496   0.115  14.509  0.1680  0.5460  0.2493
  182DOPC  H15X22405   2.540   0.017  14.479  0.1215  0.5582  0.1413
  182DOPC  H15Y22406   2.388   0.106  14.532  0.1781  0.5078  0.2811
  182DOPC  C31622407   2.566   0.165  14.638  0.0412 -0.5547  0.1756
  182DOPC  H16X22408   2.576   0.275  14.644  0.1774 -0.6461  2.3155
  182DOPC  H16Y22409   2.504   0.142  14.728  0.3862 -0.6142  0.4013
  182DOPC  C31722410   2.702   0.104  14.658  0.0320 -0.6276 -0.2232
  182DOPC  H17X22411   2.693  -0.006  14.653  0.8669 -0.6721 -1.1105
  182DOPC  H17Y22412   2.749   0.133  14.561  1.1647 -0.4118  0.3829
  182DOPC  C31822413   2.765   0.153  14.789  0.2360  0.1995 -0.2726
  182DOPC  H18X22414   2.704   0.138  14.881  1.5473  1.3535  0.8274
  182DOPC  H18Y22415   2.861   0.102  14.809 -1.0530 -1.2577  2.7686
  182DOPC  H18Z22416   2.778   0.263  14.787 -1.4395  0.4341  0.3735
  183DOPC     N22417   6.653   4.981  12.601  1.0684  0.2046 -0.4082
  183DOPC   C1222418   6.555   4.932  12.710 -0.5259 -0.3642 -0.6099
  183DOPC  H12A22419   6.529   4.827  12.705  0.5506 -0.7081  0.5389
  183DOPC  H12B22420   6.469   4.994  12.689  0.8885  1.6423 -0.6930
  183DOPC   C1322421   6.621   5.125  12.579 -1.0103  0.8927 -0.3784
  183DOPC  H13A22422   6.516   5.135  12.555 -1.7606 -1.5179  1.5580
  183DOPC  H13B22423   6.633   5.187  12.666 -1.1435  1.3147 -0.6523
  183DOPC  H13C22424   6.671   5.165  12.491 -0.1691 -1.9233 -1.2618
  183DOPC   C1422425   6.623   4.907  12.477 -0.5068  0.6652 -0.1867
  183DOPC  H14A22426   6.632   4.799  12.482 -1.4723  0.4980 -1.4876
  183DOPC  H14B22427   6.530   4.936  12.431  0.4900 -1.2705 -3.7956
  183DOPC  H14C22428   6.692   4.941  12.402  1.1012  1.6831  1.6662
  183DOPC   C1522429   6.801   4.969  12.624  0.2752 -0.0715  0.4256
  183DOPC  H15A22430   6.812   5.021  12.717 -1.1037 -0.2478  0.7011
  183DOPC  H15B22431   6.864   5.014  12.549 -0.7673  1.1739  0.2710
  183DOPC  H15C22432   6.839   4.868  12.628  0.8342  0.1725  1.6226
  183DOPC   C1122433   6.587   4.958  12.863 -0.4397  0.1456 -0.2774
  183DOPC  H11A22434   6.496   4.947  12.926 -0.8640  1.9017 -0.5181
  183DOPC  H11B22435   6.654   4.878  12.899 -0.1995 -0.3476 -1.7455
  183DOPC     P22436   6.773   5.099  12.970  0.0545  0.1726 -0.4437
  183DOPC   O1322437   6.813   5.241  12.973  0.2968  0.1625 -0.0359
  183DOPC   O1422438   6.872   5.000  12.921  0.3504 -0.3963  0.0525
  183DOPC   O1222439   6.642   5.090  12.883 -0.0765 -0.9505 -0.0801
  183DOPC   O1122440   6.731   5.056  13.122  0.3318 -0.1114  0.0966
  183DOPC    C122441   6.625   5.116  13.196  0.1754 -0.1284  0.4252
  183DOPC    HA22442   6.542   5.043  13.210  0.8448 -1.0698 -0.3957
  183DOPC    HB22443   6.581   5.201  13.140  0.3571 -0.8406 -0.8314
  183DOPC    C222444   6.666   5.171  13.333  0.9211 -0.3245  0.1978
  183DOPC    HS22445   6.756   5.235  13.325  1.2808 -0.7777  0.5788
  183DOPC   O2122446   6.696   5.059  13.413  0.0338 -0.1134 -0.5694
  183DOPC   C2122447   6.810   5.063  13.478  0.3887 -0.0758  0.2928
  183DOPC   O2222448   6.899   5.147  13.478 -0.3411  0.2070  0.3189
  183DOPC   C2222449   6.799   4.957  13.578  0.5591  0.4682  0.1166
  183DOPC   H2R22450   6.796   4.859  13.527 -0.4770  0.6615 -0.2287
  183DOPC   H2S22451   6.702   4.974  13.630 -1.6165 -1.6160 -2.8898
  183DOPC    C322452   6.542   5.241  13.402  0.2191 -0.0394  0.6396
  183DOPC    HX22453   6.462   5.166  13.381 -0.1109  0.2690  0.7959
  183DOPC    HY22454   6.525   5.327  13.334  3.7869  0.5618  0.3220
  183DOPC   O3122455   6.551   5.275  13.539 -0.4348  0.3888 -0.8605
  183DOPC   C3122456   6.622   5.379  13.556 -0.1176 -0.5278 -0.2392
  183DOPC   O3222457   6.669   5.451  13.471 -0.1498 -0.1377  0.6333
  183DOPC   C3222458   6.651   5.402  13.706  0.1467 -0.1123  0.0032
  183DOPC   H2X22459   6.618   5.507  13.724  0.2436 -0.1482  0.4048
  183DOPC   H2Y22460   6.586   5.337  13.769  1.1517  0.1197  1.3336
  183DOPC   C2322461   6.911   4.950  13.682 -0.1539 -0.5829  0.0923
  183DOPC   H3R22462   6.947   5.049  13.718 -1.5319 -0.2309  0.5459
  183DOPC   H3S22463   7.003   4.900  13.644  0.1670  0.6221 -0.7954
  183DOPC   C2422464   6.876   4.882  13.816 -0.0045  0.5525  0.1483
  183DOPC   H4R22465   6.962   4.840  13.873 -0.3507 -1.4847 -0.7501
  183DOPC   H4S22466   6.815   4.789  13.804  1.0904 -0.1571 -0.0910
  183DOPC   C2522467   6.800   4.973  13.924 -0.3894 -0.3706 -0.1663
  183DOPC   H5R22468   6.712   5.024  13.880 -0.7893  0.0932  1.1268
  183DOPC   H5S22469   6.870   5.057  13.943 -0.1562 -0.7982  0.9153
  183DOPC   C2622470   6.761   4.883  14.044 -0.3340  0.5081  0.2765
  183DOPC   H6R22471   6.861   4.859  14.086 -0.3443  0.3353  0.2023
  183DOPC   H6S22472   6.709   4.796  14.000 -1.0445  2.1808 -2.4287
  183DOPC   C2722473   6.684   4.964  14.149  0.1036 -0.3561  0.2212
  183DOPC   H7R22474   6.593   4.991  14.092  0.0679 -0.2787  0.3159
  183DOPC   H7S22475   6.727   5.056  14.195  0.6524  1.0636 -2.8968
  183DOPC   C2822476   6.649   4.878  14.271 -0.6269 -0.1962 -0.1518
  183DOPC   H8R22477   6.747   4.836  14.303 -0.5475 -0.3809 -0.6304
  183DOPC   H8S22478   6.587   4.803  14.217 -0.3553  1.1696 -2.4653
  183DOPC   C2922479   6.583   4.949  14.391 -0.5480  0.2744  0.3353
  183DOPC   H9R22480   6.580   5.059  14.387  0.2587  0.2775 -0.6085
  183DOPC  C21022481   6.518   4.888  14.492 -0.1711  0.1926 -0.2216
  183DOPC  H10R22482   6.480   4.948  14.577 -1.6283 -1.8486  0.6593
  183DOPC  C21122483   6.512   4.739  14.503  0.6732 -0.0256  0.0100
  183DOPC  H11R22484   6.560   4.679  14.423  4.5664 -2.1838  3.5958
  183DOPC  H11S22485   6.406   4.709  14.522 -0.3140  0.4424 -3.8141
  183DOPC  C21222486   6.596   4.694  14.629  0.2848  0.3687  0.0677
  183DOPC  H12R22487   6.555   4.758  14.711  0.0834  1.3319 -0.7687
  183DOPC  H12S22488   6.701   4.728  14.616  0.2300  0.5301  0.0435
  183DOPC  C21322489   6.586   4.544  14.658 -0.5436  0.0250 -0.1363
  183DOPC  H13R22490   6.629   4.498  14.567  0.0305 -1.2166  0.7423
  183DOPC  H13S22491   6.480   4.512  14.662 -0.1143 -1.2922  1.2025
  183DOPC  C21422492   6.665   4.494  14.782  0.2493 -0.3547 -0.6493
  183DOPC  H14R22493   6.667   4.383  14.781 -1.7631 -0.4448  0.2002
  183DOPC  H14S22494   6.604   4.527  14.869  0.7696  1.4497 -0.9297
  183DOPC  C21522495   6.806   4.547  14.799 -0.4818 -0.2755 -1.5633
  183DOPC  H15R22496   6.806   4.657  14.816 -2.2308 -0.7030  2.1598
  183DOPC  H15S22497   6.885   4.534  14.721  1.9438 -1.4263  0.9337
  183DOPC  C21622498   6.878   4.474  14.915  0.0414  0.0727  0.0499
  183DOPC  H16R22499   6.984   4.506  14.925  0.2207  0.3898 -2.3186
  183DOPC  H16S22500   6.881   4.369  14.880  1.4879  0.7788 -2.1530
  183DOPC  C21722501   6.818   4.490  15.053 -0.3427 -0.4644 -0.1228
  183DOPC  H17R22502   6.891   4.440  15.120  1.4594 -0.8508 -2.2382
  183DOPC  H17S22503   6.718   4.441  15.058 -0.0313 -0.9867  2.3957
  183DOPC  C21822504   6.796   4.638  15.108  0.5131  0.1197 -0.2950
  183DOPC  H18R22505   6.761   4.635  15.214  1.2137  0.7991 -0.0409
  183DOPC  H18S22506   6.707   4.685  15.060  0.1567  1.3313  1.4539
  183DOPC  H18T22507   6.883   4.705  15.091  0.6052 -0.5025 -2.5459
  183DOPC   C3322508   6.800   5.380  13.749  0.1721 -0.2201  0.4121
  183DOPC   H3X22509   6.862   5.458  13.700 -0.0878 -2.1778 -3.3573
  183DOPC   H3Y22510   6.824   5.284  13.700 -2.5131 -1.5164  1.4285
  183DOPC   C3422511   6.819   5.373  13.902 -0.5007  0.1702  0.2997
  183DOPC   H4X22512   6.926   5.351  13.924 -0.9191 -0.7750  1.4755
  183DOPC   H4Y22513   6.747   5.291  13.920  0.4017 -0.9055 -0.8394
  183DOPC   C3522514   6.771   5.500  13.976 -0.4928 -0.3766  0.3265
  183DOPC   H5X22515   6.671   5.532  13.941 -0.6288  0.5862  1.4972
  183DOPC   H5Y22516   6.833   5.591  13.961 -2.4433  1.2552  1.5751
  183DOPC   C3622517   6.756   5.493  14.132  0.9367  0.0582  0.0128
  183DOPC   H6X22518   6.858   5.496  14.176  1.1604  2.3627 -0.5281
  183DOPC   H6Y22519   6.697   5.584  14.154  0.0249 -0.2135 -1.2102
  183DOPC   C3722520   6.692   5.363  14.191 -0.0341 -0.2837 -0.0218
  183DOPC   H7X22521   6.605   5.347  14.124 -1.0947  1.4319  0.8618
  183DOPC   H7Y22522   6.760   5.277  14.175  0.4562 -0.1548  1.2616
  183DOPC   C3822523   6.646   5.364  14.337 -0.0030 -1.1616 -0.3056
  183DOPC   H8X22524   6.744   5.360  14.388 -0.6652 -0.4833  1.0568
  183DOPC   H8Y22525   6.595   5.266  14.351 -0.0370 -1.3360 -1.4729
  183DOPC   C3922526   6.551   5.482  14.373  0.3974 -0.0640  0.0727
  183DOPC   H9X22527   6.483   5.519  14.294 -2.6264  0.2244  2.6161
  183DOPC  C31022528   6.551   5.553  14.490 -0.1509  0.0841  0.2516
  183DOPC  H10X22529   6.469   5.624  14.506 -0.0035  0.3206 -0.0470
  183DOPC  C31122530   6.650   5.532  14.599  1.1023 -0.5502 -0.4669
  183DOPC  H11X22531   6.733   5.605  14.588 -0.8135  2.1792  1.9278
  183DOPC  H11Y22532   6.688   5.428  14.602 -0.2189 -1.0333  1.1832
  183DOPC  C31222533   6.572   5.562  14.729 -0.0969 -0.3438  0.2894
  183DOPC  H12X22534   6.533   5.665  14.746  0.4873 -0.0528 -0.0828
  183DOPC  H12Y22535   6.642   5.555  14.815 -1.1857 -1.2594  1.1432
  183DOPC  C31322536   6.464   5.453  14.764  0.0442 -0.7005  0.1381
  183DOPC  H13X22537   6.373   5.477  14.705  1.1283  0.5652 -1.1128
  183DOPC  H13Y22538   6.506   5.366  14.709 -1.2139  0.7962 -3.5549
  183DOPC  C31422539   6.455   5.429  14.910 -0.4633  0.5275 -0.2325
  183DOPC  H14X22540   6.383   5.345  14.924 -1.6407  1.1868 -2.0671
  183DOPC  H14Y22541   6.551   5.396  14.954 -1.1171  1.8656  2.3858
  183DOPC  C31522542   6.411   5.551  14.994 -0.0993 -0.0610  0.2756
  183DOPC  H15X22543   6.312   5.593  14.967  0.9127  0.9257 -2.1595
  183DOPC  H15Y22544   6.479   5.637  14.974 -0.3980  0.4007  1.2082
  183DOPC  C31622545   6.410   5.519  15.147 -0.0817 -0.3843  1.1526
  183DOPC  H16X22546   6.326   5.451  15.171 -1.9131  0.6165 -1.8842
  183DOPC  H16Y22547   6.504   5.469  15.177 -0.2989 -2.6679 -1.5790
  183DOPC  C31722548   6.380   5.647  15.225 -0.3415 -0.0688 -0.5506
  183DOPC  H17X22549   6.456   5.724  15.200 -0.8292  1.0502  1.2446
  183DOPC  H17Y22550   6.289   5.695  15.185  1.1980  2.9563 -0.7014
  183DOPC  C31822551   6.358   5.630  15.369 -0.2926 -0.4242 -0.5642
  183DOPC  H18X22552   6.319   5.724  15.416  0.1415 -0.9811  0.9806
  183DOPC  H18Y22553   6.280   5.556  15.397  0.2411 -0.9009 -0.3250
  183DOPC  H18Z22554   6.449   5.609  15.428 -2.2805  1.7584  3.7858
  184DOPC     N22555   4.880   1.297  12.714  0.1183 -0.0504 -0.3548
  184DOPC   C1222556   4.963   1.205  12.808  0.2792 -0.1307  0.5598
  184DOPC  H12A22557   5.057   1.253  12.832 -0.8945  2.3023  0.5293
  184DOPC  H12B22558   4.981   1.111  12.758 -0.3279 -0.5549  1.1208
  184DOPC   C1322559   4.875   1.437  12.763  0.1424  0.1953  0.0390
  184DOPC  H13A22560   4.841   1.437  12.865  3.1405 -1.5969  1.1415
  184DOPC  H13B22561   4.971   1.485  12.774 -0.7893  1.9545  0.8742
  184DOPC  H13C22562   4.815   1.493  12.692  0.7585  2.7907  1.4448
  184DOPC   C1422563   4.733   1.251  12.691 -0.3657 -0.9034  0.4850
  184DOPC  H14A22564   4.663   1.280  12.768 -0.7630  1.1990 -0.5778
  184DOPC  H14B22565   4.684   1.294  12.605 -1.7071 -0.7676  1.2871
  184DOPC  H14C22566   4.734   1.143  12.685 -1.6272 -0.8479 -1.5790
  184DOPC   C1522567   4.935   1.301  12.579 -0.1347  0.4119  0.4234
  184DOPC  H15A22568   5.034   1.342  12.580  0.5269 -1.1094  0.2636
  184DOPC  H15B22569   4.867   1.357  12.516  0.6769  1.8650  0.7942
  184DOPC  H15C22570   4.943   1.201  12.540  2.5502  0.8569 -0.3427
  184DOPC   C1122571   4.897   1.145  12.937 -0.2651  0.0215 -0.3019
  184DOPC  H11A22572   4.803   1.088  12.921 -0.5358  0.3204  0.1690
  184DOPC  H11B22573   4.969   1.072  12.978  1.4886  2.0479  0.4250
  184DOPC     P22574   4.991   1.337  13.078 -0.1777  0.0798 -0.4382
  184DOPC   O1322575   4.932   1.475  13.077  0.6426 -0.3724 -0.2951
  184DOPC   O1422576   5.114   1.319  13.001  0.4637  0.4406  0.1527
  184DOPC   O1222577   4.872   1.247  13.034  0.1284  0.0441  0.0602
  184DOPC   O1122578   5.011   1.297  13.227  0.0481  0.3869  0.1249
  184DOPC    C122579   4.908   1.296  13.324  0.6196  0.6043  0.3013
  184DOPC    HA22580   4.932   1.212  13.393  0.5021  1.3428  1.2581
  184DOPC    HB22581   4.807   1.297  13.278  1.1899  1.7734 -0.9902
  184DOPC    C222582   4.916   1.416  13.429 -0.0731  0.4229  0.6222
  184DOPC    HS22583   4.892   1.506  13.369 -0.0375  0.6152  0.8946
  184DOPC   O2122584   5.050   1.425  13.487 -0.6980 -0.0043  0.1167
  184DOPC   C2122585   5.089   1.549  13.509 -0.5101 -0.1778  1.0431
  184DOPC   O2222586   5.033   1.650  13.481 -0.4175 -0.2801  0.6607
  184DOPC   C2222587   5.233   1.541  13.574 -0.1344  0.1766  0.2444
  184DOPC   H2R22588   5.310   1.530  13.495 -2.2379  1.3158 -2.0899
  184DOPC   H2S22589   5.235   1.458  13.648 -0.3510 -0.4458 -0.4355
  184DOPC    C322590   4.818   1.403  13.550  1.0227 -0.1076 -0.1333
  184DOPC    HX22591   4.845   1.312  13.608 -3.0103 -1.1283  0.3859
  184DOPC    HY22592   4.722   1.379  13.500  1.1568  1.0620 -0.9965
  184DOPC   O3122593   4.816   1.520  13.637  1.0246 -0.7910 -0.7275
  184DOPC   C3122594   4.739   1.625  13.606  0.5527  0.3256  0.0552
  184DOPC   O3222595   4.656   1.633  13.515  0.5662  0.4303 -0.7076
  184DOPC   C3222596   4.759   1.739  13.711  0.4729 -0.1783  0.1874
  184DOPC   H2X22597   4.801   1.698  13.804  1.2182 -1.2565 -0.5979
  184DOPC   H2Y22598   4.842   1.797  13.666  0.6059  1.9604  3.0062
  184DOPC   C2322599   5.266   1.675  13.652 -0.2661  1.0817  0.6114
  184DOPC   H3R22600   5.248   1.763  13.587 -0.9830  0.2285 -0.3845
  184DOPC   H3S22601   5.373   1.680  13.682 -0.3278  0.1840  1.0298
  184DOPC   C2422602   5.176   1.698  13.776 -0.2077 -0.1213  1.3000
  184DOPC   H4R22603   5.216   1.625  13.849  1.2534 -1.0824 -0.3786
  184DOPC   H4S22604   5.071   1.671  13.750  0.4058 -0.7663 -0.6602
  184DOPC   C2522605   5.182   1.841  13.827 -0.1783  0.8466 -0.2231
  184DOPC   H5R22606   5.119   1.847  13.917 -1.5974 -1.5817 -0.9694
  184DOPC   H5S22607   5.147   1.909  13.746 -1.7447 -0.1072 -0.3751
  184DOPC   C2622608   5.332   1.874  13.858  0.9764  0.2512  0.8991
  184DOPC   H6R22609   5.394   1.883  13.766  2.6036  1.4258  2.0422
  184DOPC   H6S22610   5.371   1.784  13.910  1.2007  0.5456  1.2440
  184DOPC   C2722611   5.358   1.995  13.937  0.0961 -0.0254 -0.4663
  184DOPC   H7R22612   5.462   2.003  13.974 -0.7388  1.1843  1.8402
  184DOPC   H7S22613   5.308   1.991  14.037  1.6466  2.8771  0.5557
  184DOPC   C2822614   5.312   2.132  13.881  0.6079 -0.3574  0.4925
  184DOPC   H8R22615   5.203   2.115  13.868  0.7276 -1.7278  1.0612
  184DOPC   H8S22616   5.358   2.152  13.782  0.6723 -0.8407  0.4220
  184DOPC   C2922617   5.322   2.256  13.973 -0.7337  0.4886  0.1433
  184DOPC   H9R22618   5.398   2.324  13.933 -0.3947 -0.5177 -0.9741
  184DOPC  C21022619   5.257   2.279  14.089 -0.1178 -0.5832  0.1377
  184DOPC  H10R22620   5.275   2.373  14.145 -0.8709 -0.5210  0.2804
  184DOPC  C21122621   5.158   2.187  14.164 -0.2587  0.3327  1.0513
  184DOPC  H11R22622   5.154   2.092  14.107  0.3324  0.9201  0.0090
  184DOPC  H11S22623   5.053   2.224  14.161 -1.5820 -3.1601 -0.3488
  184DOPC  C21222624   5.193   2.165  14.312  0.1427  0.6241 -0.8186
  184DOPC  H12R22625   5.231   2.254  14.367  1.4541  0.3889 -1.3123
  184DOPC  H12S22626   5.290   2.111  14.314 -1.8209 -3.3076 -0.0803
  184DOPC  C21322627   5.085   2.078  14.386 -0.7089  0.1287  0.2366
  184DOPC  H13R22628   5.085   1.979  14.335  1.2399  0.2421 -0.0906
  184DOPC  H13S22629   4.988   2.128  14.369 -0.6525  1.0528  2.3583
  184DOPC  C21422630   5.105   2.069  14.535 -0.1099 -1.2534 -0.1661
  184DOPC  H14R22631   5.118   2.171  14.577  1.8224 -1.4798 -0.0891
  184DOPC  H14S22632   5.203   2.024  14.562  0.6702  1.4129  1.8701
  184DOPC  C21522633   5.003   1.981  14.612 -0.2782 -0.5124  0.5573
  184DOPC  H15R22634   4.976   1.898  14.544  2.0198 -1.4313  0.6863
  184DOPC  H15S22635   4.917   2.047  14.637 -0.4744 -0.1208 -1.0449
  184DOPC  C21622636   5.052   1.921  14.746 -0.1773 -0.3047  0.1935
  184DOPC  H16R22637   5.119   1.833  14.736  0.3673  0.1230  0.0141
  184DOPC  H16S22638   4.957   1.891  14.795 -0.0149  1.2601  1.5598
  184DOPC  C21722639   5.122   2.019  14.836  0.0421 -0.4975 -0.3292
  184DOPC  H17R22640   5.064   2.114  14.843 -2.2730 -1.7372 -1.5424
  184DOPC  H17S22641   5.217   2.045  14.785  0.9069 -1.7397  0.6042
  184DOPC  C21822642   5.170   1.962  14.970 -0.1571 -0.5608 -0.0080
  184DOPC  H18R22643   5.183   2.043  15.045 -1.7710  0.1563 -0.4654
  184DOPC  H18S22644   5.268   1.909  14.964  0.1059  0.0254 -1.4762
  184DOPC  H18T22645   5.089   1.898  15.010 -1.7793  0.8950 -0.8335
  184DOPC   C3322646   4.628   1.819  13.724  0.2655  0.1369  0.2844
  184DOPC   H3X22647   4.535   1.760  13.714 -0.4374  1.3252 -0.3495
  184DOPC   H3Y22648   4.620   1.886  13.636 -0.4756 -1.5871 -1.0057
  184DOPC   C3422649   4.609   1.895  13.854  0.3107  0.3003 -0.0106
  184DOPC   H4X22650   4.632   1.821  13.934 -0.5403 -2.0316 -1.8080
  184DOPC   H4Y22651   4.501   1.921  13.853 -0.1570 -0.9281 -4.3062
  184DOPC   C3522652   4.687   2.023  13.854 -0.2595 -0.2190 -0.6079
  184DOPC   H5X22653   4.634   2.099  13.793 -0.9818  0.5096  0.8633
  184DOPC   H5Y22654   4.793   2.015  13.823  0.4566 -0.8668  1.7879
  184DOPC   C3622655   4.690   2.069  13.997  0.2379  0.1108  0.1874
  184DOPC   H6X22656   4.586   2.091  14.029  0.0976  2.2465 -1.4984
  184DOPC   H6Y22657   4.722   1.983  14.061 -2.6064 -1.0718  0.1430
  184DOPC   C3722658   4.779   2.193  14.027  0.2519 -0.1350  0.0679
  184DOPC   H7X22659   4.783   2.203  14.137  1.7172  0.7454 -0.0428
  184DOPC   H7Y22660   4.880   2.168  13.989 -0.2236 -1.0462 -0.6462
  184DOPC   C3822661   4.712   2.319  13.970  0.3647 -0.7727 -0.0782
  184DOPC   H8X22662   4.610   2.314  14.014  1.2226  1.0210  2.3318
  184DOPC   H8Y22663   4.686   2.316  13.862  0.1492  0.2037 -0.0580
  184DOPC   C3922664   4.787   2.450  13.989 -0.3906 -0.5711  0.2619
  184DOPC   H9X22665   4.731   2.519  14.054 -2.2445 -2.8617  1.2601
  184DOPC  C31022666   4.894   2.493  13.922 -0.3675  0.4183 -0.7340
  184DOPC  H10X22667   4.946   2.585  13.953 -0.4125 -0.2302  1.4554
  184DOPC  C31122668   4.967   2.420  13.811 -0.2557  0.6609 -0.4563
  184DOPC  H11X22669   4.915   2.326  13.783 -1.2893  1.4181 -1.1212
  184DOPC  H11Y22670   5.071   2.398  13.843  0.0556 -0.6955 -2.2485
  184DOPC  C31222671   4.969   2.505  13.677  0.7420 -0.5392 -0.2110
  184DOPC  H12X22672   4.978   2.613  13.701 -2.6486  0.4717 -2.6665
  184DOPC  H12Y22673   4.868   2.503  13.629 -0.6786  0.9694  2.4676
  184DOPC  C31322674   5.072   2.459  13.577  0.1599  0.9719  0.7352
  184DOPC  H13X22675   5.056   2.352  13.549 -0.9083  1.2093  0.4206
  184DOPC  H13Y22676   5.053   2.521  13.487  1.6768 -0.3319 -0.5677
  184DOPC  C31422677   5.215   2.474  13.617 -0.6944  0.1278  0.7173
  184DOPC  H14X22678   5.257   2.414  13.700  1.0207  1.8353  1.1448
  184DOPC  H14Y22679   5.275   2.437  13.531 -1.2841 -1.2154  0.8605
  184DOPC  C31522680   5.264   2.624  13.625  0.3801 -0.2461  0.1367
  184DOPC  H15X22681   5.216   2.662  13.717  1.1626  1.0350  0.0495
  184DOPC  H15Y22682   5.219   2.686  13.544  1.1130  2.0588  1.3917
  184DOPC  C31622683   5.420   2.638  13.624  0.4014  0.2404 -1.2296
  184DOPC  H16X22684   5.437   2.744  13.653 -0.7900  0.4337 -1.1777
  184DOPC  H16Y22685   5.456   2.574  13.708  0.9940  2.3714  0.2288
  184DOPC  C31722686   5.499   2.608  13.491 -0.2953 -0.3000  0.0226
  184DOPC  H17X22687   5.606   2.620  13.515 -0.0111  1.3561 -1.8515
  184DOPC  H17Y22688   5.500   2.509  13.441  0.2679 -0.3017  0.0321
  184DOPC  C31822689   5.460   2.705  13.376  0.1622 -0.4604  0.5675
  184DOPC  H18X22690   5.546   2.696  13.306 -1.6949  0.4240 -1.9758
  184DOPC  H18Y22691   5.371   2.675  13.317  1.2733 -0.3833 -1.2358
  184DOPC  H18Z22692   5.461   2.811  13.410  2.8327  0.5433 -2.1999
  185DOPC     N22693   5.668   7.603  12.698  0.5625  0.2142 -0.2593
  185DOPC   C1222694   5.742   7.579  12.829  0.0566  0.0094 -0.4248
  185DOPC  H12A22695   5.759   7.675  12.876  0.9040 -0.3436  0.0251
  185DOPC  H12B22696   5.839   7.539  12.803 -0.4052 -1.0963 -0.5352
  185DOPC   C1322697   5.525   7.655  12.713 -0.3419  0.3658 -0.0834
  185DOPC  H13A22698   5.518   7.740  12.780 -0.7694  0.5442 -0.3499
  185DOPC  H13B22699   5.473   7.684  12.623  0.2389 -0.0086 -0.5443
  185DOPC  H13C22700   5.468   7.575  12.757 -0.1726 -0.1273 -0.7416
  185DOPC   C1422701   5.661   7.482  12.616 -0.1180  0.7219  0.2664
  185DOPC  H14A22702   5.622   7.500  12.517 -0.2928  0.4233  0.2789
  185DOPC  H14B22703   5.761   7.457  12.586  0.0613  0.9461  0.6745
  185DOPC  H14C22704   5.619   7.398  12.669 -0.1480  0.8531  0.4540
  185DOPC   C1522705   5.740   7.703  12.615  0.0897  0.5557  0.1571
  185DOPC  H15A22706   5.846   7.683  12.607  0.3861  1.1710  1.9272
  185DOPC  H15B22707   5.723   7.798  12.664  1.7949  0.5322  0.8668
  185DOPC  H15C22708   5.700   7.716  12.516  1.1202 -0.7974 -0.4750
  185DOPC   C1122709   5.680   7.485  12.931 -0.0608 -0.3102 -0.3452
  185DOPC  H11A22710   5.737   7.496  13.025 -0.0940  2.2226 -0.5459
  185DOPC  H11B22711   5.574   7.513  12.945 -0.2429 -0.0152 -2.0077
  185DOPC     P22712   5.823   7.273  12.876  0.3410 -0.0376 -0.2931
  185DOPC   O1322713   5.911   7.358  12.798 -0.2629 -0.4745 -0.1064
  185DOPC   O1422714   5.797   7.139  12.824  0.1934  0.5852  0.5523
  185DOPC   O1222715   5.680   7.345  12.884  0.0393  0.0411 -0.3457
  185DOPC   O1122716   5.867   7.266  13.025  0.2774 -0.4024  0.0244
  185DOPC    C122717   5.773   7.239  13.134 -0.7832  0.0353  0.3547
  185DOPC    HA22718   5.666   7.266  13.124 -1.1990 -0.1654  3.2983
  185DOPC    HB22719   5.808   7.290  13.226  1.8460 -0.2741 -0.4089
  185DOPC    C222720   5.800   7.094  13.184 -0.2680  0.0318  0.6472
  185DOPC    HS22721   5.785   7.030  13.094  3.1916 -0.2369  0.1338
  185DOPC   O2122722   5.702   7.071  13.283  0.2537  0.3742  0.1877
  185DOPC   C2122723   5.670   6.938  13.288 -0.6976 -0.9302 -0.3492
  185DOPC   O2222724   5.720   6.847  13.227  0.3267 -0.0226 -0.3850
  185DOPC   C2222725   5.548   6.920  13.381 -0.0570  0.3648  0.2844
  185DOPC   H2R22726   5.495   6.833  13.336 -1.1330  0.5207  1.2034
  185DOPC   H2S22727   5.484   7.010  13.392 -0.1643  0.4641 -1.0472
  185DOPC    C322728   5.943   7.068  13.242 -0.1496 -0.0770  0.5852
  185DOPC    HX22729   6.022   7.088  13.167 -0.9636  0.2057 -0.2090
  185DOPC    HY22730   5.946   6.958  13.260 -0.8306 -0.6972 -2.5598
  185DOPC   O3122731   5.976   7.152  13.355  0.1941 -0.5160  0.3141
  185DOPC   C3122732   5.962   7.092  13.462 -0.0440  0.5347 -0.2464
  185DOPC   O3222733   5.895   6.988  13.485 -0.4612 -0.0784 -0.1704
  185DOPC   C3222734   6.038   7.167  13.575  0.1265 -0.9752  0.5649
  185DOPC   H2X22735   6.136   7.203  13.539 -0.9795  0.8898 -0.7719
  185DOPC   H2Y22736   5.974   7.258  13.581  3.5212  1.9391 -2.6697
  185DOPC   C2322737   5.594   6.867  13.523 -0.9029  0.1391  0.0711
  185DOPC   H3R22738   5.658   6.933  13.586  0.5096 -1.4360  0.3576
  185DOPC   H3S22739   5.656   6.780  13.493 -0.4864 -0.2301  1.8641
  185DOPC   C2422740   5.473   6.833  13.604  0.0675  0.3323 -0.0902
  185DOPC   H4R22741   5.388   6.779  13.558 -2.8609  1.3009  3.6685
  185DOPC   H4S22742   5.436   6.930  13.645  1.0820  0.1107  1.4391
  185DOPC   C2522743   5.508   6.745  13.721 -0.2167  0.2703 -0.2330
  185DOPC   H5R22744   5.593   6.796  13.771 -0.3932 -0.1182  0.4771
  185DOPC   H5S22745   5.562   6.651  13.699  2.2378  1.2395  1.2756
  185DOPC   C2622746   5.388   6.720  13.813 -0.3587 -0.0604  0.5453
  185DOPC   H6R22747   5.302   6.697  13.747 -0.0902  0.8596 -0.1381
  185DOPC   H6S22748   5.378   6.818  13.864  2.8157  0.7181 -0.1179
  185DOPC   C2722749   5.420   6.613  13.925  0.3362 -0.6509  0.7017
  185DOPC   H7R22750   5.527   6.631  13.950  0.0917  1.4778  0.4419
  185DOPC   H7S22751   5.420   6.513  13.876  1.7828 -0.8105  0.9748
  185DOPC   C2822752   5.337   6.630  14.050  0.1882  0.1113  0.2005
  185DOPC   H8R22753   5.338   6.736  14.084  0.1174 -0.3607  1.7712
  185DOPC   H8S22754   5.393   6.584  14.135 -2.0108 -1.1983  1.0314
  185DOPC   C2922755   5.206   6.560  14.032  0.4713  0.2968  0.9119
  185DOPC   H9R22756   5.221   6.452  14.025  1.8091  0.5057  0.2604
  185DOPC  C21022757   5.091   6.626  14.031  0.5283  0.5339  0.0964
  185DOPC  H10R22758   5.004   6.559  14.029  0.6901  0.3339 -0.4493
  185DOPC  C21122759   5.070   6.777  14.056  0.7886 -0.0198 -0.3574
  185DOPC  H11R22760   5.016   6.831  13.975  1.7214  1.1388 -0.2491
  185DOPC  H11S22761   5.165   6.835  14.054  0.5929  0.3892  1.2127
  185DOPC  C21222762   5.002   6.780  14.195 -0.0012 -0.3982 -0.6726
  185DOPC  H12R22763   5.073   6.736  14.268  4.9814  2.4669 -3.2677
  185DOPC  H12S22764   4.903   6.730  14.183 -0.1009  0.2685 -3.1088
  185DOPC  C21322765   4.982   6.922  14.252 -0.7206 -0.1149 -0.0605
  185DOPC  H13R22766   4.902   6.980  14.202 -0.6897  1.6089  1.7317
  185DOPC  H13S22767   5.076   6.976  14.225 -0.0637 -1.1340  0.1486
  185DOPC  C21422768   4.961   6.938  14.403 -0.4558 -0.1360  0.7815
  185DOPC  H14R22769   4.865   6.887  14.423 -0.7538 -0.4087 -1.1753
  185DOPC  H14S22770   4.953   7.048  14.422  1.3669 -0.1836  2.0951
  185DOPC  C21522771   5.069   6.889  14.490  0.2217 -0.7904 -0.7948
  185DOPC  H15R22772   5.075   6.778  14.487  1.4439 -0.9037  2.2909
  185DOPC  H15S22773   5.045   6.928  14.591  0.5047  1.0059 -1.3789
  185DOPC  C21622774   5.212   6.933  14.471  0.0713  0.5126  0.9037
  185DOPC  H16R22775   5.243   6.916  14.366 -2.2499 -0.1660  0.2686
  185DOPC  H16S22776   5.289   6.875  14.527 -0.8954  0.0481  1.8031
  185DOPC  C21722777   5.232   7.083  14.503  0.6657 -0.4089  0.4229
  185DOPC  H17R22778   5.192   7.099  14.606  0.9940 -2.4938  0.9344
  185DOPC  H17S22779   5.160   7.135  14.436  1.5157 -0.9537 -0.9454
  185DOPC  C21822780   5.375   7.144  14.488 -0.1268 -0.0439 -0.3559
  185DOPC  H18R22781   5.372   7.254  14.502 -0.7266 -0.4171  3.5905
  185DOPC  H18S22782   5.424   7.113  14.393 -1.5119 -5.0596  0.2730
  185DOPC  H18T22783   5.448   7.097  14.559  0.1490 -0.5856 -0.9865
  185DOPC   C3322784   6.062   7.071  13.694 -0.5238  0.1428  0.3793
  185DOPC   H3X22785   6.125   6.988  13.656 -0.3347  0.8895 -0.9813
  185DOPC   H3Y22786   5.962   7.037  13.729 -1.1909  0.0233 -1.5503
  185DOPC   C3422787   6.137   7.140  13.814  0.1067 -0.3801  0.0225
  185DOPC   H4X22788   6.066   7.210  13.864 -1.3233 -0.4478 -1.7819
  185DOPC   H4Y22789   6.226   7.197  13.782 -1.0461  1.2831 -0.3641
  185DOPC   C3522790   6.185   7.036  13.917 -0.0160  0.4427 -0.0409
  185DOPC   H5X22791   6.253   6.964  13.867  0.3732  1.8715 -1.6809
  185DOPC   H5Y22792   6.095   6.977  13.946  0.4815 -0.1937  0.2415
  185DOPC   C3622793   6.261   7.082  14.040 -0.3600 -0.2015 -0.1792
  185DOPC   H6X22794   6.191   7.107  14.122  0.4293 -1.5158  0.9380
  185DOPC   H6Y22795   6.307   6.991  14.084 -1.3996 -0.3241  0.6626
  185DOPC   C3722796   6.364   7.195  14.022 -0.2925 -0.1046  0.0093
  185DOPC   H7X22797   6.439   7.170  13.943 -0.2562  0.6113 -0.1942
  185DOPC   H7Y22798   6.307   7.278  13.976 -0.7820 -0.7503 -0.5724
  185DOPC   C3822799   6.436   7.240  14.156  0.3276 -0.1461  0.4928
  185DOPC   H8X22800   6.368   7.312  14.207  0.4064  1.2281 -1.2814
  185DOPC   H8Y22801   6.518   7.309  14.130  0.9620 -1.0965 -0.0776
  185DOPC   C3922802   6.495   7.118  14.225  0.7597  0.4126 -0.3246
  185DOPC   H9X22803   6.540   7.039  14.164  1.9183  1.7068 -1.1968
  185DOPC  C31022804   6.485   7.101  14.352 -0.1165 -0.0350 -0.9926
  185DOPC  H10X22805   6.526   7.013  14.403 -0.9675  0.6512  0.9920
  185DOPC  C31122806   6.420   7.198  14.453  0.0748  0.1560  1.0325
  185DOPC  H11X22807   6.400   7.297  14.407 -0.4662 -0.3534  0.1336
  185DOPC  H11Y22808   6.483   7.223  14.541  1.0962 -1.0011  0.6565
  185DOPC  C31222809   6.297   7.127  14.520 -0.4205  0.1430 -0.0875
  185DOPC  H12X22810   6.334   7.032  14.565 -0.3708  0.3114  0.2291
  185DOPC  H12Y22811   6.221   7.105  14.441 -0.4484 -0.3303  0.0662
  185DOPC  C31322812   6.242   7.210  14.639  0.8635 -0.2397  0.1098
  185DOPC  H13X22813   6.207   7.309  14.601 -0.1879  0.7846  3.3961
  185DOPC  H13Y22814   6.145   7.161  14.660 -0.4939  0.5727 -3.3831
  185DOPC  C31422815   6.329   7.232  14.759  0.4492 -0.5590  0.0714
  185DOPC  H14X22816   6.438   7.243  14.739  0.7801 -0.1366  1.9064
  185DOPC  H14Y22817   6.295   7.319  14.818  1.7208 -1.0929  1.6568
  185DOPC  C31522818   6.331   7.103  14.855 -0.1172  0.0965 -0.2054
  185DOPC  H15X22819   6.414   7.101  14.929 -1.7762 -0.5898  1.7098
  185DOPC  H15Y22820   6.347   7.015  14.789 -0.3359 -1.0995  1.2772
  185DOPC  C31622821   6.196   7.091  14.929  0.5644  0.2310  0.7903
  185DOPC  H16X22822   6.188   7.180  14.995 -1.8769  0.1888  0.6156
  185DOPC  H16Y22823   6.108   7.088  14.861  2.1633 -2.0754 -1.3724
  185DOPC  C31722824   6.200   6.964  15.020 -0.0640  0.5836 -0.1777
  185DOPC  H17X22825   6.180   6.878  14.952 -2.2872  0.5957  0.3834
  185DOPC  H17Y22826   6.303   6.955  15.061 -0.1259 -1.4159 -0.3492
  185DOPC  C31822827   6.095   6.956  15.131 -0.1939 -0.1814  0.2271
  185DOPC  H18X22828   6.102   7.045  15.195  0.7220  0.0081 -0.1242
  185DOPC  H18Y22829   5.998   6.945  15.078 -0.6766  1.1678  0.7957
  185DOPC  H18Z22830   6.120   6.865  15.189  0.6272  1.3174  2.3258
  186DOPC     N22831   0.015   2.235  12.977  0.4826 -0.6770 -0.2749
  186DOPC   C1222832   0.141   2.276  12.911 -0.8463 -0.4986 -0.1504
  186DOPC  H12A22833   0.159   2.381  12.932 -1.9662 -0.6501  1.7788
  186DOPC  H12B22834   0.137   2.270  12.803  0.9062 -2.5545 -0.1586
  186DOPC   C1322835   0.033   2.229  13.119  0.1792 -0.3774  0.2901
  186DOPC  H13A22836   0.069   2.322  13.161  1.3947 -1.1270  0.9603
  186DOPC  H13B22837  -0.051   2.199  13.180  0.6212  0.9112  1.5835
  186DOPC  H13C22838   0.114   2.164  13.149  0.0821 -0.2136  0.9106
  186DOPC   C1422839  -0.011   2.098  12.933 -0.2215  0.7171  0.2031
  186DOPC  H14A22840   0.047   2.017  12.976 -1.8324 -1.6964 -1.8568
  186DOPC  H14B22841  -0.110   2.070  12.967  0.0992 -1.4828 -0.5040
  186DOPC  H14C22842  -0.001   2.082  12.827 -0.7663 -2.3167  0.5064
  186DOPC   C1522843  -0.106   2.319  12.936  0.1098  0.0231 -0.5645
  186DOPC  H15A22844  -0.192   2.289  12.995 -0.1457  1.7386 -0.0142
  186DOPC  H15B22845  -0.125   2.309  12.830 -1.2032 -2.0602 -0.1958
  186DOPC  H15C22846  -0.094   2.425  12.952 -1.9280  0.3295 -0.8525
  186DOPC   C1122847   0.261   2.183  12.946  0.7111  0.2645  0.6284
  186DOPC  H11A22848   0.236   2.079  12.918 -3.4911  1.8474 -2.3625
  186DOPC  H11B22849   0.336   2.220  12.872 -0.9237 -0.2470 -1.3815
  186DOPC     P22850   0.457   2.187  13.112 -0.4104  0.3836 -0.2690
  186DOPC   O1322851   0.521   2.318  13.136 -0.4384  0.0064  0.2910
  186DOPC   O1422852   0.536   2.108  13.014  0.1264  0.8407  0.2266
  186DOPC   O1222853   0.303   2.192  13.080 -0.2304 -0.3031  0.5529
  186DOPC   O1122854   0.461   2.111  13.249 -0.2229  0.2312  0.2360
  186DOPC    C122855   0.348   2.040  13.299 -0.1463  1.4552 -0.0020
  186DOPC    HA22856   0.354   1.935  13.263  2.2300  0.9443  1.6587
  186DOPC    HB22857   0.245   2.076  13.275  0.2877  1.7564 -1.5038
  186DOPC    C222858   0.346   2.036  13.451 -0.4549  0.0961 -0.0620
  186DOPC    HS22859   0.249   2.000  13.490  0.3421  0.0245  1.9829
  186DOPC   O2122860   0.372   2.165  13.507 -0.0909  0.9870  0.4006
  186DOPC   C2122861   0.282   2.262  13.472 -0.2755 -0.2124  0.7748
  186DOPC   O2222862   0.178   2.253  13.414 -0.6149  0.0937  0.4021
  186DOPC   C2222863   0.335   2.390  13.529 -0.7024  0.6912  0.3183
  186DOPC   H2R22864   0.290   2.482  13.486  1.2353  3.2923  3.3748
  186DOPC   H2S22865   0.439   2.400  13.492 -0.9425  0.7693 -0.3441
  186DOPC    C322866   0.439   1.938  13.512 -0.3455 -0.0968  1.1191
  186DOPC    HX22867   0.543   1.966  13.485 -0.3396 -2.9510 -2.5711
  186DOPC    HY22868   0.441   1.842  13.456  2.1753  0.4895  0.0634
  186DOPC   O3122869   0.414   1.922  13.654  0.4455  0.6489  0.0644
  186DOPC   C3122870   0.521   1.887  13.721  0.3984 -0.7890 -0.1240
  186DOPC   O3222871   0.637   1.885  13.682 -0.2383 -0.1221  0.2147
  186DOPC   C3222872   0.492   1.881  13.872 -0.2491  0.3031 -0.5919
  186DOPC   H2X22873   0.385   1.851  13.882  0.1336 -1.1420 -0.5433
  186DOPC   H2Y22874   0.561   1.804  13.912 -0.5516  0.5904  0.5079
  186DOPC   C2322875   0.326   2.387  13.683  1.3182  0.6233 -0.0170
  186DOPC   H3R22876   0.363   2.289  13.722  2.3190 -0.0681 -2.5229
  186DOPC   H3S22877   0.218   2.401  13.704  1.2582  0.8676 -0.4800
  186DOPC   C2422878   0.414   2.490  13.751  0.6190 -0.3033 -0.2808
  186DOPC   H4R22879   0.365   2.589  13.741 -0.9580 -1.0343 -0.1641
  186DOPC   H4S22880   0.508   2.494  13.691  0.4771 -1.8702 -0.6546
  186DOPC   C2522881   0.441   2.446  13.898 -0.3122  0.3739 -0.0700
  186DOPC   H5R22882   0.499   2.520  13.957  2.5975 -0.3742 -1.7929
  186DOPC   H5S22883   0.492   2.347  13.892 -1.0442 -0.0386  0.3852
  186DOPC   C2622884   0.320   2.414  13.982  0.0933  0.3860  0.3533
  186DOPC   H6R22885   0.347   2.361  14.075  0.0605  1.3599  0.9263
  186DOPC   H6S22886   0.252   2.341  13.932 -0.2356  1.0596 -0.2108
  186DOPC   C2722887   0.247   2.545  14.023 -0.1079  1.0876 -0.7338
  186DOPC   H7R22888   0.152   2.515  14.073 -0.4851 -1.3086 -2.7321
  186DOPC   H7S22889   0.210   2.600  13.934 -0.7448  1.4398 -0.2640
  186DOPC   C2822890   0.335   2.650  14.100 -0.8021 -0.7291 -0.1441
  186DOPC   H8R22891   0.417   2.688  14.035  0.4999 -1.8050  0.7987
  186DOPC   H8S22892   0.386   2.591  14.180  1.6045 -0.3821 -1.3273
  186DOPC   C2922893   0.252   2.760  14.170  0.0395  0.2341 -0.4868
  186DOPC   H9R22894   0.145   2.734  14.170 -0.0413  0.5094 -1.5006
  186DOPC  C21022895   0.292   2.884  14.196 -0.1743 -0.0857  0.0115
  186DOPC  H10R22896   0.235   2.963  14.246 -1.6338 -1.6882  0.9744
  186DOPC  C21122897   0.431   2.926  14.176 -0.0584 -0.5860  0.0940
  186DOPC  H11R22898   0.441   2.996  14.090  0.1744 -0.8142 -0.0672
  186DOPC  H11S22899   0.507   2.852  14.144 -0.4910 -1.0583  0.1548
  186DOPC  C21222900   0.488   2.990  14.305 -0.2230  0.0267  0.5008
  186DOPC  H12R22901   0.455   3.095  14.316  1.8597  0.6126  1.7312
  186DOPC  H12S22902   0.595   3.002  14.279 -0.2115  0.4529  0.7414
  186DOPC  C21322903   0.489   2.898  14.427  0.0683 -0.2257  0.1783
  186DOPC  H13R22904   0.527   2.795  14.411 -1.5478 -1.2862  2.6299
  186DOPC  H13S22905   0.387   2.890  14.470 -0.1119 -1.0843 -0.3873
  186DOPC  C21422906   0.573   2.969  14.537 -0.7539 -0.0646  0.6009
  186DOPC  H14R22907   0.673   2.981  14.490 -0.4810  3.3834  1.7607
  186DOPC  H14S22908   0.570   2.898  14.623 -2.0233 -1.2120 -0.3480
  186DOPC  C21522909   0.530   3.118  14.576  0.3282 -0.0093 -1.1369
  186DOPC  H15R22910   0.552   3.120  14.685  0.0125  1.3610 -1.0926
  186DOPC  H15S22911   0.423   3.138  14.558 -0.3070 -1.0422  1.0773
  186DOPC  C21622912   0.625   3.223  14.514 -0.6810 -0.4816 -0.1245
  186DOPC  H16R22913   0.620   3.217  14.403 -1.4496 -2.1187 -0.0276
  186DOPC  H16S22914   0.725   3.179  14.533 -0.7281 -0.0378  1.2309
  186DOPC  C21722915   0.629   3.361  14.572 -0.7155 -0.5280  0.2053
  186DOPC  H17R22916   0.527   3.396  14.543 -0.3470 -0.6407 -1.2681
  186DOPC  H17S22917   0.698   3.428  14.516 -1.6236 -0.7837 -1.2784
  186DOPC  C21822918   0.663   3.370  14.727  0.1830  0.6998  0.5563
  186DOPC  H18R22919   0.765   3.327  14.732 -0.0556  0.2052  1.2534
  186DOPC  H18S22920   0.595   3.314  14.794 -0.0683  0.4449  0.0989
  186DOPC  H18T22921   0.667   3.475  14.764 -0.1739  0.9128  0.0012
  186DOPC   C3322922   0.532   2.008  13.949  0.7190  0.1258  0.5470
  186DOPC   H3X22923   0.474   2.009  14.043 -0.9816 -0.9743 -0.4346
  186DOPC   H3Y22924   0.487   2.101  13.907  0.0954 -0.8564 -1.0315
  186DOPC   C3422925   0.681   2.014  13.967 -0.3877 -0.1072  0.5115
  186DOPC   H4X22926   0.714   2.120  13.972 -1.9375  0.5670 -1.9244
  186DOPC   H4Y22927   0.744   1.979  13.882 -0.8985  1.0245 -0.3448
  186DOPC   C3522928   0.729   1.936  14.087  0.0754 -0.0304  1.2251
  186DOPC   H5X22929   0.727   1.826  14.068 -0.9471  0.3593 -1.2272
  186DOPC   H5Y22930   0.647   1.951  14.160 -2.4605 -3.3891 -0.6464
  186DOPC   C3622931   0.864   1.974  14.153  0.3076 -0.1089  0.1717
  186DOPC   H6X22932   0.946   1.981  14.079  1.4063 -0.4911  1.3150
  186DOPC   H6Y22933   0.854   2.079  14.190 -1.0479  0.6519 -2.1246
  186DOPC   C3722934   0.908   1.887  14.275  0.4744  0.1058  0.9692
  186DOPC   H7X22935   0.916   1.783  14.237  2.7994 -0.1496  1.9659
  186DOPC   H7Y22936   1.010   1.923  14.300  0.6810  0.3414 -0.1676
  186DOPC   C3822937   0.802   1.892  14.387 -0.5458 -0.2236 -0.3697
  186DOPC   H8X22938   0.695   1.884  14.360 -0.3559 -0.0811 -1.1824
  186DOPC   H8Y22939   0.820   1.988  14.441 -1.4091 -0.7777  0.9728
  186DOPC   C3922940   0.846   1.800  14.500  0.3773  0.2956  0.2875
  186DOPC   H9X22941   0.946   1.816  14.542  0.0646  0.1867  1.0877
  186DOPC  C31022942   0.769   1.702  14.553 -0.6058  0.1763 -0.8710
  186DOPC  H10X22943   0.810   1.635  14.630  1.6605  2.2623 -0.1137
  186DOPC  C31122944   0.627   1.671  14.505 -0.0520 -0.4237  0.5041
  186DOPC  H11X22945   0.622   1.636  14.400 -1.3664  0.6650  0.1710
  186DOPC  H11Y22946   0.576   1.770  14.499  0.2569 -0.3462 -2.3148
  186DOPC  C31222947   0.559   1.563  14.586  0.3528  0.0984 -0.4516
  186DOPC  H12X22948   0.452   1.591  14.571  0.4453  0.6979 -0.0492
  186DOPC  H12Y22949   0.580   1.573  14.695  0.1311  0.8172 -0.4650
  186DOPC  C31322950   0.578   1.427  14.519 -0.5473  0.0756  0.4503
  186DOPC  H13X22951   0.556   1.421  14.410 -5.0111 -1.5549  1.2374
  186DOPC  H13Y22952   0.683   1.394  14.530 -1.1591 -2.8539 -1.3597
  186DOPC  C31422953   0.490   1.314  14.575 -0.1935  0.3637 -0.6192
  186DOPC  H14X22954   0.522   1.219  14.527 -2.3006 -1.2220  0.9193
  186DOPC  H14Y22955   0.493   1.293  14.684  0.1468  1.2545 -0.4493
  186DOPC  C31522956   0.341   1.322  14.543  0.2683  0.1477 -0.1655
  186DOPC  H15X22957   0.335   1.324  14.432 -1.9986  0.5787 -0.0925
  186DOPC  H15Y22958   0.300   1.416  14.587  0.9766 -0.1742  1.2373
  186DOPC  C31622959   0.261   1.201  14.598 -0.3553 -0.3015 -0.4317
  186DOPC  H16X22960   0.300   1.113  14.542 -0.4098 -0.6725  0.1012
  186DOPC  H16Y22961   0.282   1.174  14.704  1.2117 -1.6140 -1.0374
  186DOPC  C31722962   0.110   1.205  14.576 -0.1621  0.5773  0.7198
  186DOPC  H17X22963   0.052   1.114  14.602 -0.4997 -0.8377 -4.0643
  186DOPC  H17Y22964   0.070   1.285  14.644 -0.5872  0.8081  0.2059
  186DOPC  C31822965   0.077   1.232  14.431 -0.3873 -0.3409 -0.2942
  186DOPC  H18X22966   0.095   1.340  14.409 -1.2729 -0.3364 -1.0280
  186DOPC  H18Y22967   0.142   1.179  14.359 -1.1055  0.2459 -1.3919
  186DOPC  H18Z22968  -0.021   1.202  14.389  0.0888  0.6250 -2.1919
  187DOPC     N22969   6.274   1.419  12.703  0.0357  0.1029 -0.1176
  187DOPC   C1222970   6.383   1.421  12.813  0.1199 -0.4180 -0.0771
  187DOPC  H12A22971   6.440   1.511  12.795  0.2851 -0.4484  0.2956
  187DOPC  H12B22972   6.449   1.337  12.794 -0.2743 -0.9315  0.7734
  187DOPC   C1322973   6.344   1.427  12.569 -0.6229  0.0127  0.0147
  187DOPC  H13A22974   6.274   1.451  12.490 -1.4585  1.4391  1.1326
  187DOPC  H13B22975   6.423   1.501  12.564  0.4204 -1.1587 -1.4980
  187DOPC  H13C22976   6.392   1.333  12.548  0.2146  0.5421 -0.5220
  187DOPC   C1422977   6.185   1.542  12.720 -0.3240  0.1003  0.4902
  187DOPC  H14A22978   6.113   1.542  12.639 -1.4582 -0.1332  1.4626
  187DOPC  H14B22979   6.121   1.546  12.807  0.1916  1.6341  0.8276
  187DOPC  H14C22980   6.246   1.631  12.715  1.9687 -1.4491 -2.9196
  187DOPC   C1522981   6.190   1.292  12.708  0.8658 -0.7467 -0.1538
  187DOPC  H15A22982   6.113   1.293  12.633 -0.5444 -0.9005  1.2495
  187DOPC  H15B22983   6.140   1.295  12.803  2.3435 -2.4260  0.7400
  187DOPC  H15C22984   6.239   1.197  12.692  1.2530 -0.6742  0.5555
  187DOPC   C1122985   6.340   1.405  12.959 -0.2010 -0.4392  0.1757
  187DOPC  H11A22986   6.303   1.302  12.981  0.6412 -1.2155 -1.8542
  187DOPC  H11B22987   6.440   1.408  13.007  0.8024  1.4132 -1.8681
  187DOPC     P22988   6.288   1.651  13.035  0.0748 -0.2390 -0.1961
  187DOPC   O1322989   6.169   1.731  13.009  0.0847  0.1199  0.4034
  187DOPC   O1422990   6.419   1.687  12.973  0.2547 -0.3040 -0.5131
  187DOPC   O1222991   6.245   1.501  13.016 -0.0271 -0.0432  0.0949
  187DOPC   O1122992   6.311   1.635  13.195  0.3232 -0.1020 -0.1694
  187DOPC    C122993   6.215   1.575  13.275  0.5540  0.5969 -0.1932
  187DOPC    HA22994   6.187   1.472  13.243 -1.1891  1.4055 -1.4294
  187DOPC    HB22995   6.123   1.636  13.286  0.6505  1.0787 -1.7325
  187DOPC    C222996   6.282   1.552  13.418 -0.2666  0.6481  0.3906
  187DOPC    HS22997   6.224   1.469  13.464 -0.9476  1.1602  0.4671
  187DOPC   O2122998   6.283   1.679  13.487  0.1235 -0.2955 -0.2508
  187DOPC   C2122999   6.172   1.703  13.555  1.2437 -0.1688 -0.8799
  187DOPC   O2223000   6.070   1.635  13.564 -0.1980  0.5359  0.6818
  187DOPC   C2223001   6.188   1.832  13.632 -0.0033 -0.3348  0.2682
  187DOPC   H2R23002   6.162   1.916  13.564 -1.0204 -0.7564  0.1286
  187DOPC   H2S23003   6.294   1.838  13.665  0.0850 -0.4319  0.0050
  187DOPC    C323004   6.427   1.495  13.395 -0.5762 -0.3058 -0.7307
  187DOPC    HX23005   6.487   1.576  13.348 -0.3126  0.9026  1.5393
  187DOPC    HY23006   6.428   1.410  13.324 -1.3382  0.6413 -1.9052
  187DOPC   O3123007   6.497   1.459  13.511  0.5131  0.6467  0.1751
  187DOPC   C3123008   6.468   1.343  13.559 -0.2722  0.4511  0.0219
  187DOPC   O3223009   6.387   1.261  13.518 -0.3221  0.3635 -0.0122
  187DOPC   C3223010   6.559   1.319  13.678 -0.3836  0.5965 -0.6180
  187DOPC   H2X23011   6.560   1.210  13.700  0.3990  0.4359 -1.4521
  187DOPC   H2Y23012   6.664   1.340  13.652 -0.0789 -2.0409 -1.7298
  187DOPC   C2323013   6.099   1.843  13.760  0.4726  0.8097  0.4773
  187DOPC   H3R23014   5.998   1.802  13.741  0.4562  0.6681  0.8642
  187DOPC   H3S23015   6.077   1.949  13.786 -1.5843  0.2857  1.0262
  187DOPC   C2423016   6.168   1.782  13.888 -0.6383  0.2047 -0.3312
  187DOPC   H4R23017   6.265   1.834  13.903 -1.1475  1.7543 -2.0459
  187DOPC   H4S23018   6.185   1.673  13.872  2.0162  0.4948  0.0300
  187DOPC   C2523019   6.085   1.791  14.007  0.2716 -0.1578 -0.6431
  187DOPC   H5R23020   5.978   1.808  13.983 -0.8086 -2.7445  1.7214
  187DOPC   H5S23021   6.124   1.872  14.074 -1.2680 -0.0603  0.1706
  187DOPC   C2623022   6.097   1.661  14.091  0.4514  0.7047  0.3566
  187DOPC   H6R23023   6.203   1.630  14.100 -0.0454 -0.5727  2.5571
  187DOPC   H6S23024   6.040   1.582  14.038 -1.4683  1.4521  1.2060
  187DOPC   C2723025   6.043   1.671  14.231 -0.2844  0.6456 -0.1759
  187DOPC   H7R23026   5.939   1.709  14.236  0.2365  2.0540  0.5411
  187DOPC   H7S23027   6.101   1.741  14.295 -1.5934  0.3563  1.3804
  187DOPC   C2823028   6.039   1.536  14.309 -0.5670  0.2132 -0.1160
  187DOPC   H8R23029   5.989   1.568  14.404  1.8627 -0.1233  1.3586
  187DOPC   H8S23030   6.141   1.501  14.335 -0.6600  0.4013  0.5245
  187DOPC   C2923031   5.950   1.423  14.243 -0.3885 -0.8890  0.1375
  187DOPC   H9R23032   5.971   1.392  14.140 -1.5560 -0.2164 -0.3273
  187DOPC  C21023033   5.854   1.355  14.303 -0.0951  0.6732  0.4289
  187DOPC  H10R23034   5.806   1.274  14.246 -1.0394  2.3985 -1.3349
  187DOPC  C21123035   5.810   1.378  14.442 -0.5270 -0.1476  0.5325
  187DOPC  H11R23036   5.734   1.457  14.456  0.4401  0.6280  1.6848
  187DOPC  H11S23037   5.898   1.407  14.503 -1.4119 -2.6062  3.1985
  187DOPC  C21223038   5.737   1.260  14.513  0.0389  0.0123  0.6279
  187DOPC  H12R23039   5.702   1.284  14.616 -1.5066  0.0968  0.1169
  187DOPC  H12S23040   5.810   1.176  14.516  0.8320  0.7064  2.5859
  187DOPC  C21323041   5.607   1.230  14.433 -0.2548 -0.0188  0.4522
  187DOPC  H13R23042   5.634   1.211  14.327 -0.8341  0.6523  0.1704
  187DOPC  H13S23043   5.545   1.322  14.433 -2.3437 -1.3679 -0.1219
  187DOPC  C21423044   5.521   1.118  14.490  0.1954  0.2211 -0.6674
  187DOPC  H14R23045   5.486   1.155  14.589 -0.6141  0.0017 -0.8659
  187DOPC  H14S23046   5.588   1.032  14.511  0.6917  0.8258  0.3181
  187DOPC  C21523047   5.397   1.086  14.404  0.1002 -0.1941 -0.2186
  187DOPC  H15R23048   5.446   1.049  14.311  3.9709  3.1251  0.1804
  187DOPC  H15S23049   5.343   1.180  14.377  3.0141  1.9839  0.9568
  187DOPC  C21623050   5.296   0.990  14.468 -0.4413  0.3765  0.6245
  187DOPC  H16R23051   5.231   1.033  14.547 -0.7436 -1.5853  1.4870
  187DOPC  H16S23052   5.354   0.904  14.508 -0.7933 -1.1711 -1.9458
  187DOPC  C21723053   5.194   0.941  14.368 -0.5655 -0.4408  1.5315
  187DOPC  H17R23054   5.134   1.032  14.346 -0.3398 -0.7586 -0.6589
  187DOPC  H17S23055   5.129   0.857  14.397  2.7437 -4.1803 -0.8451
  187DOPC  C21823056   5.248   0.898  14.226  0.2369  0.7668 -0.4142
  187DOPC  H18R23057   5.333   0.826  14.229  0.6843  1.2930 -0.4320
  187DOPC  H18S23058   5.288   0.983  14.167 -0.5484  1.1600 -0.3902
  187DOPC  H18T23059   5.161   0.852  14.173  0.0981  0.9462 -0.3430
  187DOPC   C3323060   6.517   1.414  13.788 -0.0975  0.4411 -0.4664
  187DOPC   H3X23061   6.423   1.376  13.834 -0.0293 -0.7710 -1.3085
  187DOPC   H3Y23062   6.499   1.518  13.753 -0.0714  0.7774  0.4863
  187DOPC   C3423063   6.626   1.423  13.899 -0.1357  0.2623  0.2435
  187DOPC   H4X23064   6.723   1.444  13.850 -0.2595  0.5681  0.1332
  187DOPC   H4Y23065   6.649   1.319  13.933  0.9435 -0.3700 -2.2329
  187DOPC   C3523066   6.595   1.509  14.021  0.0641 -0.4830 -0.4056
  187DOPC   H5X23067   6.500   1.489  14.075  0.2336  1.4331  0.6910
  187DOPC   H5Y23068   6.576   1.608  13.974  1.1586 -0.6272 -1.1954
  187DOPC   C3623069   6.698   1.520  14.123 -0.0599  0.6547  0.2083
  187DOPC   H6X23070   6.790   1.571  14.086  0.8375 -0.7267  0.4966
  187DOPC   H6Y23071   6.665   1.563  14.220  0.6579 -2.6846  2.0627
  187DOPC   C3723072   6.763   1.386  14.174  0.5763  0.6154 -0.0267
  187DOPC   H7X23073   6.820   1.337  14.092  3.3955 -0.4746  2.3806
  187DOPC   H7Y23074   6.837   1.419  14.250  1.1811 -1.6757  0.4685
  187DOPC   C3823075   6.675   1.285  14.247  0.1186 -0.1313  0.3477
  187DOPC   H8X23076   6.739   1.207  14.295 -2.3903 -1.0520  2.4008
  187DOPC   H8Y23077   6.627   1.226  14.166  0.1632 -0.7650  0.7742
  187DOPC   C3923078   6.574   1.349  14.344  0.0009  0.0443 -0.1329
  187DOPC   H9X23079   6.489   1.390  14.289  0.1192  0.4189 -0.0381
  187DOPC  C31023080   6.569   1.361  14.480 -0.2917  0.2705 -0.0459
  187DOPC  H10X23081   6.503   1.434  14.528  1.4664  0.9705  1.4102
  187DOPC  C31123082   6.673   1.308  14.573 -0.1761  0.7989 -0.4305
  187DOPC  H11X23083   6.677   1.354  14.674  1.3527  0.8687 -0.5137
  187DOPC  H11Y23084   6.775   1.326  14.534  1.3670 -3.0132  1.3223
  187DOPC  C31223085   6.674   1.152  14.603  0.2510 -0.9066 -0.4138
  187DOPC  H12X23086   6.643   1.106  14.507  3.5779 -3.6352 -0.3834
  187DOPC  H12Y23087   6.600   1.146  14.686  1.8292  0.3233  1.1355
  187DOPC  C31323088   6.801   1.091  14.653 -0.0818  0.4671  0.0933
  187DOPC  H13X23089   6.820   1.147  14.747  0.8545  1.7121 -0.8097
  187DOPC  H13Y23090   6.790   0.981  14.671 -0.9299  0.0647 -2.3935
  187DOPC  C31423091   6.916   1.098  14.556  0.0936  0.1816  0.2201
  187DOPC  H14X23092   6.900   1.049  14.458 -1.5351  1.9474 -0.4724
  187DOPC  H14Y23093   6.950   1.202  14.533  0.4880 -0.1550 -0.7656
  187DOPC  C31523094   7.046   1.026  14.608  0.2493 -0.1060 -0.3090
  187DOPC  H15X23095   7.055   1.061  14.713 -1.3534 -0.9870  0.1616
  187DOPC  H15Y23096   7.137   1.063  14.556  0.6444 -2.2135 -1.1896
  187DOPC  C31623097   7.051   0.872  14.603  0.7991 -0.3535  0.8275
  187DOPC  H16X23098   6.971   0.826  14.664 -0.3333  0.0176 -0.3185
  187DOPC  H16Y23099   7.038   0.830  14.501 -3.5860  2.4194 -0.0885
  187DOPC  C31723100   7.188   0.815  14.647  0.3133 -0.4780 -0.1563
  187DOPC  H17X23101   7.265   0.866  14.584  0.7435 -3.0161 -1.8349
  187DOPC  H17Y23102   7.218   0.832  14.753 -0.4894 -2.0420  0.3436
  187DOPC  C31823103   7.207   0.667  14.620  1.0861 -0.0849  0.1267
  187DOPC  H18X23104   7.130   0.615  14.681  1.2685 -1.0461 -0.4602
  187DOPC  H18Y23105   7.179   0.630  14.520 -1.6906 -1.2067  1.2106
  187DOPC  H18Z23106   7.301   0.615  14.650  1.2286 -0.9646 -1.7403
  188DOPC     N23107   0.742   0.912  12.896  0.4457 -0.1732  0.5489
  188DOPC   C1223108   0.737   0.804  13.001 -0.9453 -0.2668  0.1434
  188DOPC  H12A23109   0.806   0.723  12.985 -3.7228 -2.6553 -0.7497
  188DOPC  H12B23110   0.644   0.750  12.990 -1.7830  1.3654 -1.4453
  188DOPC   C1323111   0.696   0.852  12.767 -0.0937  0.1476  0.4468
  188DOPC  H13A23112   0.777   0.801  12.717 -0.2294  0.4340 -0.0711
  188DOPC  H13B23113   0.606   0.792  12.765 -1.5022  2.1505 -0.7907
  188DOPC  H13C23114   0.673   0.934  12.700 -0.3900 -0.4961 -0.2507
  188DOPC   C1423115   0.881   0.964  12.870  0.1427 -0.7948  0.3550
  188DOPC  H14A23116   0.895   1.025  12.783  0.7562 -0.4337  0.6963
  188DOPC  H14B23117   0.919   1.012  12.959  0.3388 -1.0757  0.4261
  188DOPC  H14C23118   0.950   0.881  12.863  0.1486 -0.7346 -0.2970
  188DOPC   C1523119   0.643   1.021  12.919 -0.3054  0.2110  0.1638
  188DOPC  H15A23120   0.543   0.982  12.920 -0.0046 -0.5848  1.2977
  188DOPC  H15B23121   0.656   1.096  12.843  0.4025  0.8204  0.8695
  188DOPC  H15C23122   0.666   1.069  13.013  0.7918  0.3393 -0.1576
  188DOPC   C1123123   0.738   0.841  13.152  0.7797 -0.5469  0.0815
  188DOPC  H11A23124   0.642   0.891  13.177  0.0428 -1.0646 -1.6327
  188DOPC  H11B23125   0.743   0.749  13.214  1.2724 -0.7698 -0.2860
  188DOPC     P23126   0.993   0.881  13.188  0.4506 -0.2904 -0.1803
  188DOPC   O1323127   1.078   0.980  13.126 -0.1656 -0.0372  0.3531
  188DOPC   O1423128   0.995   0.742  13.132 -0.1489 -0.3326  0.1683
  188DOPC   O1223129   0.842   0.936  13.177  0.0856  0.2978 -0.1062
  188DOPC   O1123130   1.026   0.886  13.343 -0.6988 -0.1738  0.1671
  188DOPC    C123131   0.956   0.827  13.448  0.0213  0.8709  0.0212
  188DOPC    HA23132   0.854   0.788  13.427 -1.5236  4.2529  0.6531
  188DOPC    HB23133   0.949   0.901  13.531 -1.9109 -0.2911  0.9875
  188DOPC    C223134   1.034   0.712  13.511 -0.1450  0.0107 -0.4177
  188DOPC    HS23135   1.016   0.628  13.441 -1.1934 -0.9032  0.9122
  188DOPC   O2123136   0.982   0.689  13.639  0.5083  0.1444 -0.4078
  188DOPC   C2123137   0.980   0.572  13.696  0.5563 -0.6034 -0.0954
  188DOPC   O2223138   1.004   0.466  13.641  0.4632 -0.1592 -0.3585
  188DOPC   C2223139   0.955   0.597  13.845 -0.0287  0.2171 -0.0325
  188DOPC   H2R23140   0.849   0.631  13.853 -0.5008 -1.5598  2.0239
  188DOPC   H2S23141   1.026   0.673  13.882 -1.0282  0.6768  1.0078
  188DOPC    C323142   1.187   0.720  13.522  0.1498  0.8406 -0.2433
  188DOPC    HX23143   1.211   0.805  13.590  0.4807  1.1100 -0.6911
  188DOPC    HY23144   1.220   0.735  13.417 -1.0932 -1.0710 -0.9409
  188DOPC   O3123145   1.252   0.605  13.578  0.6851  0.1529 -0.3842
  188DOPC   C3123146   1.264   0.496  13.507  0.1516 -0.4512 -0.0960
  188DOPC   O3223147   1.238   0.490  13.384 -0.1362 -0.1532 -0.4054
  188DOPC   C3223148   1.317   0.381  13.592  0.2233 -0.4666  0.1116
  188DOPC   H2X23149   1.366   0.429  13.679  0.4238 -1.3245  0.4786
  188DOPC   H2Y23150   1.228   0.315  13.603 -0.1034  0.1792  1.6091
  188DOPC   C2323151   0.963   0.478  13.946 -0.1710 -0.6087  0.2722
  188DOPC   H3R23152   1.054   0.415  13.929 -0.1514 -0.1959 -1.2894
  188DOPC   H3S23153   0.875   0.412  13.941 -0.3573 -0.3063 -0.5318
  188DOPC   C2423154   0.950   0.532  14.089  0.0516 -0.8714  0.3219
  188DOPC   H4R23155   0.866   0.604  14.091  1.0994  0.3839  2.3392
  188DOPC   H4S23156   1.044   0.576  14.128  0.3332  0.8093 -2.0518
  188DOPC   C2523157   0.912   0.429  14.196  0.1327 -0.3569  0.1402
  188DOPC   H5R23158   0.994   0.354  14.192 -0.5429 -1.1294  0.7751
  188DOPC   H5S23159   0.822   0.370  14.170 -1.2885  0.5177  2.6750
  188DOPC   C2623160   0.909   0.498  14.337 -0.3181 -0.2300  0.1719
  188DOPC   H6R23161   0.815   0.555  14.347 -1.1179 -1.8178  2.3936
  188DOPC   H6S23162   0.989   0.575  14.348 -1.9342  1.2440  2.2220
  188DOPC   C2723163   0.924   0.391  14.446 -0.0428  0.2911 -0.0847
  188DOPC   H7R23164   1.017   0.345  14.408 -0.7688 -1.8157  0.5539
  188DOPC   H7S23165   0.853   0.306  14.438  1.4783 -1.1112  0.8662
  188DOPC   C2823166   0.928   0.452  14.591 -0.1251 -0.0487 -0.2712
  188DOPC   H8R23167   0.930   0.365  14.661 -0.9773 -0.3887 -0.6575
  188DOPC   H8S23168   0.827   0.492  14.612 -0.1990  0.2051 -1.0968
  188DOPC   C2923169   1.048   0.541  14.612 -0.0180 -0.3466  0.2104
  188DOPC   H9R23170   1.142   0.506  14.568 -0.7186 -0.7784 -1.0080
  188DOPC  C21023171   1.042   0.667  14.662 -0.0565  0.2776 -0.5137
  188DOPC  H10R23172   1.130   0.730  14.676  1.7171 -2.3484  1.1179
  188DOPC  C21123173   0.914   0.739  14.707 -0.4351 -0.2181  0.3641
  188DOPC  H11R23174   0.942   0.823  14.774  1.5141  0.1914 -0.8481
  188DOPC  H11S23175   0.853   0.667  14.765  0.1633 -1.0427 -0.0060
  188DOPC  C21223176   0.828   0.800  14.590  0.5851 -0.3195  0.0955
  188DOPC  H12R23177   0.795   0.722  14.518 -0.4912 -0.0778  0.3063
  188DOPC  H12S23178   0.881   0.875  14.528  1.1202 -0.8956 -0.1458
  188DOPC  C21323179   0.710   0.889  14.638 -0.4047  0.8179  0.3509
  188DOPC  H13R23180   0.755   0.979  14.687  2.2534 -0.4760  0.4929
  188DOPC  H13S23181   0.644   0.833  14.707  2.6142 -2.7578  0.6328
  188DOPC  C21423182   0.624   0.948  14.524 -0.1492 -0.1151 -0.2377
  188DOPC  H14R23183   0.688   1.015  14.463 -0.6356 -0.3668 -1.0338
  188DOPC  H14S23184   0.546   1.012  14.571  1.4506  0.7294  1.3897
  188DOPC  C21523185   0.547   0.836  14.449  0.2855 -0.3848 -0.4602
  188DOPC  H15R23186   0.487   0.787  14.529 -1.2285  1.8988 -0.1026
  188DOPC  H15S23187   0.617   0.756  14.414  1.1518  0.1745 -0.0572
  188DOPC  C21623188   0.454   0.879  14.336 -0.2042  0.6515  0.0731
  188DOPC  H16R23189   0.362   0.937  14.361 -0.9664 -0.5911  0.2638
  188DOPC  H16S23190   0.428   0.788  14.277  2.4508  0.3389 -0.7179
  188DOPC  C21723191   0.528   0.954  14.220  0.4707 -0.0740 -0.2073
  188DOPC  H17R23192   0.614   0.893  14.185  0.3699  0.6615 -1.8194
  188DOPC  H17S23193   0.584   1.039  14.265 -0.9618  0.6375  0.2777
  188DOPC  C21823194   0.438   0.985  14.099  0.0781 -0.7390  0.6158
  188DOPC  H18R23195   0.354   1.051  14.129 -0.0214  0.5352 -2.1623
  188DOPC  H18S23196   0.394   0.894  14.052  0.1743 -0.5456  0.1476
  188DOPC  H18T23197   0.500   1.027  14.017  2.8726 -2.6521  1.5959
  188DOPC   C3323198   1.425   0.296  13.520 -0.2452  0.5620  0.4188
  188DOPC   H3X23199   1.376   0.257  13.428  1.5908  0.2522 -0.4860
  188DOPC   H3Y23200   1.456   0.199  13.563  1.5356  0.1599 -1.6005
  188DOPC   C3423201   1.547   0.381  13.484 -0.5954 -0.2162  0.2083
  188DOPC   H4X23202   1.528   0.472  13.422 -2.5747  0.2911  1.4727
  188DOPC   H4Y23203   1.614   0.315  13.424  1.2618 -0.8575  2.8250
  188DOPC   C3523204   1.641   0.420  13.598 -0.2213 -0.2530 -0.1470
  188DOPC   H5X23205   1.585   0.488  13.664  2.5055  3.7477 -1.5599
  188DOPC   H5Y23206   1.725   0.471  13.546 -0.3021  0.4368  0.3960
  188DOPC   C3623207   1.677   0.294  13.678 -0.8451 -0.8445  0.2409
  188DOPC   H6X23208   1.588   0.247  13.726 -1.7947 -0.3392 -0.9952
  188DOPC   H6Y23209   1.718   0.212  13.615 -2.5032 -0.2492 -1.6696
  188DOPC   C3723210   1.780   0.327  13.789 -0.0611  0.1911  0.0593
  188DOPC   H7X23211   1.882   0.351  13.749 -0.7416  0.2985 -1.6889
  188DOPC   H7Y23212   1.746   0.420  13.840  2.5139  1.8676 -1.0348
  188DOPC   C3823213   1.790   0.215  13.891 -1.0200 -0.3196  0.0649
  188DOPC   H8X23214   1.893   0.209  13.930 -1.2910 -1.6823  0.6307
  188DOPC   H8Y23215   1.777   0.121  13.834  1.1362 -0.4929 -0.1884
  188DOPC   C3923216   1.674   0.211  13.987  0.0667  0.2507 -0.7456
  188DOPC   H9X23217   1.572   0.229  13.949 -0.4276  0.3521  0.5796
  188DOPC  C31023218   1.701   0.189  14.122 -0.0621 -0.4161  0.0622
  188DOPC  H10X23219   1.617   0.173  14.192 -0.9436  1.0888 -0.5932
  188DOPC  C31123220   1.828   0.169  14.194 -0.0075  0.7133 -0.8334
  188DOPC  H11X23221   1.913   0.159  14.124  3.2443 -0.6589  2.9831
  188DOPC  H11Y23222   1.831   0.069  14.242  1.9032  0.7232 -0.8773
  188DOPC  C31223223   1.851   0.280  14.289  0.8509  0.2658 -0.0247
  188DOPC  H12X23224   1.833   0.379  14.242  0.8973  0.4905  0.4175
  188DOPC  H12Y23225   1.959   0.282  14.313  1.2854 -1.0491 -1.6743
  188DOPC  C31323226   1.763   0.268  14.420 -0.4410 -0.5123  0.3248
  188DOPC  H13X23227   1.658   0.296  14.396  0.1534  1.2585 -0.4718
  188DOPC  H13Y23228   1.763   0.163  14.453 -0.8833 -0.7290 -0.3371
  188DOPC  C31423229   1.816   0.352  14.539 -0.5547 -0.1128  0.2897
  188DOPC  H14X23230   1.916   0.317  14.572 -0.8043 -0.3699  0.7801
  188DOPC  H14Y23231   1.828   0.455  14.498 -0.3842 -0.4633 -0.5545
  188DOPC  C31523232   1.727   0.343  14.663 -0.6954 -0.2109 -0.6911
  188DOPC  H15X23233   1.786   0.409  14.731  1.3334 -1.3313 -1.3031
  188DOPC  H15Y23234   1.715   0.244  14.711 -1.0367  1.0628  2.0180
  188DOPC  C31623235   1.581   0.393  14.644  0.2914 -0.4151 -0.0756
  188DOPC  H16X23236   1.583   0.495  14.602 -1.5771 -0.1524  0.4013
  188DOPC  H16Y23237   1.519   0.327  14.580 -1.9890  1.6101 -0.0835
  188DOPC  C31723238   1.509   0.415  14.776  0.1839 -0.0610 -0.0808
  188DOPC  H17X23239   1.472   0.322  14.825 -0.2478  1.0400  1.7867
  188DOPC  H17Y23240   1.580   0.463  14.847 -0.8120  1.6146 -0.1542
  188DOPC  C31823241   1.391   0.513  14.766 -0.2725  0.5851  0.4459
  188DOPC  H18X23242   1.310   0.472  14.701 -1.0763  1.5492  0.8164
  188DOPC  H18Y23243   1.344   0.536  14.863 -2.7124  0.5384 -0.6484
  188DOPC  H18Z23244   1.423   0.611  14.723 -2.6055  1.2848  0.1529
  189DOPC     N23245   2.999   7.298  12.814 -0.6174  0.2851  0.1201
  189DOPC   C1223246   3.073   7.362  12.934 -0.2503  0.2244 -0.3613
  189DOPC  H12A23247   3.106   7.460  12.904 -0.0488 -0.0581 -1.1048
  189DOPC  H12B23248   3.168   7.314  12.952 -0.5427 -0.0951  0.3810
  189DOPC   C1323249   3.086   7.306  12.697  0.1994 -0.1739  0.8572
  189DOPC  H13A23250   3.041   7.271  12.606  0.3129 -1.0511  1.1331
  189DOPC  H13B23251   3.116   7.406  12.668 -0.3815 -1.0225 -3.1023
  189DOPC  H13C23252   3.173   7.243  12.708  0.0939 -0.2900  1.0397
  189DOPC   C1423253   2.882   7.375  12.779  0.1578  0.6305  0.1095
  189DOPC  H14A23254   2.812   7.380  12.862  0.1000 -0.2112  0.1190
  189DOPC  H14B23255   2.909   7.472  12.742 -1.1337  0.8486 -0.3268
  189DOPC  H14C23256   2.835   7.324  12.697  2.9125  1.0054 -1.8013
  189DOPC   C1523257   2.964   7.158  12.841 -0.1686 -0.2545  0.2832
  189DOPC  H15A23258   2.886   7.153  12.915 -0.1442  1.3227  0.4566
  189DOPC  H15B23259   3.046   7.097  12.876 -1.0843 -2.4240 -1.1053
  189DOPC  H15C23260   2.932   7.115  12.747 -2.5112  0.4951  0.6691
  189DOPC   C1123261   3.000   7.357  13.067  0.3473 -0.4087  0.7105
  189DOPC  H11A23262   2.955   7.257  13.078 -1.5232  0.3707  0.4394
  189DOPC  H11B23263   3.065   7.365  13.158 -1.0540 -1.5953  1.8662
  189DOPC     P23264   2.902   7.596  13.117  0.2311  0.3211 -0.1970
  189DOPC   O1323265   2.799   7.675  13.052  0.6733 -0.0503  0.2808
  189DOPC   O1423266   3.044   7.640  13.096  0.2652 -0.1807 -0.1812
  189DOPC   O1223267   2.882   7.444  13.080  1.3086 -0.3895 -0.0802
  189DOPC   O1123268   2.876   7.590  13.276 -0.4454 -0.0037  0.2992
  189DOPC    C123269   2.745   7.573  13.318  0.4337  0.4353 -0.2145
  189DOPC    HA23270   2.724   7.464  13.314  0.2170  0.5019 -2.8956
  189DOPC    HB23271   2.667   7.616  13.251 -0.4399  0.0869  0.5512
  189DOPC    C223272   2.732   7.643  13.457  0.2719 -0.9353  0.2978
  189DOPC    HS23273   2.624   7.656  13.480  0.2547 -0.4951 -0.0219
  189DOPC   O2123274   2.807   7.769  13.463  0.1286  0.1064 -0.3225
  189DOPC   C2123275   2.770   7.856  13.369 -0.3681 -0.3214  0.0928
  189DOPC   O2223276   2.660   7.868  13.325 -0.5655 -0.5545 -0.2189
  189DOPC   C2223277   2.891   7.950  13.344 -0.3246  0.1280  0.3447
  189DOPC   H2R23278   2.844   8.047  13.315 -2.9346 -0.9360  0.6818
  189DOPC   H2S23279   2.951   7.925  13.254 -3.0808  2.3410 -2.3888
  189DOPC    C323280   2.792   7.551  13.568 -0.4296  0.2857 -0.0270
  189DOPC    HX23281   2.885   7.511  13.522 -1.0516 -1.6012  0.2916
  189DOPC    HY23282   2.729   7.461  13.583 -1.0262  0.5280 -0.9579
  189DOPC   O3123283   2.794   7.620  13.695 -0.5311 -0.0446 -0.4707
  189DOPC   C3123284   2.911   7.662  13.742  0.5388 -0.4575 -0.2268
  189DOPC   O3223285   3.021   7.644  13.688 -0.3680 -0.1249  0.0563
  189DOPC   C3223286   2.887   7.736  13.872  0.0420  0.3001 -0.1319
  189DOPC   H2X23287   2.838   7.831  13.842 -0.1289 -0.4309 -2.3473
  189DOPC   H2Y23288   2.819   7.678  13.939 -0.4462  0.9543 -0.0551
  189DOPC   C2323289   2.973   7.982  13.470 -0.2228 -0.8196 -0.2314
  189DOPC   H3R23290   3.060   8.039  13.432 -0.5149 -0.0646  0.2093
  189DOPC   H3S23291   3.004   7.887  13.519 -1.4078 -1.1097  0.0083
  189DOPC   C2423292   2.902   8.068  13.582  0.1711  0.0821 -0.0848
  189DOPC   H4R23293   2.815   8.016  13.626  1.2540 -2.4216 -0.7038
  189DOPC   H4S23294   2.869   8.162  13.532 -0.6782  0.6689  1.5298
  189DOPC   C2523295   3.005   8.097  13.696 -0.1389 -0.2370 -0.1584
  189DOPC   H5R23296   3.080   8.164  13.648 -0.9376 -0.4519 -1.7938
  189DOPC   H5S23297   3.050   8.001  13.728 -1.6724 -0.8599  0.1918
  189DOPC   C2623298   2.936   8.154  13.820 -0.7423 -1.0952 -0.7899
  189DOPC   H6R23299   2.866   8.074  13.854 -2.9243  0.8441 -0.4918
  189DOPC   H6S23300   2.879   8.247  13.801  0.9459  0.2796  0.5786
  189DOPC   C2723301   3.035   8.168  13.941  0.3838  0.0731 -0.9481
  189DOPC   H7R23302   3.079   8.269  13.926  1.0958  0.3744  2.3581
  189DOPC   H7S23303   3.118   8.095  13.944 -0.4623 -0.8661  0.9888
  189DOPC   C2823304   2.955   8.178  14.072 -0.1779 -0.0900 -0.0816
  189DOPC   H8R23305   2.912   8.077  14.093 -1.2343  0.2559 -0.5226
  189DOPC   H8S23306   2.874   8.252  14.056  0.0843  0.4241  0.9046
  189DOPC   C2923307   3.037   8.220  14.194  0.3034 -0.1911 -0.2314
  189DOPC   H9R23308   3.131   8.267  14.162  1.2595 -2.9369 -1.7695
  189DOPC  C21023309   3.010   8.199  14.325  0.1985 -0.1244 -0.1591
  189DOPC  H10R23310   3.080   8.230  14.403 -1.3019  0.0058  1.1717
  189DOPC  C21123311   2.882   8.130  14.383 -0.2289  0.3285  0.3108
  189DOPC  H11R23312   2.891   8.020  14.370  0.9911  0.3266  1.0006
  189DOPC  H11S23313   2.793   8.155  14.322 -0.9732 -2.0484  0.2953
  189DOPC  C21223314   2.869   8.159  14.534  0.0651  0.9346 -0.5798
  189DOPC  H12R23315   2.971   8.137  14.574 -0.2577  0.9237  0.2418
  189DOPC  H12S23316   2.797   8.091  14.583  1.3126  1.4339  2.1157
  189DOPC  C21323317   2.828   8.302  14.561  0.1316 -0.4708 -0.3693
  189DOPC  H13R23318   2.718   8.312  14.546  0.4226 -0.2999 -2.8993
  189DOPC  H13S23319   2.871   8.363  14.479  1.0323 -0.9714 -0.2819
  189DOPC  C21423320   2.878   8.361  14.695  0.0033  0.0029 -0.0082
  189DOPC  H14R23321   2.842   8.465  14.714  1.4447  0.4285  0.6277
  189DOPC  H14S23322   2.989   8.374  14.688  0.1742 -1.9995 -2.2409
  189DOPC  C21523323   2.866   8.266  14.818 -0.7372 -0.1993  0.0859
  189DOPC  H15R23324   2.898   8.163  14.791 -0.2031 -0.4315  1.5291
  189DOPC  H15S23325   2.761   8.255  14.852 -0.8749  2.9728  1.0667
  189DOPC  C21623326   2.954   8.307  14.941 -0.3481 -0.0709  0.0805
  189DOPC  H16R23327   3.062   8.291  14.917 -0.4568 -2.0946  0.8105
  189DOPC  H16S23328   2.918   8.252  15.030 -0.7475 -0.2724 -0.2034
  189DOPC  C21723329   2.945   8.456  14.984 -0.1866 -0.3200  0.3133
  189DOPC  H17R23330   2.991   8.522  14.908 -0.9690  0.6663  0.6785
  189DOPC  H17S23331   3.006   8.472  15.075 -0.8480 -0.9830  0.8922
  189DOPC  C21823332   2.796   8.509  15.003  0.2566 -0.0856  0.8298
  189DOPC  H18R23333   2.796   8.619  15.019 -1.6131  0.1394 -0.4483
  189DOPC  H18S23334   2.740   8.456  15.083  0.3599  2.3482  2.6470
  189DOPC  H18T23335   2.734   8.503  14.912 -0.7170  0.6105  1.4304
  189DOPC   C3323336   3.019   7.763  13.950  0.1845 -0.3044  0.2455
  189DOPC   H3X23337   3.073   7.845  13.898 -0.8949  1.0841  1.2170
  189DOPC   H3Y23338   3.078   7.671  13.938  0.6066 -0.1511  1.0751
  189DOPC   C3423339   3.003   7.769  14.097  0.1174 -0.2498  0.0613
  189DOPC   H4X23340   2.948   7.679  14.133 -1.5115  0.5255 -0.3580
  189DOPC   H4Y23341   2.934   7.853  14.123 -0.9849 -1.0813 -0.1006
  189DOPC   C3523342   3.138   7.780  14.173  0.3186  0.0037  0.1145
  189DOPC   H5X23343   3.178   7.882  14.159 -0.7736  0.7025  1.7589
  189DOPC   H5Y23344   3.202   7.699  14.132  1.9899  1.3362 -0.0051
  189DOPC   C3623345   3.137   7.766  14.327 -0.0046 -0.0163  0.5818
  189DOPC   H6X23346   3.040   7.809  14.358  0.0227 -0.7694  1.7424
  189DOPC   H6Y23347   3.128   7.657  14.347 -3.1418 -0.2452 -1.3671
  189DOPC   C3723348   3.263   7.827  14.387  0.2202  0.4807  0.8230
  189DOPC   H7X23349   3.338   7.749  14.362  0.5459  0.1310  2.7326
  189DOPC   H7Y23350   3.293   7.919  14.333 -1.4005  1.2925  1.2248
  189DOPC   C3823351   3.271   7.843  14.537  0.0486  0.4523 -0.2664
  189DOPC   H8X23352   3.366   7.896  14.558 -0.4265 -0.1154  4.5828
  189DOPC   H8Y23353   3.301   7.753  14.595  1.9943  0.8453 -0.6108
  189DOPC   C3923354   3.154   7.909  14.607 -0.4446  0.1842  0.3043
  189DOPC   H9X23355   3.055   7.875  14.571  0.7339 -0.9517 -2.0771
  189DOPC  C31023356   3.169   8.006  14.706  0.3628  0.0214 -0.1443
  189DOPC  H10X23357   3.078   8.046  14.754  0.5078  3.1044 -2.1755
  189DOPC  C31123358   3.295   8.064  14.761  0.0540  0.0195  0.9062
  189DOPC  H11X23359   3.306   8.169  14.726  1.4700 -0.3637  0.1060
  189DOPC  H11Y23360   3.381   8.008  14.718 -0.0335 -0.2083  1.0226
  189DOPC  C31223361   3.306   8.057  14.915 -0.0001 -0.1436 -0.8710
  189DOPC  H12X23362   3.301   7.952  14.951  1.2198 -0.1179 -0.5846
  189DOPC  H12Y23363   3.220   8.113  14.956  1.7223  0.5222  2.1770
  189DOPC  C31323364   3.436   8.119  14.958 -0.4293  0.0427  0.0265
  189DOPC  H13X23365   3.513   8.062  14.902 -0.4296 -1.1841  1.2251
  189DOPC  H13Y23366   3.441   8.224  14.923  0.4453  0.3782  1.0963
  189DOPC  C31423367   3.472   8.098  15.107 -0.4061 -0.4284  0.6206
  189DOPC  H14X23368   3.403   8.155  15.172 -1.7544  0.2304 -1.2821
  189DOPC  H14Y23369   3.460   7.989  15.124  0.8792 -0.7467 -0.3414
  189DOPC  C31523370   3.615   8.143  15.129  0.2610 -0.9645 -0.4515
  189DOPC  H15X23371   3.684   8.090  15.060  0.6105 -1.2294  0.0885
  189DOPC  H15Y23372   3.633   8.118  15.236 -0.9359  0.8078  0.2042
  189DOPC  C31623373   3.640   8.297  15.118 -0.7228  0.1535  0.6083
  189DOPC  H16X23374   3.631   8.340  15.016  2.2026 -1.1897 -0.3375
  189DOPC  H16Y23375   3.556   8.339  15.178  0.8636  2.8338  1.0996
  189DOPC  C31723376   3.779   8.335  15.169 -0.5478 -0.5737  0.4995
  189DOPC  H17X23377   3.760   8.344  15.278  1.6082  0.4885  0.8434
  189DOPC  H17Y23378   3.859   8.259  15.156 -0.1843 -0.2384  0.7851
  189DOPC  C31823379   3.820   8.478  15.131  0.4964 -0.7273 -0.7639
  189DOPC  H18X23380   3.849   8.487  15.024  1.7811 -1.8787 -0.5328
  189DOPC  H18Y23381   3.746   8.557  15.157  1.8132 -0.0424  1.0845
  189DOPC  H18Z23382   3.909   8.509  15.188 -0.8917  1.9134  0.1481
  190DOPC     N23383   1.857   6.672  12.475  0.0396 -0.8959  0.2395
  190DOPC   C1223384   1.783   6.730  12.593 -0.1430  0.1338 -0.1462
  190DOPC  H12A23385   1.762   6.656  12.669  2.0737 -0.5837 -0.1445
  190DOPC  H12B23386   1.694   6.769  12.546 -0.1911  0.8436  0.5102
  190DOPC   C1323387   1.988   6.617  12.506 -0.7888  0.0182  0.5337
  190DOPC  H13A23388   1.980   6.530  12.570 -0.6862 -0.2918  0.1278
  190DOPC  H13B23389   2.051   6.602  12.419  0.1759 -1.4202  1.4390
  190DOPC  H13C23390   2.024   6.687  12.580 -0.0014  0.8878 -0.6378
  190DOPC   C1423391   1.864   6.783  12.373  0.1872 -0.2907 -0.0480
  190DOPC  H14A23392   1.766   6.806  12.334  0.9202  0.4448 -1.5458
  190DOPC  H14B23393   1.909   6.873  12.411 -0.6469  1.4053 -2.7889
  190DOPC  H14C23394   1.919   6.743  12.289  0.9246 -0.3239  0.4481
  190DOPC   C1523395   1.773   6.566  12.412  0.2290 -0.4565 -0.2596
  190DOPC  H15A23396   1.699   6.601  12.341  3.5128  0.8042 -3.3719
  190DOPC  H15B23397   1.733   6.498  12.486  3.0841  0.5358  2.4146
  190DOPC  H15C23398   1.840   6.505  12.353  2.0910  1.9508 -0.8106
  190DOPC   C1123399   1.848   6.851  12.664 -0.1243  0.0360  0.4272
  190DOPC  H11A23400   1.853   6.939  12.597 -0.8128 -1.7894 -2.2131
  190DOPC  H11B23401   1.781   6.876  12.749 -1.5196 -1.7279 -0.0849
  190DOPC     P23402   2.054   6.912  12.814  0.1786 -0.4115  0.1958
  190DOPC   O1323403   2.095   7.035  12.741 -0.2324 -0.0631  0.0329
  190DOPC   O1423404   2.161   6.830  12.873 -0.1383 -0.4548  0.0943
  190DOPC   O1223405   1.973   6.813  12.715 -0.4873 -0.1280  0.0172
  190DOPC   O1123406   1.940   6.941  12.922  0.1701  0.5650 -0.5052
  190DOPC    C123407   1.891   6.847  13.017 -0.1837 -0.2376 -0.0166
  190DOPC    HA23408   1.912   6.744  12.981  2.1043  0.7641 -1.8756
  190DOPC    HB23409   1.782   6.866  13.032  0.0259  0.8335  0.2604
  190DOPC    C223410   1.954   6.864  13.158 -0.1187 -0.3402  0.4168
  190DOPC    HS23411   2.061   6.839  13.141 -0.2561  0.4607 -2.1867
  190DOPC   O2123412   1.882   6.794  13.251 -0.6139  0.5716  0.2533
  190DOPC   C2123413   1.915   6.660  13.265  0.4540  0.0495  0.1291
  190DOPC   O2223414   1.986   6.596  13.191 -0.1198  0.4043  0.1225
  190DOPC   C2223415   1.832   6.601  13.378  0.4434 -0.1874  0.0861
  190DOPC   H2R23416   1.779   6.508  13.347  0.8344 -1.0212  1.8209
  190DOPC   H2S23417   1.747   6.668  13.402  0.3920  0.0064 -0.5954
  190DOPC    C323418   1.954   7.023  13.200  0.1097  0.3047 -0.4198
  190DOPC    HX23419   1.852   7.061  13.178  0.0530  0.0183 -0.6453
  190DOPC    HY23420   2.028   7.082  13.141 -0.1785  0.2242 -0.8647
  190DOPC   O3123421   1.977   7.041  13.343 -0.8087  0.9595  0.1507
  190DOPC   C3123422   2.106   7.050  13.374  0.1259 -0.1507 -0.0980
  190DOPC   O3223423   2.201   7.036  13.300  0.2856 -0.6604  0.2839
  190DOPC   C3223424   2.119   7.099  13.517  0.3009  0.8209  0.2270
  190DOPC   H2X23425   2.066   7.196  13.519 -0.3856  0.5172 -1.6475
  190DOPC   H2Y23426   2.060   7.020  13.570 -1.1521  1.9381  0.3260
  190DOPC   C2323427   1.916   6.591  13.510  1.2318 -0.2035 -0.1435
  190DOPC   H3R23428   1.845   6.542  13.580  0.1565 -0.2304 -1.2198
  190DOPC   H3S23429   1.938   6.695  13.540 -1.1179  0.3452 -0.1356
  190DOPC   C2423430   2.036   6.505  13.514 -0.7275  0.4889 -0.1192
  190DOPC   H4R23431   2.106   6.532  13.432  0.5294 -0.3382  0.6572
  190DOPC   H4S23432   2.016   6.399  13.488 -0.0006  0.4917 -0.7275
  190DOPC   C2523433   2.107   6.517  13.644  0.2888 -0.8168 -0.6212
  190DOPC   H5R23434   2.134   6.625  13.650  1.9155 -1.1202 -1.7098
  190DOPC   H5S23435   2.202   6.458  13.643  1.2485  0.6697 -0.8556
  190DOPC   C2623436   2.038   6.484  13.770 -0.1645 -0.3669 -0.0994
  190DOPC   H6R23437   2.003   6.379  13.781 -1.3818  0.2360  2.7538
  190DOPC   H6S23438   1.946   6.545  13.756 -1.1337 -1.6547  0.4000
  190DOPC   C2723439   2.118   6.537  13.895 -0.0885 -0.2729  0.8012
  190DOPC   H7R23440   2.050   6.600  13.956 -0.5118 -0.8585  0.9503
  190DOPC   H7S23441   2.196   6.607  13.858 -2.1723  1.1723 -1.1246
  190DOPC   C2823442   2.179   6.420  13.982 -0.4272  0.2266 -0.7337
  190DOPC   H8R23443   2.233   6.476  14.061  1.1163 -0.0442 -1.5641
  190DOPC   H8S23444   2.247   6.359  13.920  0.5599  0.1396  0.3941
  190DOPC   C2923445   2.072   6.331  14.045 -0.9927 -0.0270 -0.0086
  190DOPC   H9R23446   2.061   6.230  14.003 -0.1127  0.1012 -0.5856
  190DOPC  C21023447   1.997   6.363  14.148  0.1631  0.0776 -1.3840
  190DOPC  H10R23448   1.926   6.293  14.195 -0.1435  1.1541 -0.2072
  190DOPC  C21123449   2.004   6.492  14.223 -0.1005  0.9130 -0.0505
  190DOPC  H11R23450   1.903   6.538  14.216 -1.2334 -1.4636 -0.3468
  190DOPC  H11S23451   2.071   6.563  14.171 -0.1875  2.0804  1.3525
  190DOPC  C21223452   2.045   6.465  14.373  0.1358 -0.3745 -0.3572
  190DOPC  H12R23453   1.984   6.383  14.416 -0.0273 -1.2921 -2.2258
  190DOPC  H12S23454   2.051   6.555  14.437  2.0998  0.2080 -1.2707
  190DOPC  C21323455   2.184   6.402  14.396 -0.6491 -0.5722 -0.1133
  190DOPC  H13R23456   2.261   6.464  14.344 -0.4480 -0.2656  0.5400
  190DOPC  H13S23457   2.178   6.297  14.361  0.2129 -1.3741  1.9765
  190DOPC  C21423458   2.233   6.407  14.546  0.1605  0.0586  0.0362
  190DOPC  H14R23459   2.158   6.364  14.616 -0.4999  0.0085 -0.6953
  190DOPC  H14S23460   2.248   6.512  14.577 -0.1718 -0.2879  1.4353
  190DOPC  C21523461   2.369   6.341  14.559  0.2594 -0.5394 -0.0683
  190DOPC  H15R23462   2.433   6.427  14.589 -1.3683  0.8490 -0.4305
  190DOPC  H15S23463   2.422   6.300  14.470  0.0027 -2.0358  0.4383
  190DOPC  C21623464   2.378   6.238  14.668 -0.5491  0.0249  0.5445
  190DOPC  H16R23465   2.311   6.153  14.644  0.6343 -0.4021 -1.5049
  190DOPC  H16S23466   2.336   6.285  14.759 -1.1161 -1.0033  0.8268
  190DOPC  C21723467   2.522   6.183  14.696  0.4412 -0.9017  0.0570
  190DOPC  H17R23468   2.571   6.167  14.597 -0.3970 -2.5421 -0.1395
  190DOPC  H17S23469   2.516   6.083  14.745  0.1736 -0.3798  1.1062
  190DOPC  C21823470   2.602   6.281  14.782 -0.0959  0.5652  0.5608
  190DOPC  H18R23471   2.619   6.375  14.726  0.3209  0.7727  1.0334
  190DOPC  H18S23472   2.698   6.233  14.811  0.7484 -1.2549 -4.3158
  190DOPC  H18T23473   2.554   6.313  14.877 -0.7958 -0.0500  0.4271
  190DOPC   C3323474   2.263   7.122  13.553  0.1790 -0.2843  0.2726
  190DOPC   H3X23475   2.295   7.216  13.505  0.7000 -0.3393  0.5008
  190DOPC   H3Y23476   2.322   7.033  13.523 -1.8443 -2.2742  1.8513
  190DOPC   C3423477   2.289   7.126  13.704  0.5324 -1.0823 -0.7438
  190DOPC   H4X23478   2.262   7.024  13.739 -1.5712 -0.5300 -0.5937
  190DOPC   H4Y23479   2.222   7.204  13.748 -0.1941 -2.9560  1.7534
  190DOPC   C3523480   2.433   7.156  13.724  0.2971  0.4227 -0.5431
  190DOPC   H5X23481   2.442   7.255  13.674  0.9565  0.0343 -1.2127
  190DOPC   H5Y23482   2.484   7.073  13.670  0.5043 -0.0076  0.2937
  190DOPC   C3623483   2.475   7.154  13.871 -0.5839 -0.3721  0.3785
  190DOPC   H6X23484   2.394   7.217  13.914 -0.8548 -0.9802  0.7732
  190DOPC   H6Y23485   2.452   7.055  13.917 -1.3326  0.3409  1.6103
  190DOPC   C3723486   2.615   7.204  13.908 -0.4600 -0.1134  0.1335
  190DOPC   H7X23487   2.634   7.190  14.017 -0.8994 -0.7268  0.1369
  190DOPC   H7Y23488   2.693   7.143  13.859  0.1525  1.2819 -0.6844
  190DOPC   C3823489   2.661   7.343  13.869 -0.2719 -0.0320 -0.3602
  190DOPC   H8X23490   2.673   7.350  13.758  2.0210 -0.4921 -0.2050
  190DOPC   H8Y23491   2.760   7.365  13.914  0.7974 -2.6843 -1.1746
  190DOPC   C3923492   2.560   7.453  13.905 -0.5127 -0.3453 -0.3081
  190DOPC   H9X23493   2.476   7.468  13.836  0.0098 -1.0696 -1.1312
  190DOPC  C31023494   2.568   7.526  14.018 -0.2102 -0.1765 -0.9888
  190DOPC  H10X23495   2.485   7.597  14.031 -1.6194 -1.9684  0.2958
  190DOPC  C31123496   2.662   7.527  14.137  0.2339 -0.6576 -0.4305
  190DOPC  H11X23497   2.686   7.633  14.159 -1.2035 -0.6520  1.3170
  190DOPC  H11Y23498   2.765   7.491  14.116 -0.0866 -1.4567 -0.6782
  190DOPC  C31223499   2.617   7.455  14.266 -0.9199  0.0099 -0.3321
  190DOPC  H12X23500   2.618   7.347  14.243 -2.2339  0.4357 -2.8053
  190DOPC  H12Y23501   2.520   7.489  14.308  0.2611 -0.7341  3.3313
  190DOPC  C31323502   2.731   7.464  14.371  0.1463 -0.3762 -0.6948
  190DOPC  H13X23503   2.826   7.418  14.339 -0.2879 -1.6499 -0.2125
  190DOPC  H13Y23504   2.753   7.572  14.387 -0.9961  0.1270 -2.1761
  190DOPC  C31423505   2.689   7.395  14.502 -0.3847 -0.2011  0.0553
  190DOPC  H14X23506   2.607   7.453  14.549 -1.5199 -1.9708  0.3894
  190DOPC  H14Y23507   2.664   7.289  14.481 -0.2523 -0.3269  0.5026
  190DOPC  C31523508   2.803   7.390  14.598  0.1247  0.6757 -0.0426
  190DOPC  H15X23509   2.846   7.489  14.626  1.4482 -0.0976  0.7882
  190DOPC  H15Y23510   2.884   7.330  14.550 -0.2772  1.0360 -1.2015
  190DOPC  C31623511   2.770   7.303  14.721  0.0399 -0.0769 -0.3157
  190DOPC  H16X23512   2.663   7.314  14.748 -0.0060  0.9929 -0.8797
  190DOPC  H16Y23513   2.782   7.193  14.713  0.5533 -0.3332  2.6415
  190DOPC  C31723514   2.849   7.333  14.850  0.5013 -0.2249 -0.3953
  190DOPC  H17X23515   2.836   7.249  14.922 -0.3626  1.5964  1.6752
  190DOPC  H17Y23516   2.957   7.320  14.828  0.1056 -1.4248 -1.7461
  190DOPC  C31823517   2.820   7.451  14.933  0.4069  0.3320  0.0631
  190DOPC  H18X23518   2.718   7.493  14.923  0.0177 -0.8476 -1.2854
  190DOPC  H18Y23519   2.843   7.429  15.039 -0.0196 -1.3676 -0.1685
  190DOPC  H18Z23520   2.890   7.532  14.904  1.4673 -1.2030 -1.9364
  191DOPC     N23521   3.883   0.918  12.702 -0.0688 -0.8026 -0.8190
  191DOPC   C1223522   3.925   0.793  12.763 -0.2007 -0.1754 -0.0279
  191DOPC  H12A23523   3.991   0.740  12.696  0.1446 -0.7618  0.7586
  191DOPC  H12B23524   3.840   0.725  12.767  0.2847 -0.9580 -1.7423
  191DOPC   C1323525   3.787   1.003  12.780  0.4236  0.0078 -0.5017
  191DOPC  H13A23526   3.835   1.048  12.865 -2.4454  0.1159  1.1909
  191DOPC  H13B23527   3.760   1.080  12.709  0.3438 -1.6291 -2.3608
  191DOPC  H13C23528   3.694   0.955  12.809 -1.2486  3.1479 -0.1977
  191DOPC   C1423529   3.808   0.888  12.573 -0.1694  0.1720 -0.4664
  191DOPC  H14A23530   3.728   0.821  12.597  1.0125 -0.5881  1.6350
  191DOPC  H14B23531   3.785   0.985  12.530  0.4636  1.1826  1.3762
  191DOPC  H14C23532   3.874   0.842  12.501 -1.3295 -2.5057  0.0788
  191DOPC   C1523533   4.006   1.003  12.676 -0.9620  0.6042 -0.3594
  191DOPC  H15A23534   4.073   0.939  12.621 -0.9344  0.4947 -0.2023
  191DOPC  H15B23535   4.045   1.038  12.770 -1.8990 -0.1786  0.3510
  191DOPC  H15C23536   3.978   1.079  12.605 -1.9918 -0.4180 -1.1069
  191DOPC   C1123537   4.004   0.803  12.898  0.5317 -0.2381  0.1153
  191DOPC  H11A23538   3.937   0.843  12.977  1.2059  1.2230 -0.0166
  191DOPC  H11B23539   4.021   0.696  12.920 -1.3870 -0.4514  0.7821
  191DOPC     P23540   4.159   0.977  13.006 -0.2166  0.2884 -0.0522
  191DOPC   O1323541   4.063   1.090  12.999  0.2821  0.0264 -0.4370
  191DOPC   O1423542   4.298   1.026  12.995 -0.5728  0.1932  0.3054
  191DOPC   O1223543   4.130   0.875  12.894 -0.3336  0.1374  0.2959
  191DOPC   O1123544   4.125   0.897  13.141 -0.1036 -0.4694  0.5335
  191DOPC    C123545   4.197   0.777  13.170 -0.0739  0.1374  0.7631
  191DOPC    HA23546   4.263   0.753  13.084 -1.5976  1.1260 -0.7348
  191DOPC    HB23547   4.127   0.692  13.189  0.2401  0.4393  3.8018
  191DOPC    C223548   4.280   0.797  13.295 -0.3410  0.1294  0.1780
  191DOPC    HS23549   4.348   0.877  13.262  1.8059 -1.9513 -0.7557
  191DOPC   O2123550   4.356   0.677  13.324 -0.0556 -0.2913  0.1709
  191DOPC   C2123551   4.469   0.700  13.397 -0.5807  0.4971  0.2446
  191DOPC   O2223552   4.522   0.805  13.427  0.7659 -0.2713  0.3044
  191DOPC   C2223553   4.515   0.553  13.437  0.0008 -0.3866 -0.0952
  191DOPC   H2R23554   4.547   0.495  13.348 -0.0969  1.5095 -1.4268
  191DOPC   H2S23555   4.422   0.507  13.476 -0.4415  2.1084  2.1303
  191DOPC    C323556   4.196   0.835  13.416 -0.3474 -0.2711 -0.5250
  191DOPC    HX23557   4.137   0.742  13.426 -0.7023 -0.0554 -0.6184
  191DOPC    HY23558   4.123   0.913  13.388  0.4952  1.3301  1.5084
  191DOPC   O3123559   4.264   0.867  13.536  0.0106  0.5961 -0.1868
  191DOPC   C3123560   4.329   0.982  13.540  0.1550  0.3043 -0.0553
  191DOPC   O3223561   4.341   1.063  13.448 -0.7170 -0.2231 -0.0205
  191DOPC   C3223562   4.404   1.000  13.676  0.1394  0.9814  0.0469
  191DOPC   H2X23563   4.323   1.013  13.750  0.4455  0.1594  0.5316
  191DOPC   H2Y23564   4.463   0.906  13.683 -1.0811  0.2277  0.4207
  191DOPC   C2323565   4.630   0.555  13.543 -0.7384  0.1527 -0.0852
  191DOPC   H3R23566   4.694   0.642  13.515  0.6473 -0.6919  0.3502
  191DOPC   H3S23567   4.684   0.459  13.532 -0.2415  0.1664  1.7986
  191DOPC   C2423568   4.569   0.566  13.684 -0.3041 -0.1023 -0.3865
  191DOPC   H4R23569   4.507   0.658  13.680  0.5029  0.6267  1.9342
  191DOPC   H4S23570   4.647   0.578  13.762 -0.1886  2.0212 -0.7699
  191DOPC   C2523571   4.489   0.439  13.712 -0.5809  0.1413  0.2061
  191DOPC   H5R23572   4.556   0.355  13.686  1.2821  1.6778 -0.1720
  191DOPC   H5S23573   4.405   0.435  13.639  1.2117  0.8421 -2.0188
  191DOPC   C2623574   4.453   0.416  13.858 -0.2279 -0.3980  1.1896
  191DOPC   H6R23575   4.377   0.336  13.864 -0.9074  0.0659 -0.6060
  191DOPC   H6S23576   4.414   0.509  13.904  1.7966  0.1272  1.9545
  191DOPC   C2723577   4.575   0.387  13.955 -0.5893  0.7336 -0.5848
  191DOPC   H7R23578   4.556   0.418  14.059  0.8495 -1.8419  0.5392
  191DOPC   H7S23579   4.668   0.440  13.924 -0.2543 -0.0323 -0.9129
  191DOPC   C2823580   4.602   0.229  13.962 -0.6134 -0.6364 -0.4333
  191DOPC   H8R23581   4.703   0.233  14.009 -0.5918  3.1079 -0.4313
  191DOPC   H8S23582   4.605   0.196  13.856  1.1167  1.7288 -1.2074
  191DOPC   C2923583   4.496   0.161  14.051  0.1595 -0.5850  0.5521
  191DOPC   H9R23584   4.400   0.152  13.998  1.0653 -2.2639 -0.9153
  191DOPC  C21023585   4.513   0.098  14.171 -0.2821 -0.1703 -0.6602
  191DOPC  H10R23586   4.421   0.054  14.212  0.2206  0.1704  0.9240
  191DOPC  C21123587   4.641   0.080  14.252 -0.0939  0.4706  0.6801
  191DOPC  H11R23588   4.714   0.009  14.210 -0.7896  0.6027 -0.8027
  191DOPC  H11S23589   4.606   0.037  14.348 -0.1903 -0.0040  0.4335
  191DOPC  C21223590   4.726   0.201  14.291 -0.0103 -0.5366  0.6937
  191DOPC  H12R23591   4.654   0.282  14.313 -0.3596 -0.2447 -1.3054
  191DOPC  H12S23592   4.792   0.231  14.206 -0.0079 -0.3558  0.7595
  191DOPC  C21323593   4.808   0.188  14.416  0.2403 -0.2523  0.3260
  191DOPC  H13R23594   4.887   0.111  14.405  0.2358 -0.1817 -0.2068
  191DOPC  H13S23595   4.740   0.160  14.500 -1.1488 -1.4826 -1.1338
  191DOPC  C21423596   4.873   0.322  14.452 -0.1663 -0.2105 -0.2527
  191DOPC  H14R23597   4.793   0.397  14.470  0.4328  0.4491 -0.3108
  191DOPC  H14S23598   4.950   0.350  14.376  1.3145 -1.2992  0.7733
  191DOPC  C21523599   4.955   0.303  14.582  0.3745 -0.0735  1.1639
  191DOPC  H15R23600   5.029   0.384  14.604  1.5046 -1.3044  2.0527
  191DOPC  H15S23601   5.020   0.213  14.574  0.6262  0.1912  0.1081
  191DOPC  C21623602   4.869   0.298  14.711 -0.2962  0.1371 -0.4128
  191DOPC  H16R23603   4.799   0.212  14.707  2.2696 -2.1439  0.1211
  191DOPC  H16S23604   4.814   0.394  14.706  0.3499  0.5920  0.6709
  191DOPC  C21723605   4.959   0.288  14.844  0.3803  0.3588  0.6564
  191DOPC  H17R23606   4.900   0.336  14.925 -0.2540 -1.7069  1.4896
  191DOPC  H17S23607   5.053   0.344  14.821  1.3342 -1.0122  1.0883
  191DOPC  C21823608   5.011   0.149  14.889  0.0042  0.4585 -0.5313
  191DOPC  H18R23609   5.072   0.105  14.807 -1.3571  0.1469 -1.4221
  191DOPC  H18S23610   4.932   0.072  14.902  0.9655 -0.6844 -1.2705
  191DOPC  H18T23611   5.078   0.170  14.975  0.3585 -0.5302 -0.5502
  191DOPC   C3323612   4.489   1.125  13.694 -0.1841 -0.3370 -0.2141
  191DOPC   H3X23613   4.569   1.134  13.617 -1.0079 -0.3038 -1.0908
  191DOPC   H3Y23614   4.544   1.113  13.790  0.8721  2.1688 -0.4231
  191DOPC   C3423615   4.423   1.258  13.711 -0.0092 -0.0586 -0.3696
  191DOPC   H4X23616   4.329   1.258  13.771 -1.1303 -4.1472 -1.8248
  191DOPC   H4Y23617   4.393   1.289  13.609  2.8341  2.5592 -0.5445
  191DOPC   C3523618   4.519   1.362  13.770 -0.8457  0.0976 -1.2474
  191DOPC   H5X23619   4.489   1.466  13.745  0.9916  0.7066 -1.0946
  191DOPC   H5Y23620   4.626   1.362  13.740 -0.3348  0.6718  0.4772
  191DOPC   C3623621   4.522   1.356  13.923  0.7148 -0.6807 -0.0775
  191DOPC   H6X23622   4.416   1.376  13.951  1.7036  0.8409  3.1363
  191DOPC   H6Y23623   4.556   1.258  13.961 -0.4936 -0.6316  1.1940
  191DOPC   C3723624   4.609   1.465  13.981  0.0579  0.4617 -0.7529
  191DOPC   H7X23625   4.710   1.444  13.941  0.4089 -0.9077  0.7551
  191DOPC   H7Y23626   4.578   1.563  13.939 -2.4624  0.3218  0.5973
  191DOPC   C3823627   4.599   1.469  14.127  0.5364 -0.1052  0.6890
  191DOPC   H8X23628   4.650   1.374  14.153 -1.0579 -0.9792  0.7706
  191DOPC   H8Y23629   4.494   1.475  14.165  0.5774  0.0375  0.7836
  191DOPC   C3923630   4.669   1.588  14.178  0.4346 -0.4324  0.2888
  191DOPC   H9X23631   4.754   1.619  14.116  0.0431  2.6668  1.1209
  191DOPC  C31023632   4.638   1.664  14.280 -0.6159 -0.5877  0.2781
  191DOPC  H10X23633   4.708   1.742  14.312 -2.1537  0.6328  0.8007
  191DOPC  C31123634   4.519   1.659  14.368 -0.2467  0.2410  0.4174
  191DOPC  H11X23635   4.438   1.595  14.327  0.1187 -0.3669  0.6305
  191DOPC  H11Y23636   4.466   1.757  14.366  1.3023  1.1323 -2.2471
  191DOPC  C31223637   4.554   1.604  14.510  0.6356  0.1305 -0.2316
  191DOPC  H12X23638   4.627   1.520  14.499 -0.4231 -0.8184 -0.2163
  191DOPC  H12Y23639   4.464   1.578  14.569  0.7057 -1.1811 -0.6659
  191DOPC  C31323640   4.613   1.715  14.592  0.6044 -0.6068 -0.5827
  191DOPC  H13X23641   4.721   1.728  14.570  0.8348  0.3405  0.9080
  191DOPC  H13Y23642   4.560   1.810  14.566 -1.2361 -0.3129  3.4561
  191DOPC  C31423643   4.601   1.677  14.744 -0.3273  0.0792  0.1592
  191DOPC  H14X23644   4.497   1.677  14.783 -0.6806 -0.6392 -0.7632
  191DOPC  H14Y23645   4.627   1.570  14.757 -0.7993 -0.4698 -2.8394
  191DOPC  C31523646   4.677   1.789  14.828 -0.7248 -0.2484 -0.2551
  191DOPC  H15X23647   4.660   1.891  14.787  0.8886  1.0790  2.1133
  191DOPC  H15Y23648   4.786   1.774  14.808 -0.5671  1.0047 -0.3854
  191DOPC  C31623649   4.651   1.773  14.983  0.6420  0.6705  0.1497
  191DOPC  H16X23650   4.550   1.809  15.010 -0.8555 -1.9585 -1.5112
  191DOPC  H16Y23651   4.659   1.664  15.006 -0.0593  0.4255 -0.7368
  191DOPC  C31723652   4.751   1.841  15.076  0.7165 -0.8130 -0.2569
  191DOPC  H17X23653   4.730   1.819  15.183 -0.1228 -0.4465 -0.3319
  191DOPC  H17Y23654   4.851   1.806  15.045  1.6478  1.5817 -0.1737
  191DOPC  C31823655   4.751   1.991  15.072 -0.2607  0.0994 -0.4851
  191DOPC  H18X23656   4.784   2.017  14.969 -1.5280 -0.5692 -1.0833
  191DOPC  H18Y23657   4.651   2.037  15.083  0.3325  0.7669  3.8058
  191DOPC  H18Z23658   4.825   2.036  15.142 -0.1505  1.1538 -1.2636
  192DOPC     N23659   7.315   5.923  12.982 -0.7708  0.1029  0.1365
  192DOPC   C1223660   7.390   5.885  13.109  0.1861  0.2551  0.4568
  192DOPC  H12A23661   7.422   5.982  13.144 -2.4865  1.3933  0.0401
  192DOPC  H12B23662   7.478   5.830  13.079  0.0054 -0.0643  0.5095
  192DOPC   C1323663   7.253   5.799  12.917 -0.2442  0.9750  0.3377
  192DOPC  H13A23664   7.227   5.723  12.989  1.0224  1.5657  1.4560
  192DOPC  H13B23665   7.164   5.823  12.861 -0.5316 -0.7697 -0.0068
  192DOPC  H13C23666   7.327   5.765  12.846 -0.7696 -0.4810  0.4522
  192DOPC   C1423667   7.407   5.987  12.883  0.5341  0.1564  0.2131
  192DOPC  H14A23668   7.500   5.931  12.873  1.7181  1.8660  1.1989
  192DOPC  H14B23669   7.358   5.995  12.787  3.0201  2.3405 -0.9811
  192DOPC  H14C23670   7.427   6.087  12.917 -0.9914  0.7462 -0.5411
  192DOPC   C1523671   7.205   6.007  13.030  0.0598  0.3748 -0.1265
  192DOPC  H15A23672   7.140   5.957  13.100  1.2555 -0.5640  0.3508
  192DOPC  H15B23673   7.144   6.045  12.949  0.2010 -3.1642 -2.1372
  192DOPC  H15C23674   7.247   6.092  13.081  1.8304 -0.2611 -0.4532
  192DOPC   C1123675   7.330   5.807  13.228 -0.5468  0.2471 -0.1094
  192DOPC  H11A23676   7.405   5.797  13.309  0.0860 -0.2062 -0.7344
  192DOPC  H11B23677   7.246   5.870  13.264  2.7495  4.0617  1.6750
  192DOPC     P23678   7.385   5.554  13.180 -0.2235  0.0241 -0.2369
  192DOPC   O1323679   7.520   5.593  13.140  0.3884 -0.2569 -0.6090
  192DOPC   O1423680   7.317   5.453  13.097 -0.8079  0.2245  0.3340
  192DOPC   O1223681   7.277   5.678  13.191 -1.0047 -0.8036  0.1366
  192DOPC   O1123682   7.393   5.492  13.332  0.7073 -0.3157  0.0542
  192DOPC    C123683   7.285   5.494  13.423 -0.6948 -0.6121  0.0008
  192DOPC    HA23684   7.243   5.391  13.427  1.4419 -1.5211  0.3978
  192DOPC    HB23685   7.207   5.566  13.390 -1.4567 -1.6774 -0.5817
  192DOPC    C223686   7.333   5.536  13.555 -0.3401  0.2825 -0.3229
  192DOPC    HS23687   7.360   5.643  13.544  0.7366 -0.0959 -1.6450
  192DOPC   O2123688   7.439   5.442  13.579  0.1891  0.1097  0.1261
  192DOPC   C2123689   7.567   5.492  13.549 -0.8421  0.1379  0.4417
  192DOPC   O2223690   7.597   5.611  13.546  0.5702 -0.2552 -0.0521
  192DOPC   C2223691   7.669   5.381  13.537 -0.2685  0.0639 -0.5677
  192DOPC   H2R23692   7.686   5.349  13.432  1.2297  0.0561 -0.3499
  192DOPC   H2S23693   7.647   5.287  13.592  3.5931 -2.6668 -3.1252
  192DOPC    C323694   7.229   5.534  13.670  0.8827 -0.0495 -0.3612
  192DOPC    HX23695   7.214   5.429  13.704  0.2220  0.4556  0.9833
  192DOPC    HY23696   7.146   5.590  13.622  0.6893  0.7779  0.8922
  192DOPC   O3123697   7.288   5.601  13.778  0.7486  0.2536 -0.5084
  192DOPC   C3123698   7.202   5.611  13.879  0.3764 -0.1283 -0.3120
  192DOPC   O3223699   7.082   5.576  13.873  0.4176  0.2255  0.3610
  192DOPC   C3223700   7.273   5.654  14.011 -0.5054  0.1003  0.0243
  192DOPC   H2X23701   7.384   5.660  14.002 -0.6173  2.6077 -0.2729
  192DOPC   H2Y23702   7.244   5.760  14.026 -0.7720  0.0225  0.0641
  192DOPC   C2323703   7.816   5.419  13.579  0.0871 -0.0302  0.1611
  192DOPC   H3R23704   7.858   5.500  13.516 -1.0074  0.0084 -0.5439
  192DOPC   H3S23705   7.874   5.329  13.548  1.0480  1.8240 -4.0377
  192DOPC   C2423706   7.830   5.462  13.727 -0.6402  0.7327  0.1967
  192DOPC   H4R23707   7.776   5.387  13.789 -0.8295  0.5781 -0.1479
  192DOPC   H4S23708   7.791   5.565  13.742  0.5403  0.9016  2.4495
  192DOPC   C2523709   7.979   5.478  13.764  0.3739  0.2167 -0.6680
  192DOPC   H5R23710   8.021   5.528  13.673 -2.0551 -1.5974 -2.9533
  192DOPC   H5S23711   8.036   5.383  13.765  2.0228  1.1407 -1.7874
  192DOPC   C2623712   7.989   5.558  13.895  0.0317  0.3872 -0.3877
  192DOPC   H6R23713   7.962   5.497  13.984 -1.3281  0.3799 -0.7885
  192DOPC   H6S23714   7.910   5.636  13.895 -1.0889 -0.7119  0.6988
  192DOPC   C2723715   8.125   5.604  13.916 -0.7966  0.2523 -0.1918
  192DOPC   H7R23716   8.159   5.671  13.834  1.3522  1.1167  1.3048
  192DOPC   H7S23717   8.196   5.519  13.930 -2.0225 -0.9509 -1.0250
  192DOPC   C2823718   8.141   5.694  14.035  0.4937  0.1082  0.4570
  192DOPC   H8R23719   8.084   5.642  14.115  0.0144 -2.4681 -1.4397
  192DOPC   H8S23720   8.093   5.793  14.023 -0.5336 -0.1354  2.0925
  192DOPC   C2923721   8.287   5.721  14.065  0.7536 -0.4729 -0.0926
  192DOPC   H9R23722   8.340   5.743  13.971 -0.6440 -0.9881 -1.0439
  192DOPC  C21023723   8.351   5.719  14.181  0.3422 -0.1005  0.3635
  192DOPC  H10R23724   8.447   5.774  14.177 -0.5430  1.4104 -2.6238
  192DOPC  C21123725   8.285   5.692  14.316 -1.1390  0.0066  0.4534
  192DOPC  H11R23726   8.214   5.607  14.306 -0.3816 -0.7610  1.4086
  192DOPC  H11S23727   8.226   5.776  14.358  0.2675  0.8093  0.8953
  192DOPC  C21223728   8.396   5.662  14.420  0.6195  1.2398 -0.6982
  192DOPC  H12R23729   8.483   5.731  14.406  1.3871 -0.0664 -2.8755
  192DOPC  H12S23730   8.436   5.562  14.394  1.8066  0.4351  3.5203
  192DOPC  C21323731   8.357   5.672  14.562  0.7195  0.2119 -0.3335
  192DOPC  H13R23732   8.279   5.600  14.596  1.2058 -0.5752 -0.8469
  192DOPC  H13S23733   8.318   5.775  14.577  0.3208 -0.0936  0.7935
  192DOPC  C21423734   8.474   5.649  14.662 -1.1303  0.3815 -0.2767
  192DOPC  H14R23735   8.558   5.709  14.621  0.3594 -0.6627  1.1551
  192DOPC  H14S23736   8.481   5.538  14.656 -2.8994 -0.0954  3.6536
  192DOPC  C21523737   8.449   5.689  14.805 -0.7210  0.2931 -0.0416
  192DOPC  H15R23738   8.357   5.634  14.834  1.0776 -2.1002  1.4804
  192DOPC  H15S23739   8.423   5.797  14.808 -0.5899  0.3367 -0.4491
  192DOPC  C21623740   8.559   5.654  14.909 -0.1242  0.6766  0.2845
  192DOPC  H16R23741   8.642   5.719  14.874 -0.7138  0.7947 -0.9697
  192DOPC  H16S23742   8.588   5.547  14.910 -0.3344  0.5055  4.1777
  192DOPC  C21723743   8.515   5.695  15.046 -0.4071  0.5360 -0.0252
  192DOPC  H17R23744   8.426   5.635  15.076  1.8272 -2.3058  1.4533
  192DOPC  H17S23745   8.485   5.802  15.049 -0.1260  0.6303 -0.4798
  192DOPC  C21823746   8.611   5.669  15.165  0.5482 -0.1259 -0.1290
  192DOPC  H18R23747   8.704   5.728  15.157  0.3943  0.2627  0.8187
  192DOPC  H18S23748   8.635   5.561  15.167  1.5478  0.0943  0.6571
  192DOPC  H18T23749   8.553   5.698  15.256 -0.0040 -0.6934 -0.2918
  192DOPC   C3323750   7.215   5.569  14.121 -0.4341 -0.5268  0.4054
  192DOPC   H3X23751   7.231   5.459  14.122 -1.1257 -0.7311 -2.3188
  192DOPC   H3Y23752   7.104   5.576  14.112 -0.4691 -2.5592 -1.8960
  192DOPC   C3423753   7.240   5.626  14.260  0.5185 -0.7643 -0.1062
  192DOPC   H4X23754   7.192   5.726  14.251  0.7019 -0.4654  1.7569
  192DOPC   H4Y23755   7.350   5.635  14.268  0.5680 -2.3800  1.6077
  192DOPC   C3523756   7.190   5.536  14.378 -0.1480 -0.3761  0.2061
  192DOPC   H5X23757   7.243   5.439  14.392 -2.1774 -1.7440 -1.0971
  192DOPC   H5Y23758   7.099   5.493  14.331  0.5868  0.2182 -1.8522
  192DOPC   C3623759   7.140   5.618  14.504 -0.2113 -0.1759 -0.3525
  192DOPC   H6X23760   7.207   5.703  14.529  0.4613 -0.8084  0.0614
  192DOPC   H6Y23761   7.039   5.660  14.486 -0.6454  0.0949  2.2811
  192DOPC   C3723762   7.141   5.517  14.619  0.5530 -0.7611 -0.3226
  192DOPC   H7X23763   7.061   5.549  14.688  1.4876 -2.0692  1.4488
  192DOPC   H7Y23764   7.118   5.416  14.577 -2.5038 -0.4817  0.4670
  192DOPC   C3823765   7.262   5.519  14.712  0.1021  0.0401 -0.6545
  192DOPC   H8X23766   7.302   5.622  14.722  1.0837 -0.3572 -0.4593
  192DOPC   H8Y23767   7.345   5.472  14.655 -0.1254 -1.0229 -0.1223
  192DOPC   C3923768   7.260   5.445  14.845  0.6050 -0.3104 -0.4570
  192DOPC   H9X23769   7.234   5.505  14.933 -0.3141 -0.8809 -0.3228
  192DOPC  C31023770   7.287   5.313  14.859  0.6202 -0.4470  0.0011
  192DOPC  H10X23771   7.269   5.258  14.952  1.2082  0.9623  0.9887
  192DOPC  C31123772   7.334   5.229  14.744  0.6885  0.4266 -0.6452
  192DOPC  H11X23773   7.286   5.254  14.647 -1.2654  2.0794  0.6662
  192DOPC  H11Y23774   7.320   5.125  14.780  3.1144  0.3339  0.1795
  192DOPC  C31223775   7.486   5.240  14.721  0.9735 -0.2641 -0.3534
  192DOPC  H12X23776   7.540   5.193  14.806 -0.1122 -0.8304  0.0442
  192DOPC  H12Y23777   7.524   5.344  14.717 -0.0530  0.1755  0.6949
  192DOPC  C31323778   7.524   5.169  14.585 -0.3763  0.1064  0.2425
  192DOPC  H13X23779   7.439   5.176  14.514  0.7126 -0.9908 -1.2385
  192DOPC  H13Y23780   7.611   5.229  14.550 -1.4965  1.7651  0.1796
  192DOPC  C31423781   7.567   5.028  14.591 -0.9253  0.4032 -0.3742
  192DOPC  H14X23782   7.660   5.010  14.650 -0.4697 -4.1058 -2.0282
  192DOPC  H14Y23783   7.491   4.966  14.644  1.5760 -2.1116  0.5550
  192DOPC  C31523784   7.606   4.962  14.456  0.1418  0.5075 -0.8700
  192DOPC  H15X23785   7.690   5.021  14.413  0.4892  0.3184 -0.4557
  192DOPC  H15Y23786   7.512   4.965  14.397  0.1799  1.5277 -0.9063
  192DOPC  C31623787   7.649   4.815  14.471 -0.5223 -0.6511 -0.0184
  192DOPC  H16X23788   7.725   4.816  14.551  1.2283 -1.9158 -1.5801
  192DOPC  H16Y23789   7.558   4.768  14.514 -2.2832  2.1603 -0.3713
  192DOPC  C31723790   7.699   4.752  14.341 -0.4241  0.0328 -0.9604
  192DOPC  H17X23791   7.638   4.771  14.250  0.2971  1.4260 -1.1887
  192DOPC  H17Y23792   7.796   4.805  14.327 -0.4613  0.6159  0.7532
  192DOPC  C31823793   7.735   4.603  14.353  0.5391 -0.4248 -0.4979
  192DOPC  H18X23794   7.819   4.573  14.287  2.0188 -0.1418  1.1849
  192DOPC  H18Y23795   7.773   4.582  14.456  3.0168 -0.6863 -1.4141
  192DOPC  H18Z23796   7.642   4.544  14.339 -0.9443  1.3719  1.2366
  193DOPC     N23797   0.888   2.081  13.167  0.3023 -1.0935  0.4899
  193DOPC   C1223798   0.761   2.009  13.230  0.0169  0.3654 -0.0111
  193DOPC  H12A23799   0.682   2.004  13.157 -2.2723 -0.0415  2.3312
  193DOPC  H12B23800   0.715   2.062  13.312 -0.4719  0.5247 -0.3870
  193DOPC   C1323801   0.847   2.220  13.131 -0.0496  0.2591  0.1496
  193DOPC  H13A23802   0.821   2.274  13.221  1.3431 -2.2710  2.2208
  193DOPC  H13B23803   0.928   2.272  13.081  0.9782 -0.4332  1.0520
  193DOPC  H13C23804   0.763   2.222  13.063  1.8634  1.5530 -2.3650
  193DOPC   C1423805   0.925   2.021  13.037  0.2947 -0.1286 -0.3925
  193DOPC  H14A23806   1.004   2.087  13.002  0.4393  0.6292  1.2307
  193DOPC  H14B23807   0.965   1.921  13.045 -0.0451 -0.4782 -2.6146
  193DOPC  H14C23808   0.844   2.027  12.966 -0.2118  2.6952  0.2750
  193DOPC   C1523809   1.001   2.089  13.266 -0.1526 -0.4977 -0.0457
  193DOPC  H15A23810   1.047   1.998  13.302  1.1614  0.0921 -0.1593
  193DOPC  H15B23811   0.956   2.145  13.346  0.0537  0.0082 -0.2769
  193DOPC  H15C23812   1.083   2.139  13.216  1.4759 -1.3625  1.6307
  193DOPC   C1123813   0.783   1.864  13.272 -0.5718 -0.4133 -0.6436
  193DOPC  H11A23814   0.864   1.865  13.348  0.0173  1.6063 -1.2268
  193DOPC  H11B23815   0.692   1.829  13.324  1.0204  0.4232  3.0546
  193DOPC     P23816   0.726   1.667  13.112  0.4595  0.5701  0.0055
  193DOPC   O1323817   0.814   1.564  13.053  0.6075  0.0208 -0.1233
  193DOPC   O1423818   0.614   1.722  13.031 -0.1172  0.6154 -0.5796
  193DOPC   O1223819   0.823   1.783  13.165  0.2187 -0.2278  0.4652
  193DOPC   O1123820   0.673   1.613  13.256  0.2622 -0.4034 -0.2803
  193DOPC    C123821   0.630   1.482  13.284 -0.6546 -0.3609  0.8055
  193DOPC    HA23822   0.716   1.411  13.279  0.0060  0.4657 -0.0241
  193DOPC    HB23823   0.561   1.451  13.203  1.7728 -2.0958 -0.7338
  193DOPC    C223824   0.574   1.467  13.427  0.0436  0.0762 -0.1430
  193DOPC    HS23825   0.477   1.521  13.430 -2.2092 -3.6217  1.9166
  193DOPC   O2123826   0.667   1.508  13.519 -0.6527 -0.5985  0.4200
  193DOPC   C2123827   0.624   1.562  13.630 -0.0829 -0.1621 -0.6007
  193DOPC   O2223828   0.505   1.588  13.651 -0.6873 -0.1045  0.1536
  193DOPC   C2223829   0.744   1.583  13.729  1.2284  0.1722 -0.1156
  193DOPC   H2R23830   0.739   1.680  13.782  0.9342 -1.2112  2.5749
  193DOPC   H2S23831   0.840   1.595  13.675  1.4280 -2.0956 -0.3716
  193DOPC    C323832   0.543   1.317  13.457 -0.7816  0.1131  0.0846
  193DOPC    HX23833   0.643   1.268  13.448 -1.4825 -1.3537 -0.0631
  193DOPC    HY23834   0.492   1.282  13.365  1.0102 -3.3974  0.2490
  193DOPC   O3123835   0.478   1.288  13.579  0.5191 -0.2735 -0.2867
  193DOPC   C3123836   0.349   1.321  13.568 -0.0429  0.0670  0.9394
  193DOPC   O3223837   0.287   1.355  13.464  0.4400  0.3132  0.3879
  193DOPC   C3223838   0.276   1.307  13.705 -0.7238  0.1041 -0.2570
  193DOPC   H2X23839   0.180   1.362  13.703 -1.2357 -0.7664 -1.3851
  193DOPC   H2Y23840   0.260   1.200  13.732 -1.8601  0.8664  2.3006
  193DOPC   C2323841   0.769   1.477  13.839 -0.1289  0.2913  0.2914
  193DOPC   H3R23842   0.811   1.381  13.803 -0.3112 -0.0651  1.0064
  193DOPC   H3S23843   0.669   1.450  13.879  0.3932  0.3418  1.6949
  193DOPC   C2423844   0.855   1.526  13.956 -0.4720  0.4736 -0.4032
  193DOPC   H4R23845   0.830   1.630  13.987  1.1447  0.2895  1.7425
  193DOPC   H4S23846   0.960   1.525  13.920  0.3007  3.3030  1.4537
  193DOPC   C2523847   0.845   1.436  14.085  0.4068  0.4432 -0.2117
  193DOPC   H5R23848   0.883   1.336  14.056 -1.4019 -0.5311  0.5931
  193DOPC   H5S23849   0.740   1.409  14.108  1.4885 -3.8643  0.5879
  193DOPC   C2623850   0.919   1.494  14.202 -0.6199  0.2350 -0.3636
  193DOPC   H6R23851   0.855   1.570  14.253 -1.2637  1.7022 -3.1226
  193DOPC   H6S23852   1.000   1.559  14.161 -0.6476 -0.3836 -1.4209
  193DOPC   C2723853   0.964   1.381  14.297  0.6909  0.4841 -0.4392
  193DOPC   H7R23854   1.058   1.334  14.260  3.6185  0.6761  5.4993
  193DOPC   H7S23855   0.887   1.302  14.285  1.0210  0.0098  0.3884
  193DOPC   C2823856   0.995   1.420  14.441  0.4821  0.2211  0.0577
  193DOPC   H8R23857   0.929   1.501  14.478  0.6064  0.1179  0.5134
  193DOPC   H8S23858   1.100   1.455  14.439  1.0621 -1.3518  1.0590
  193DOPC   C2923859   0.972   1.298  14.528 -0.1930  0.2428 -0.1888
  193DOPC   H9R23860   0.874   1.250  14.516 -1.2840  2.4620 -0.7081
  193DOPC  C21023861   1.049   1.249  14.623 -0.0985  0.0723 -0.1936
  193DOPC  H10R23862   1.019   1.166  14.688  1.6382  0.7830  1.5899
  193DOPC  C21123863   1.177   1.302  14.676 -0.6202  0.1198 -0.3971
  193DOPC  H11R23864   1.165   1.346  14.777 -1.6140  0.1129 -0.5092
  193DOPC  H11S23865   1.207   1.389  14.614 -0.6843 -2.3276 -4.2098
  193DOPC  C21223866   1.295   1.195  14.688 -0.0005 -1.3305 -0.0945
  193DOPC  H12R23867   1.387   1.257  14.692  0.2317 -1.6518 -0.3551
  193DOPC  H12S23868   1.304   1.135  14.595  0.6036 -2.7300  0.8346
  193DOPC  C21323869   1.294   1.112  14.816 -0.7868 -0.7051  0.0181
  193DOPC  H13R23870   1.212   1.138  14.885 -0.2218  1.1912  0.0185
  193DOPC  H13S23871   1.385   1.131  14.877 -0.8126 -0.9663  0.1413
  193DOPC  C21423872   1.284   0.960  14.795  0.1796  0.0620  0.1982
  193DOPC  H14R23873   1.345   0.920  14.711  0.7401 -1.9088  1.4936
  193DOPC  H14S23874   1.177   0.942  14.768  0.6890 -0.3570 -1.7011
  193DOPC  C21523875   1.316   0.880  14.918 -0.4351  1.0702 -0.0123
  193DOPC  H15R23876   1.425   0.879  14.937 -0.1835 -1.1021 -1.2245
  193DOPC  H15S23877   1.283   0.774  14.906 -0.2128  0.8235  1.3884
  193DOPC  C21623878   1.230   0.909  15.040 -0.0982  0.2611 -0.6234
  193DOPC  H16R23879   1.128   0.946  15.018 -0.2474 -0.1279 -0.5862
  193DOPC  H16S23880   1.275   0.983  15.110 -0.8448 -1.1769  1.4579
  193DOPC  C21723881   1.199   0.790  15.131 -0.6204 -0.1874  0.5107
  193DOPC  H17R23882   1.127   0.733  15.068 -0.5382  1.3776 -1.1063
  193DOPC  H17S23883   1.154   0.826  15.226  0.9990 -2.1992  2.1285
  193DOPC  C21823884   1.325   0.705  15.177  0.0700 -0.1930  0.3354
  193DOPC  H18R23885   1.310   0.651  15.272 -0.0544  2.8793  2.2079
  193DOPC  H18S23886   1.421   0.759  15.194  0.7366 -1.7616  1.8391
  193DOPC  H18T23887   1.340   0.634  15.093  0.4550  0.8407 -0.4983
  193DOPC   C3323888   0.366   1.364  13.820 -0.4560 -0.0049 -0.2062
  193DOPC   H3X23889   0.364   1.474  13.813 -0.1575  0.1389  1.4119
  193DOPC   H3Y23890   0.469   1.323  13.827 -0.3385  0.1020 -1.2385
  193DOPC   C3423891   0.303   1.325  13.959 -0.5209 -0.0042 -0.2659
  193DOPC   H4X23892   0.339   1.221  13.972 -1.7269 -0.3420  0.4509
  193DOPC   H4Y23893   0.192   1.328  13.963 -0.4692  0.6090  1.3876
  193DOPC   C3523894   0.363   1.402  14.073  0.0390  0.0049  0.1390
  193DOPC   H5X23895   0.473   1.410  14.057  0.0425  0.8340  0.5497
  193DOPC   H5Y23896   0.353   1.363  14.176 -0.0227  0.4116  0.2895
  193DOPC   C3623897   0.301   1.551  14.070  0.5196  0.4594  0.0243
  193DOPC   H6X23898   0.312   1.602  13.972  0.7590  2.2178  0.9296
  193DOPC   H6Y23899   0.193   1.540  14.094  0.4446 -0.8284 -0.7759
  193DOPC   C3723900   0.357   1.640  14.179  0.0400 -0.0610  0.0613
  193DOPC   H7X23901   0.374   1.579  14.270  0.4850  1.8122  1.2765
  193DOPC   H7Y23902   0.449   1.670  14.124  0.7163 -0.5995  0.8711
  193DOPC   C3823903   0.279   1.769  14.213 -0.4430 -0.4086 -0.6288
  193DOPC   H8X23904   0.182   1.753  14.265 -0.0812 -2.5346 -0.5083
  193DOPC   H8Y23905   0.265   1.812  14.111 -1.1331 -0.7084 -0.6656
  193DOPC   C3923906   0.369   1.865  14.286  0.0490  0.5223  0.2733
  193DOPC   H9X23907   0.467   1.878  14.237  1.1229 -2.1456  1.5165
  193DOPC  C31023908   0.348   1.921  14.401  0.3039  0.1328 -0.3048
  193DOPC  H10X23909   0.422   1.998  14.427 -1.1412  1.9686 -1.4052
  193DOPC  C31123910   0.224   1.894  14.493  0.0263  0.5660  0.5061
  193DOPC  H11X23911   0.128   1.921  14.445  0.8523  1.3764 -0.7525
  193DOPC  H11Y23912   0.222   1.971  14.573 -1.5654 -0.8418  1.8821
  193DOPC  C31223913   0.224   1.759  14.565 -0.4537  0.2852  0.4425
  193DOPC  H12X23914   0.324   1.743  14.611  0.2427  0.9358 -0.7864
  193DOPC  H12Y23915   0.211   1.675  14.492  0.1793 -0.4254  1.1239
  193DOPC  C31323916   0.121   1.739  14.667 -0.1136 -0.0044 -0.8761
  193DOPC  H13X23917   0.137   1.809  14.751 -1.7859  0.1123 -0.6131
  193DOPC  H13Y23918   0.016   1.759  14.638 -0.4064 -1.9368 -1.3234
  193DOPC  C31423919   0.120   1.593  14.731  0.1546  0.4697  0.1675
  193DOPC  H14X23920   0.034   1.595  14.801  0.0585  0.7159  0.0447
  193DOPC  H14Y23921   0.100   1.520  14.650  1.4549  2.2554 -1.8695
  193DOPC  C31523922   0.248   1.554  14.811  0.1644 -0.6118  0.0624
  193DOPC  H15X23923   0.344   1.577  14.761  1.3197 -0.3924  2.2484
  193DOPC  H15Y23924   0.244   1.443  14.808 -0.2241 -0.6505  1.3216
  193DOPC  C31623925   0.250   1.604  14.962  0.3211  0.6571  0.0422
  193DOPC  H16X23926   0.237   1.714  14.969 -0.2230  0.5765  0.3128
  193DOPC  H16Y23927   0.154   1.561  14.997  0.7478 -0.2795  0.0924
  193DOPC  C31723928   0.360   1.560  15.053 -0.9081  0.0248 -0.0045
  193DOPC  H17X23929   0.333   1.576  15.159  0.5094 -0.2469  0.4154
  193DOPC  H17Y23930   0.370   1.452  15.031 -0.3519 -0.0878  0.7908
  193DOPC  C31823931   0.490   1.626  15.018  0.5718  0.5231  0.3750
  193DOPC  H18X23932   0.575   1.596  15.083  0.6163 -1.8373 -0.6514
  193DOPC  H18Y23933   0.520   1.596  14.915  0.9810  3.6046 -0.4918
  193DOPC  H18Z23934   0.486   1.737  15.015 -2.2351  0.4933 -2.1897
  194DOPC     N23935   0.759   7.639  13.090 -0.2517  0.9139 -0.2347
  194DOPC   C1223936   0.826   7.655  13.228 -0.1361  0.4988 -0.4481
  194DOPC  H12A23937   0.762   7.719  13.287 -0.9509 -1.8569  1.3686
  194DOPC  H12B23938   0.918   7.708  13.210 -0.1613  0.6153 -0.2304
  194DOPC   C1323939   0.624   7.571  13.093 -0.0975 -0.2922 -0.2500
  194DOPC  H13A23940   0.576   7.556  12.997 -2.4626  1.1947  0.6204
  194DOPC  H13B23941   0.641   7.469  13.127  0.4490 -1.0020 -2.4525
  194DOPC  H13C23942   0.553   7.614  13.161  0.0990 -0.7765  0.2776
  194DOPC   C1423943   0.837   7.558  12.993  0.1738  0.0629 -1.0115
  194DOPC  H14A23944   0.847   7.453  13.019 -2.7723 -0.6809 -2.4840
  194DOPC  H14B23945   0.788   7.559  12.897  0.5276 -0.8685 -1.2137
  194DOPC  H14C23946   0.936   7.600  12.979 -0.6077  1.5609 -2.2522
  194DOPC   C1523947   0.733   7.777  13.031 -0.3543  0.2531  0.7697
  194DOPC  H15A23948   0.677   7.840  13.098 -2.4793  2.0101 -2.4122
  194DOPC  H15B23949   0.692   7.776  12.931  0.5095 -0.2388  0.4078
  194DOPC  H15C23950   0.828   7.823  13.006 -0.1811 -1.0656 -1.2459
  194DOPC   C1123951   0.854   7.528  13.307 -0.6597  0.3937 -0.3579
  194DOPC  H11A23952   0.896   7.551  13.407  1.5398 -0.0838 -1.1282
  194DOPC  H11B23953   0.759   7.474  13.328  1.0953 -1.8481  2.3661
  194DOPC     P23954   1.097   7.488  13.218 -0.2918 -0.5446 -0.2524
  194DOPC   O1323955   1.087   7.608  13.130  0.5546 -0.1687  0.4151
  194DOPC   O1423956   1.177   7.383  13.153  0.2138  0.5602 -0.0478
  194DOPC   O1223957   0.948   7.442  13.244 -0.1380  0.4576 -0.1539
  194DOPC   O1123958   1.166   7.517  13.361  0.2714  0.1073  0.3847
  194DOPC    C123959   1.227   7.417  13.447  0.2600  0.1536  0.7405
  194DOPC    HA23960   1.262   7.461  13.543  2.6321 -1.8913  0.9093
  194DOPC    HB23961   1.321   7.374  13.407 -0.0211 -0.7723  1.0574
  194DOPC    C223962   1.129   7.300  13.490 -0.1527 -0.3357 -0.6038
  194DOPC    HS23963   1.071   7.292  13.396 -1.0501  2.2418 -0.3265
  194DOPC   O2123964   1.047   7.358  13.593  0.3381  0.3193 -0.2464
  194DOPC   C2123965   0.938   7.287  13.618 -0.0945  0.3023 -0.0378
  194DOPC   O2223966   0.897   7.184  13.565  0.3625 -0.3412  0.0465
  194DOPC   C2223967   0.866   7.341  13.738 -0.2420 -0.5005  0.1646
  194DOPC   H2R23968   0.912   7.434  13.780 -2.7257 -0.4639  3.1437
  194DOPC   H2S23969   0.867   7.261  13.816 -0.0071  1.2098  2.0136
  194DOPC    C323970   1.202   7.171  13.536 -0.1443  0.1084 -0.2866
  194DOPC    HX23971   1.256   7.110  13.460 -1.4434 -2.2661  0.5652
  194DOPC    HY23972   1.123   7.098  13.565 -1.0409  1.8166  1.8097
  194DOPC   O3123973   1.299   7.203  13.644  0.0025  0.3888  0.1359
  194DOPC   C3123974   1.293   7.126  13.752 -0.0930 -0.1539 -0.0055
  194DOPC   O3223975   1.216   7.034  13.768 -1.5511  0.4820  0.4628
  194DOPC   C3223976   1.392   7.183  13.853  0.2321 -0.0995  0.3783
  194DOPC   H2X23977   1.489   7.185  13.798 -0.6788 -0.9186 -1.3636
  194DOPC   H2Y23978   1.354   7.285  13.874  0.9472  0.2112  0.2160
  194DOPC   C2323979   0.715   7.366  13.706 -0.5293  0.0950 -0.1903
  194DOPC   H3R23980   0.661   7.326  13.795  0.9999 -0.0671  0.7038
  194DOPC   H3S23981   0.676   7.312  13.617 -4.1477  2.4774 -0.2723
  194DOPC   C2423982   0.680   7.515  13.704  0.6139 -0.4728  0.0054
  194DOPC   H4R23983   0.605   7.523  13.622  1.2574 -0.7756 -0.6155
  194DOPC   H4S23984   0.767   7.571  13.663  0.4237 -0.1421  0.0460
  194DOPC   C2523985   0.630   7.580  13.830 -0.6443 -0.3283  0.1519
  194DOPC   H5R23986   0.552   7.515  13.875 -1.5310 -0.6323 -1.7096
  194DOPC   H5S23987   0.574   7.673  13.802 -1.4978 -0.6463  0.7562
  194DOPC   C2623988   0.746   7.633  13.913 -0.6087  0.5304 -0.5401
  194DOPC   H6R23989   0.824   7.674  13.846 -1.2723 -0.8525 -2.2256
  194DOPC   H6S23990   0.780   7.550  13.979 -3.5288  1.3161  2.2458
  194DOPC   C2723991   0.698   7.727  14.028 -0.0640 -0.5908 -0.0245
  194DOPC   H7R23992   0.596   7.689  14.048 -0.5229 -0.2655 -1.5515
  194DOPC   H7S23993   0.679   7.828  13.984  0.8825  0.4058  1.7657
  194DOPC   C2823994   0.777   7.731  14.161 -0.6251  0.9186 -0.1378
  194DOPC   H8R23995   0.876   7.781  14.158 -0.6587  1.0808  1.1302
  194DOPC   H8S23996   0.789   7.626  14.196 -1.3381  0.5272 -1.0147
  194DOPC   C2923997   0.691   7.810  14.258 -1.0680 -0.8255 -0.6310
  194DOPC   H9R23998   0.653   7.906  14.221  0.1467 -0.4819 -1.0374
  194DOPC  C21023999   0.647   7.770  14.379  0.6147 -0.7184  0.0335
  194DOPC  H10R24000   0.589   7.839  14.441  1.8280 -0.4161  0.8453
  194DOPC  C21124001   0.661   7.633  14.441 -0.3185 -0.1210 -0.7058
  194DOPC  H11R24002   0.659   7.561  14.357 -1.9196 -2.6453  1.3314
  194DOPC  H11S24003   0.579   7.605  14.510  1.7030  2.2589  3.0548
  194DOPC  C21224004   0.799   7.618  14.519  0.3742 -0.4547 -0.6343
  194DOPC  H12R24005   0.814   7.678  14.611 -0.8751 -2.2888  0.8600
  194DOPC  H12S24006   0.878   7.643  14.446  0.0854  1.7082 -0.2674
  194DOPC  C21324007   0.824   7.476  14.558  0.6423  0.3364  0.4982
  194DOPC  H13R24008   0.852   7.416  14.469  1.4651  1.6642 -0.1755
  194DOPC  H13S24009   0.730   7.425  14.587  2.1302 -1.9417  1.5492
  194DOPC  C21424010   0.930   7.452  14.672 -0.5270  0.4935 -0.2830
  194DOPC  H14R24011   0.881   7.374  14.735 -0.2780  0.3215 -0.3035
  194DOPC  H14S24012   0.949   7.549  14.720 -0.7643  0.9279 -1.0435
  194DOPC  C21524013   1.070   7.407  14.627  0.7830 -0.3130 -0.0174
  194DOPC  H15R24014   1.115   7.501  14.590  1.2332 -0.2634  0.6365
  194DOPC  H15S24015   1.060   7.346  14.534  4.5241 -0.8176 -0.2445
  194DOPC  C21624016   1.154   7.349  14.736 -0.6467  0.1306  0.0786
  194DOPC  H16R24017   1.234   7.289  14.688 -0.8613 -0.4096  0.3882
  194DOPC  H16S24018   1.096   7.273  14.794  3.1952 -4.2529 -1.2476
  194DOPC  C21724019   1.218   7.447  14.840 -0.1665 -0.0872 -0.1696
  194DOPC  H17R24020   1.141   7.519  14.874  0.7400 -0.4013  2.8425
  194DOPC  H17S24021   1.298   7.500  14.784  2.2167 -2.6654  0.5541
  194DOPC  C21824022   1.265   7.390  14.980 -0.4612  0.9284 -0.8702
  194DOPC  H18R24023   1.285   7.472  15.052  1.4079 -1.4026  1.4495
  194DOPC  H18S24024   1.354   7.327  14.997 -0.3818  1.3676  0.4664
  194DOPC  H18T24025   1.178   7.340  15.028 -0.1677 -0.1600 -1.4382
  194DOPC   C3324026   1.400   7.100  13.986 -0.1786 -0.5857  0.0861
  194DOPC   H3X24027   1.295   7.065  13.996 -0.2271 -1.7094 -3.1839
  194DOPC   H3Y24028   1.440   7.157  14.073 -1.5848 -0.5461  0.7307
  194DOPC   C3424029   1.494   6.976  13.974  1.0747 -0.3387  0.6491
  194DOPC   H4X24030   1.591   7.015  13.937 -0.2760  4.8442  1.6926
  194DOPC   H4Y24031   1.440   6.902  13.911 -0.3297  0.3574  0.9827
  194DOPC   C3524032   1.523   6.901  14.108 -0.1054  0.0452  0.1839
  194DOPC   H5X24033   1.428   6.856  14.146 -0.6596  1.0456  0.0062
  194DOPC   H5Y24034   1.551   6.982  14.179  0.6642 -0.8540  0.9416
  194DOPC   C3624035   1.630   6.793  14.101 -0.2387 -0.0971  0.0904
  194DOPC   H6X24036   1.606   6.738  14.008  3.3178  0.2715 -1.2167
  194DOPC   H6Y24037   1.725   6.835  14.062 -0.0674  0.2874  0.9101
  194DOPC   C3724038   1.648   6.700  14.219 -0.4353 -0.0282 -0.4189
  194DOPC   H7X24039   1.552   6.655  14.253 -0.1537  0.5476  1.2144
  194DOPC   H7Y24040   1.713   6.621  14.175  2.4501  2.2367 -0.4854
  194DOPC   C3824041   1.712   6.760  14.347  0.4745 -0.8547 -0.4804
  194DOPC   H8X24042   1.690   6.694  14.434  3.2703  0.1606  1.1372
  194DOPC   H8Y24043   1.656   6.852  14.374  0.7111 -0.0023 -2.7162
  194DOPC   C3924044   1.858   6.798  14.336  0.6605 -0.2967  0.4857
  194DOPC   H9X24045   1.892   6.820  14.234  2.0036  0.4831  1.0852
  194DOPC  C31024046   1.942   6.798  14.437 -0.3168  0.1983  0.2758
  194DOPC  H10X24047   2.049   6.808  14.413 -0.7192  0.4611 -1.5618
  194DOPC  C31124048   1.912   6.758  14.580  0.0666 -0.2380  0.1100
  194DOPC  H11X24049   1.975   6.674  14.615  1.8343  1.1378  0.3893
  194DOPC  H11Y24050   1.804   6.737  14.598  0.3955 -0.8703  1.4716
  194DOPC  C31224051   1.940   6.890  14.657  0.5559 -0.1583 -0.1985
  194DOPC  H12X24052   1.877   6.970  14.612  2.0106  1.1010 -0.0881
  194DOPC  H12Y24053   2.043   6.927  14.641  0.3437 -0.4859 -2.6492
  194DOPC  C31324054   1.903   6.868  14.799  0.5357 -0.0219 -0.4448
  194DOPC  H13X24055   1.796   6.838  14.802  1.0546 -2.0448 -0.4088
  194DOPC  H13Y24056   1.961   6.787  14.848 -1.5821 -1.9765 -0.9821
  194DOPC  C31424057   1.934   6.997  14.873  0.2893  0.0829 -0.2631
  194DOPC  H14X24058   2.026   7.041  14.830  0.9524 -2.3935 -1.5861
  194DOPC  H14Y24059   1.848   7.064  14.854  1.0783  0.9401 -0.9037
  194DOPC  C31524060   1.949   6.966  15.023 -0.4105 -0.0690 -0.3604
  194DOPC  H15X24061   2.040   6.903  15.035  0.3112  0.3778 -2.8546
  194DOPC  H15Y24062   1.860   6.912  15.060 -1.5203  1.2486 -0.9897
  194DOPC  C31624063   1.974   7.090  15.108 -0.3906 -0.8174 -0.9308
  194DOPC  H16X24064   1.960   7.064  15.215 -0.6472  0.8251 -0.5403
  194DOPC  H16Y24065   2.080   7.118  15.094  0.3515 -1.8512  1.9661
  194DOPC  C31724066   1.882   7.210  15.077 -0.5680 -0.6129  0.0887
  194DOPC  H17X24067   1.897   7.252  14.975  2.5018  2.3328  1.5552
  194DOPC  H17Y24068   1.779   7.170  15.091 -0.6586  0.0451  1.4670
  194DOPC  C31824069   1.905   7.322  15.179  0.4467 -0.2442  0.5021
  194DOPC  H18X24070   1.897   7.288  15.284  1.6763 -0.7079  0.4633
  194DOPC  H18Y24071   2.009   7.355  15.162  0.3221 -0.2333 -0.2700
  194DOPC  H18Z24072   1.836   7.407  15.162 -0.3600 -1.1594 -1.0088
  195DOPC     N24073   4.678   0.198  12.761  0.2577 -0.2366  0.0505
  195DOPC   C1224074   4.668   0.222  12.911 -0.7124 -0.0727  0.4901
  195DOPC  H12A24075   4.745   0.167  12.963 -1.0596 -2.1150 -1.0067
  195DOPC  H12B24076   4.577   0.176  12.946 -1.8792  1.2051 -0.7310
  195DOPC   C1324077   4.578   0.276  12.685  0.1485 -0.2737 -0.4336
  195DOPC  H13A24078   4.587   0.383  12.686  0.5680 -0.3133  0.7187
  195DOPC  H13B24079   4.578   0.242  12.582  1.9961 -1.8431  0.0391
  195DOPC  H13C24080   4.479   0.246  12.718 -0.4279  1.0612 -0.8763
  195DOPC   C1424081   4.635   0.057  12.732 -0.3198  0.7446 -0.5794
  195DOPC  H14A24082   4.534   0.035  12.761 -0.2091  0.1692 -0.6179
  195DOPC  H14B24083   4.639   0.035  12.626  0.3974 -1.3255 -0.1633
  195DOPC  H14C24084   4.697  -0.014  12.785 -0.7156 -1.2883 -2.6930
  195DOPC   C1524085   4.814   0.216  12.718 -0.1272 -0.0658  0.8863
  195DOPC  H15A24086   4.818   0.191  12.613  0.8479  1.0826  0.6294
  195DOPC  H15B24087   4.876   0.149  12.775  1.9673  1.4986  0.5690
  195DOPC  H15C24088   4.836   0.319  12.745 -1.9749 -0.1893  3.1966
  195DOPC   C1124089   4.696   0.364  12.969 -0.2679  0.5866  0.4072
  195DOPC  H11A24090   4.633   0.441  12.919 -0.6068 -0.3049 -0.5836
  195DOPC  H11B24091   4.664   0.367  13.075  1.9807  0.3246  1.1349
  195DOPC     P24092   4.941   0.317  13.061 -0.4479 -0.0918 -0.1433
  195DOPC   O1324093   5.077   0.377  13.045  0.8303 -0.1623  0.4655
  195DOPC   O1424094   4.936   0.169  13.050  0.5481 -0.0764  0.0160
  195DOPC   O1224095   4.836   0.389  12.964 -0.3263  0.2363 -0.3700
  195DOPC   O1124096   4.884   0.367  13.191 -0.1032  0.3689 -0.4478
  195DOPC    C124097   4.875   0.502  13.228  0.1664  0.2436 -0.0034
  195DOPC    HA24098   4.771   0.521  13.263 -0.3091 -1.4208 -0.4171
  195DOPC    HB24099   4.886   0.576  13.146  1.8444 -1.4148 -1.3849
  195DOPC    C224100   4.969   0.541  13.337  0.4542 -0.1727 -0.7001
  195DOPC    HS24101   5.074   0.515  13.312  0.3135  0.4013 -1.9555
  195DOPC   O2124102   4.931   0.482  13.463  0.1625 -0.4124 -0.1167
  195DOPC   C2124103   5.002   0.369  13.488  0.1830  0.3186 -0.1158
  195DOPC   O2224104   5.075   0.302  13.413  0.0593 -0.2086  0.0280
  195DOPC   C2224105   4.974   0.329  13.632 -0.1086  0.0334 -0.3132
  195DOPC   H2R24106   4.870   0.292  13.649  0.2431 -0.8181  0.0816
  195DOPC   H2S24107   4.995   0.421  13.691 -0.5233  0.5710 -0.9936
  195DOPC    C324108   4.977   0.695  13.360  0.4585 -0.1772  0.4908
  195DOPC    HX24109   4.879   0.747  13.370  0.6658  0.3882 -0.3744
  195DOPC    HY24110   5.011   0.736  13.263  2.3127 -1.3663  0.6011
  195DOPC   O3124111   5.057   0.734  13.464  0.1339  0.2030 -0.0939
  195DOPC   C3124112   5.002   0.786  13.579  0.6349  0.1774 -0.1506
  195DOPC   O3224113   4.880   0.793  13.591 -0.5417 -0.0411 -0.1609
  195DOPC   C3224114   5.106   0.847  13.672  0.0601  0.2597 -0.4276
  195DOPC   H2X24115   5.146   0.768  13.739 -0.2040  0.0460 -0.5232
  195DOPC   H2Y24116   5.192   0.875  13.606  1.1107 -2.1126 -0.1533
  195DOPC   C2324117   5.058   0.202  13.681 -0.2634  0.5789 -0.1453
  195DOPC   H3R24118   5.165   0.221  13.657  0.3157 -2.7331 -0.7789
  195DOPC   H3S24119   5.020   0.120  13.616 -0.8957  0.2608  0.6007
  195DOPC   C2424120   5.039   0.177  13.830 -0.5257  0.1534  0.3834
  195DOPC   H4R24121   4.941   0.125  13.842 -0.3432 -0.2520  0.1615
  195DOPC   H4S24122   5.016   0.275  13.877  1.5421  0.3295  1.0986
  195DOPC   C2524123   5.151   0.089  13.877 -0.0762  0.8224  0.1077
  195DOPC   H5R24124   5.247   0.142  13.859  0.8882 -0.3994  1.3991
  195DOPC   H5S24125   5.154  -0.013  13.834 -1.5523  1.3231 -1.2595
  195DOPC   C2624126   5.132   0.062  14.032 -0.3136 -0.4358  0.5674
  195DOPC   H6R24127   5.202  -0.019  14.063  0.1642 -2.3990 -4.6308
  195DOPC   H6S24128   5.034   0.012  14.047  1.1137 -2.4965  4.2975
  195DOPC   C2724129   5.139   0.188  14.122 -0.1958 -0.3610  0.1455
  195DOPC   H7R24130   5.149   0.155  14.227 -0.2834 -1.1250 -0.0808
  195DOPC   H7S24131   5.043   0.239  14.101 -0.5474 -0.4529  1.4772
  195DOPC   C2824132   5.247   0.295  14.093  0.1612  0.6331 -0.1637
  195DOPC   H8R24133   5.219   0.334  13.993 -0.0306 -0.3656 -0.5030
  195DOPC   H8S24134   5.343   0.241  14.077 -0.3968 -0.0793 -1.1941
  195DOPC   C2924135   5.269   0.391  14.200  0.5598  0.2828 -0.9098
  195DOPC   H9R24136   5.336   0.358  14.282 -0.0541 -1.9383 -1.2298
  195DOPC  C21024137   5.217   0.512  14.206 -0.2226  0.3904 -0.5850
  195DOPC  H10R24138   5.228   0.577  14.294 -1.2621 -0.8065  0.4691
  195DOPC  C21124139   5.129   0.581  14.099 -0.4200 -0.0416  0.5002
  195DOPC  H11R24140   5.114   0.519  14.008 -1.0750  0.0467  0.5444
  195DOPC  H11S24141   5.180   0.674  14.066 -1.0912  0.6382  1.3338
  195DOPC  C21224142   4.990   0.611  14.160 -0.2330 -0.5041 -0.1461
  195DOPC  H12R24143   5.010   0.674  14.250 -0.2163  0.2196 -0.6444
  195DOPC  H12S24144   4.935   0.518  14.188  0.0341 -0.5113  0.3533
  195DOPC  C21324145   4.902   0.685  14.062  0.2040 -0.1444 -0.4327
  195DOPC  H13R24146   4.891   0.632  13.964  0.0603 -1.4039  0.2386
  195DOPC  H13S24147   4.955   0.780  14.040  1.4878 -0.9188 -0.7905
  195DOPC  C21424148   4.761   0.703  14.106 -0.0082 -0.4131  0.0958
  195DOPC  H14R24149   4.746   0.665  14.209  1.2336 -1.2903 -0.0311
  195DOPC  H14S24150   4.688   0.644  14.045 -2.8694  0.9974  1.9118
  195DOPC  C21524151   4.717   0.853  14.108 -0.3401  0.4830 -0.0835
  195DOPC  H15R24152   4.752   0.898  14.012  0.4074  1.6157  0.7018
  195DOPC  H15S24153   4.782   0.907  14.181  0.1241  0.7033 -0.6494
  195DOPC  C21624154   4.567   0.879  14.127  0.3768 -0.2170 -0.1454
  195DOPC  H16R24155   4.534   0.828  14.220  0.3121  0.4316  0.1932
  195DOPC  H16S24156   4.507   0.840  14.042 -3.2079  0.5101  1.8278
  195DOPC  C21724157   4.545   1.032  14.155  0.5156  0.2835  0.8438
  195DOPC  H17R24158   4.568   1.089  14.062 -3.2521  2.4789  1.0799
  195DOPC  H17S24159   4.619   1.062  14.232 -0.6079  1.4478  1.5003
  195DOPC  C21824160   4.402   1.072  14.189  0.3613  0.4109  0.0238
  195DOPC  H18R24161   4.361   1.017  14.276 -0.2564  1.9908  0.7872
  195DOPC  H18S24162   4.346   1.056  14.095  0.6537 -0.1665 -0.0583
  195DOPC  H18T24163   4.385   1.180  14.211 -2.5021 -0.1319  0.8874
  195DOPC   C3324164   5.049   0.973  13.739  0.1945 -0.3621 -0.0997
  195DOPC   H3X24165   4.979   0.948  13.821 -1.5235  2.9490 -0.3502
  195DOPC   H3Y24166   4.988   1.025  13.662  0.7754 -1.2593 -1.1994
  195DOPC   C3424167   5.169   1.057  13.787 -0.4622 -0.3903  0.1587
  195DOPC   H4X24168   5.219   1.081  13.691 -1.0615 -1.7623 -0.5206
  195DOPC   H4Y24169   5.240   0.988  13.838  0.8125 -0.0965 -1.1413
  195DOPC   C3524170   5.140   1.178  13.864 -0.4603  0.8190  0.2365
  195DOPC   H5X24171   5.065   1.151  13.942 -0.1563  2.0298  0.9724
  195DOPC   H5Y24172   5.100   1.253  13.793  2.0113  0.1365 -2.0310
  195DOPC   C3624173   5.263   1.243  13.928 -0.5152  0.5393 -0.1258
  195DOPC   H6X24174   5.307   1.174  14.004  1.0967  1.9494  0.2879
  195DOPC   H6Y24175   5.337   1.274  13.851 -0.5131 -0.9817 -0.7729
  195DOPC   C3724176   5.238   1.372  14.004  0.5074 -0.3215  0.5706
  195DOPC   H7X24177   5.335   1.424  14.021  0.8079 -1.0291  1.0612
  195DOPC   H7Y24178   5.177   1.442  13.942 -1.4456 -3.0345 -0.7672
  195DOPC   C3824179   5.155   1.344  14.135 -0.1410  0.3824  0.5146
  195DOPC   H8X24180   5.219   1.314  14.220 -0.7183 -0.9152  0.5099
  195DOPC   H8Y24181   5.084   1.261  14.117  0.0809  0.4954 -1.0211
  195DOPC   C3924182   5.077   1.466  14.176 -0.0595  0.0536  0.0985
  195DOPC   H9X24183   5.086   1.553  14.110 -2.1715 -0.0182 -0.3610
  195DOPC  C31024184   4.985   1.473  14.275  0.8376  0.7040  0.1547
  195DOPC  H10X24185   4.929   1.566  14.289  1.0879  0.5908  2.1631
  195DOPC  C31124186   4.951   1.356  14.364  0.1473 -0.2327  0.0436
  195DOPC  H11X24187   5.036   1.284  14.360 -0.6667 -1.1933 -0.8193
  195DOPC  H11Y24188   4.868   1.297  14.320  0.9194 -1.7119  0.4910
  195DOPC  C31224189   4.917   1.406  14.510  0.0047 -0.3924 -0.5042
  195DOPC  H12X24190   4.893   1.310  14.560 -2.6254  0.5702  0.2059
  195DOPC  H12Y24191   4.828   1.472  14.507 -0.7340 -1.3935 -2.3595
  195DOPC  C31324192   5.042   1.470  14.581  0.5305 -0.3874 -0.2168
  195DOPC  H13X24193   5.127   1.398  14.577  1.6913  0.8749  0.8448
  195DOPC  H13Y24194   5.081   1.561  14.531  0.4428 -0.9726 -1.3849
  195DOPC  C31424195   5.003   1.482  14.725 -0.2580 -1.0348  0.3230
  195DOPC  H14X24196   4.920   1.556  14.720  0.8721  0.2493 -0.2282
  195DOPC  H14Y24197   4.954   1.387  14.752  2.0686 -1.7602  2.3708
  195DOPC  C31524198   5.128   1.521  14.819  0.3932  1.0738  0.0271
  195DOPC  H15X24199   5.176   1.613  14.779  0.0536  0.0215 -3.0692
  195DOPC  H15Y24200   5.206   1.442  14.811  1.2897  1.9158  0.2300
  195DOPC  C31624201   5.074   1.530  14.968 -0.5841 -0.2988  0.0620
  195DOPC  H16X24202   4.991   1.604  14.973 -0.7356 -0.5467  1.9808
  195DOPC  H16Y24203   5.024   1.433  14.987 -1.4955  0.2063  0.3269
  195DOPC  C31724204   5.176   1.561  15.074  0.3633  0.1929  0.7621
  195DOPC  H17X24205   5.228   1.466  15.099  0.8056  0.2210 -0.0147
  195DOPC  H17Y24206   5.250   1.638  15.044 -0.4463  0.5989 -0.2707
  195DOPC  C31824207   5.117   1.603  15.206  0.1845 -1.6471  0.3385
  195DOPC  H18X24208   5.096   1.517  15.273 -0.6138 -1.4471  0.3608
  195DOPC  H18Y24209   5.186   1.674  15.255 -1.2027  1.0540 -1.3586
  195DOPC  H18Z24210   5.015   1.645  15.195  0.1398 -1.8064  0.1149
  196DOPC     N24211   6.756   7.177  12.825  0.0207 -0.5362  0.1089
  196DOPC   C1224212   6.718   7.143  12.963 -0.6249  0.0727 -0.3727
  196DOPC  H12A24213   6.776   7.057  12.992  0.7228  1.7315  2.1661
  196DOPC  H12B24214   6.616   7.109  12.966 -0.0515 -1.7114 -0.1425
  196DOPC   C1324215   6.664   7.289  12.777 -0.5486  0.0511  0.9217
  196DOPC  H13A24216   6.559   7.269  12.763 -0.9305  1.9068  0.8306
  196DOPC  H13B24217   6.685   7.377  12.835 -2.3974  1.3616 -0.2709
  196DOPC  H13C24218   6.692   7.306  12.674 -1.8706 -0.1118  0.5060
  196DOPC   C1424219   6.728   7.054  12.744  0.4207 -0.7100 -0.5651
  196DOPC  H14A24220   6.757   7.066  12.640 -3.2927 -1.1465 -1.8052
  196DOPC  H14B24221   6.764   6.961  12.783 -1.7439 -0.4116  2.4689
  196DOPC  H14C24222   6.621   7.043  12.735  0.1249  1.1661  0.1900
  196DOPC   C1524223   6.900   7.205  12.814  0.7182  0.0811  0.2306
  196DOPC  H15A24224   6.943   7.113  12.851  1.2267  1.0614  2.1941
  196DOPC  H15B24225   6.928   7.286  12.880  1.2772 -1.4128  1.8961
  196DOPC  H15C24226   6.932   7.232  12.715  0.9072  1.0395  0.5379
  196DOPC   C1124227   6.752   7.241  13.077  0.1299  0.0916  0.3011
  196DOPC  H11A24228   6.685   7.327  13.057  0.4944 -0.2507 -2.7629
  196DOPC  H11B24229   6.726   7.201  13.178 -3.8421  2.1318  0.2978
  196DOPC     P24230   6.992   7.234  13.178  0.3981 -0.5812  0.1557
  196DOPC   O1324231   7.123   7.289  13.129 -0.1544  0.1203  0.5634
  196DOPC   O1424232   6.973   7.091  13.189  0.2248 -0.5117  0.4707
  196DOPC   O1224233   6.884   7.283  13.073 -0.3194  0.3876 -0.2699
  196DOPC   O1124234   6.945   7.307  13.309  0.1313  0.1055 -0.0500
  196DOPC    C124235   6.935   7.449  13.323 -0.3098 -0.1477  0.1809
  196DOPC    HA24236   6.824   7.459  13.331 -0.3349  0.0160 -0.3673
  196DOPC    HB24237   6.955   7.502  13.228 -2.7260 -1.0271 -0.9006
  196DOPC    C224238   7.016   7.505  13.440  0.5865  0.0005 -0.3036
  196DOPC    HS24239   7.094   7.428  13.459 -0.7996 -1.6240 -0.9938
  196DOPC   O2124240   6.926   7.511  13.547  0.0119 -0.2819 -0.6310
  196DOPC   C2124241   6.962   7.506  13.671  0.1157  0.0868  0.1913
  196DOPC   O2224242   7.077   7.507  13.715 -0.0753 -0.0935  1.0961
  196DOPC   C2224243   6.837   7.494  13.764 -0.0459 -0.3299 -1.1475
  196DOPC   H2R24244   6.758   7.450  13.699 -1.4319 -2.3998  1.7183
  196DOPC   H2S24245   6.803   7.593  13.803  3.5139  1.1687 -1.4442
  196DOPC    C324246   7.067   7.654  13.406 -1.0476 -0.2147  0.0778
  196DOPC    HX24247   6.974   7.713  13.398 -0.8796  0.2521  1.2950
  196DOPC    HY24248   7.122   7.643  13.310 -0.7259 -0.2129  0.2604
  196DOPC   O3124249   7.158   7.709  13.507 -0.0147  0.2047  0.2991
  196DOPC   C3124250   7.271   7.650  13.526 -0.3827 -0.0233  0.2286
  196DOPC   O3224251   7.313   7.543  13.481 -0.7225  0.0408  0.5133
  196DOPC   C3224252   7.366   7.745  13.590  0.5294 -0.1658 -0.4521
  196DOPC   H2X24253   7.462   7.692  13.609  1.2538  0.8491 -1.2031
  196DOPC   H2Y24254   7.388   7.832  13.524  0.4997 -1.0425 -1.6337
  196DOPC   C2324255   6.863   7.408  13.889 -0.4678 -0.0291 -0.2502
  196DOPC   H3R24256   6.940   7.330  13.872 -1.5464 -0.9992 -0.7739
  196DOPC   H3S24257   6.769   7.360  13.921 -0.2212 -0.8351 -0.7181
  196DOPC   C2424258   6.907   7.495  14.012  0.8186 -0.2659  0.4462
  196DOPC   H4R24259   6.823   7.563  14.039  1.0586  0.1235  0.2226
  196DOPC   H4S24260   6.995   7.556  13.981  0.7998 -1.2575 -1.7960
  196DOPC   C2524261   6.955   7.424  14.142 -0.5636  0.8053  0.7535
  196DOPC   H5R24262   6.988   7.508  14.206  2.3376  0.7914 -0.5649
  196DOPC   H5S24263   7.038   7.358  14.107 -0.5971  0.7386  0.7994
  196DOPC   C2624264   6.841   7.343  14.207 -0.4160  0.2292 -0.4931
  196DOPC   H6R24265   6.817   7.262  14.135  0.6317  0.3308 -0.9829
  196DOPC   H6S24266   6.752   7.409  14.215 -1.3668 -1.1417  0.9700
  196DOPC   C2724267   6.874   7.258  14.334  0.6731 -0.4034  0.0189
  196DOPC   H7R24268   6.939   7.171  14.307  0.8448 -0.9022  1.8596
  196DOPC   H7S24269   6.784   7.206  14.374  1.9468 -1.7530  1.2760
  196DOPC   C2824270   6.935   7.341  14.447  0.3313 -0.2924  0.5316
  196DOPC   H8R24271   6.856   7.415  14.474 -1.0152 -0.4486 -2.5997
  196DOPC   H8S24272   7.016   7.408  14.411 -0.1753  1.0575  1.7812
  196DOPC   C2924273   6.975   7.250  14.561 -0.1335  0.0521 -0.1822
  196DOPC   H9R24274   7.082   7.233  14.546 -0.4501 -0.0695 -2.8605
  196DOPC  C21024275   6.914   7.194  14.669  0.7245 -0.0985 -0.7683
  196DOPC  H10R24276   6.975   7.123  14.728  0.4107  0.7480  0.6122
  196DOPC  C21124277   6.768   7.212  14.708  0.9744 -0.4693 -0.5104
  196DOPC  H11R24278   6.724   7.111  14.720  2.8914 -1.5287 -1.8238
  196DOPC  H11S24279   6.712   7.264  14.627 -2.7135  0.6327  2.4663
  196DOPC  C21224280   6.737   7.287  14.831  0.6075 -0.7274 -0.1465
  196DOPC  H12R24281   6.786   7.247  14.922  2.9866  2.9529  0.4042
  196DOPC  H12S24282   6.631   7.311  14.855  0.9051 -2.1520  3.2131
  196DOPC  C21324283   6.811   7.425  14.824  0.3111 -0.2045  0.2372
  196DOPC  H13R24284   6.800   7.482  14.729  5.0230  1.4624  0.4174
  196DOPC  H13S24285   6.921   7.413  14.830  0.5511  1.4884 -0.2223
  196DOPC  C21424286   6.758   7.511  14.941 -0.1954  0.3419  0.3591
  196DOPC  H14R24287   6.779   7.468  15.042 -1.2115 -0.3566  0.2806
  196DOPC  H14S24288   6.648   7.524  14.935 -0.0036  2.2876  0.2246
  196DOPC  C21524289   6.806   7.655  14.928  0.4152  0.7103  0.1640
  196DOPC  H15R24290   6.791   7.677  14.820 -1.0397 -3.9687 -0.8011
  196DOPC  H15S24291   6.915   7.654  14.951  0.8043  0.1922 -1.5572
  196DOPC  C21624292   6.715   7.755  15.004  0.1028 -0.1263  0.4714
  196DOPC  H16R24293   6.717   7.713  15.107  1.5156  1.3296  1.0626
  196DOPC  H16S24294   6.608   7.747  14.972  0.0330 -2.6088  1.1190
  196DOPC  C21724295   6.765   7.896  14.993 -0.2693 -0.2485 -0.3320
  196DOPC  H17R24296   6.869   7.914  15.029 -0.2576 -0.3477 -0.3155
  196DOPC  H17S24297   6.702   7.954  15.063  1.6765  0.3070  1.0622
  196DOPC  C21824298   6.746   7.962  14.859 -0.3368  0.2083  0.0696
  196DOPC  H18R24299   6.639   7.958  14.828 -1.1693  0.1956  2.6945
  196DOPC  H18S24300   6.816   7.925  14.782 -0.0332  0.3083  0.2960
  196DOPC  H18T24301   6.777   8.067  14.877  3.0267 -0.8760  1.3009
  196DOPC   C3324302   7.329   7.792  13.736 -0.1846  0.6902 -0.3381
  196DOPC   H3X24303   7.247   7.726  13.770  0.5611 -0.5709 -0.9297
  196DOPC   H3Y24304   7.290   7.896  13.730  2.6869  1.8374 -1.3200
  196DOPC   C3424305   7.443   7.801  13.839  0.2785  0.4765 -0.0367
  196DOPC   H4X24306   7.512   7.882  13.805  0.4511  0.3043 -0.0966
  196DOPC   H4Y24307   7.490   7.701  13.836 -2.1130 -0.6918 -0.5543
  196DOPC   C3524308   7.403   7.834  13.979 -0.4215  0.0764 -0.3667
  196DOPC   H5X24309   7.322   7.762  14.006  1.1439 -2.5843 -2.2949
  196DOPC   H5Y24310   7.367   7.939  13.981 -1.9036 -0.4092  1.3985
  196DOPC   C3624311   7.527   7.835  14.074  0.0354  0.1450 -0.2846
  196DOPC   H6X24312   7.550   7.729  14.099 -1.0829  0.2211  1.2283
  196DOPC   H6Y24313   7.599   7.903  14.025 -0.1936  1.9040  1.6684
  196DOPC   C3724314   7.492   7.894  14.212 -0.3633 -0.2642 -0.0044
  196DOPC   H7X24315   7.422   7.978  14.194  0.8811  1.5375  2.8069
  196DOPC   H7Y24316   7.433   7.820  14.269 -0.8483 -0.6928 -1.0443
  196DOPC   C3824317   7.618   7.937  14.291  0.5834  0.3896  0.0257
  196DOPC   H8X24318   7.672   8.006  14.223 -0.8797  0.7062 -0.8751
  196DOPC   H8Y24319   7.677   7.844  14.299 -0.6797 -0.4039  0.5769
  196DOPC   C3924320   7.599   7.992  14.432 -0.5788 -0.2725 -0.1610
  196DOPC   H9X24321   7.642   8.091  14.450  1.5146 -1.0120 -0.8056
  196DOPC  C31024322   7.554   7.921  14.538 -0.3044 -0.0925  0.3111
  196DOPC  H10X24323   7.553   7.965  14.639 -0.0583  1.2524 -0.2498
  196DOPC  C31124324   7.515   7.774  14.538  0.1381  0.4823  0.1212
  196DOPC  H11X24325   7.556   7.722  14.449  1.2067  0.2006  0.7500
  196DOPC  H11Y24326   7.405   7.761  14.545  0.3675 -2.6877 -0.6639
  196DOPC  C31224327   7.588   7.695  14.651 -0.3169  0.1670  0.3443
  196DOPC  H12X24328   7.689   7.740  14.650 -0.8413  1.3799 -1.0958
  196DOPC  H12Y24329   7.591   7.588  14.622 -1.2324 -0.3203  1.8805
  196DOPC  C31324330   7.505   7.710  14.774 -0.1458 -0.2688  0.5049
  196DOPC  H13X24331   7.496   7.818  14.799 -1.1975 -0.3111  0.3387
  196DOPC  H13Y24332   7.403   7.678  14.745  0.0458 -0.0484 -0.4543
  196DOPC  C31424333   7.562   7.628  14.891  0.5723  0.9516  0.6915
  196DOPC  H14X24334   7.546   7.519  14.881 -0.1095  1.1634 -0.8284
  196DOPC  H14Y24335   7.671   7.652  14.897  0.4861  2.3751 -1.7323
  196DOPC  C31524336   7.489   7.668  15.023 -0.1602 -0.0327  0.2861
  196DOPC  H15X24337   7.382   7.673  14.995  0.3874  2.6865 -1.7853
  196DOPC  H15Y24338   7.517   7.774  15.042 -0.5005  0.1159 -0.0524
  196DOPC  C31624339   7.521   7.572  15.145  0.0257 -0.4073  0.8789
  196DOPC  H16X24340   7.525   7.466  15.113  0.7034 -0.4976  1.2383
  196DOPC  H16Y24341   7.623   7.597  15.180 -0.5079  1.0925  1.4764
  196DOPC  C31724342   7.421   7.586  15.262  0.0871 -0.1899 -0.0090
  196DOPC  H17X24343   7.320   7.579  15.216 -0.1512 -0.3881  0.5419
  196DOPC  H17Y24344   7.432   7.504  15.336 -0.6551 -0.4723 -0.2029
  196DOPC  C31824345   7.430   7.707  15.354  0.5120 -0.4303 -0.3208
  196DOPC  H18X24346   7.335   7.715  15.411  1.9291  1.7576  1.9660
  196DOPC  H18Y24347   7.515   7.693  15.425 -0.2746  1.7382  1.1560
  196DOPC  H18Z24348   7.451   7.805  15.305  1.8719 -0.5573 -0.0514
  197DOPC     N24349   3.262   6.635  12.682 -0.1059 -0.6355  0.3634
  197DOPC   C1224350   3.190   6.522  12.757 -0.2002  0.1305 -0.3734
  197DOPC  H12A24351   3.267   6.451  12.780 -0.6397 -0.6075 -1.1039
  197DOPC  H12B24352   3.130   6.468  12.684  1.1614 -1.5667 -0.3044
  197DOPC   C1324353   3.374   6.676  12.769  0.4020 -0.0053 -0.8788
  197DOPC  H13A24354   3.426   6.584  12.791  0.8166 -0.3871 -3.2864
  197DOPC  H13B24355   3.448   6.738  12.721  0.7469 -0.1559 -0.5497
  197DOPC  H13C24356   3.334   6.710  12.864  0.9999 -0.5498 -0.4187
  197DOPC   C1424357   3.175   6.753  12.651 -0.4249 -0.3894  0.1646
  197DOPC  H14A24358   3.132   6.797  12.740  1.1287  2.9977 -0.5894
  197DOPC  H14B24359   3.231   6.832  12.603  1.4090 -1.4898  0.3847
  197DOPC  H14C24360   3.096   6.720  12.586  0.4877 -2.1434 -0.1530
  197DOPC   C1524361   3.322   6.573  12.568 -0.1984  0.1570  0.3856
  197DOPC  H15A24362   3.396   6.498  12.590  2.1626  1.2328 -3.0806
  197DOPC  H15B24363   3.373   6.634  12.495  0.1235 -2.7952 -2.0533
  197DOPC  H15C24364   3.245   6.528  12.506  0.2568  0.2229 -0.2361
  197DOPC   C1124365   3.099   6.544  12.883  0.0467 -1.0413 -0.1892
  197DOPC  H11A24366   3.031   6.626  12.852 -1.8029 -2.8065 -1.0166
  197DOPC  H11B24367   3.044   6.450  12.906  0.6741 -1.4102 -0.1644
  197DOPC     P24368   3.259   6.484  13.080 -0.1319 -0.0610  0.2294
  197DOPC   O1324369   3.387   6.545  13.117  0.0363  0.3534  0.2725
  197DOPC   O1424370   3.264   6.351  13.019  0.1998 -0.3847  0.5942
  197DOPC   O1224371   3.171   6.584  12.995 -0.1253  0.1165 -0.6163
  197DOPC   O1124372   3.180   6.463  13.212 -0.1152  0.1021 -0.3891
  197DOPC    C124373   3.116   6.573  13.279  0.2297 -0.3981 -0.0583
  197DOPC    HA24374   3.086   6.663  13.221  1.8767 -0.3754 -0.9055
  197DOPC    HB24375   3.164   6.605  13.374  0.8080 -1.0114 -0.1391
  197DOPC    C224376   2.984   6.540  13.343  0.4931  0.2097  0.9025
  197DOPC    HS24377   2.928   6.634  13.362 -0.2447 -0.3784  1.7014
  197DOPC   O2124378   2.993   6.444  13.445 -0.1242 -0.7114 -0.3758
  197DOPC   C2124379   2.909   6.459  13.548 -0.6071 -0.0545  0.2971
  197DOPC   O2224380   2.820   6.537  13.559  0.1205 -0.6551  0.1756
  197DOPC   C2224381   2.954   6.358  13.658 -0.1401  0.1144 -0.7070
  197DOPC   H2R24382   3.063   6.339  13.654 -0.3777 -2.0278  1.0499
  197DOPC   H2S24383   2.890   6.268  13.643 -1.1728  0.6726  0.1619
  197DOPC    C324384   2.881   6.473  13.241  0.2646  0.3053  0.4600
  197DOPC    HX24385   2.898   6.365  13.221 -0.6980  0.5433 -1.9735
  197DOPC    HY24386   2.896   6.524  13.144 -0.4021  2.2413  1.3159
  197DOPC   O3124387   2.740   6.507  13.276  0.6439 -0.1024 -0.2595
  197DOPC   C3124388   2.674   6.405  13.331  0.5227  0.2961 -0.0346
  197DOPC   O3224389   2.717   6.291  13.350 -0.2991  0.0034 -0.3911
  197DOPC   C3224390   2.536   6.457  13.366 -0.1144  0.5595 -0.9377
  197DOPC   H2X24391   2.553   6.553  13.419  1.9654 -0.4315  0.3188
  197DOPC   H2Y24392   2.477   6.463  13.272 -0.9053 -1.1939 -0.5896
  197DOPC   C2324393   2.915   6.390  13.808 -0.5479  0.6494  0.3243
  197DOPC   H3R24394   2.926   6.307  13.881 -0.3186  0.5636  0.1925
  197DOPC   H3S24395   2.810   6.427  13.816 -0.9221 -0.3567  0.1782
  197DOPC   C2424396   2.995   6.505  13.864 -0.3309 -0.1632  0.2626
  197DOPC   H4R24397   2.962   6.603  13.824 -0.2111 -0.1426  0.2134
  197DOPC   H4S24398   3.100   6.488  13.832 -0.1963 -0.8401  1.0070
  197DOPC   C2524399   2.989   6.524  14.015 -0.1848 -0.6520 -0.0281
  197DOPC   H5R24400   3.038   6.438  14.065 -2.1805 -2.3253 -0.8398
  197DOPC   H5S24401   2.886   6.528  14.057 -0.4884  2.8606 -0.7586
  197DOPC   C2624402   3.070   6.647  14.067 -0.4587  0.0762 -0.0264
  197DOPC   H6R24403   3.039   6.737  14.009  1.6870  0.5992 -0.4532
  197DOPC   H6S24404   3.179   6.636  14.049 -0.3012  0.5233  0.6171
  197DOPC   C2724405   3.040   6.679  14.217  0.1201  0.6551  0.6499
  197DOPC   H7R24406   2.929   6.692  14.217  0.1132  0.6453  1.4413
  197DOPC   H7S24407   3.089   6.778  14.231  0.6261  0.5670 -0.3876
  197DOPC   C2824408   3.079   6.575  14.324  0.0243 -0.2352 -0.4432
  197DOPC   H8R24409   3.026   6.479  14.303 -0.8077  0.0659  0.2155
  197DOPC   H8S24410   3.047   6.606  14.425  0.8778 -1.1556  0.1234
  197DOPC   C2924411   3.230   6.556  14.329 -0.4218  0.2215 -0.2698
  197DOPC   H9R24412   3.280   6.648  14.363  1.4858 -0.7214 -0.4072
  197DOPC  C21024413   3.299   6.439  14.327  0.4258  0.2785  0.4786
  197DOPC  H10R24414   3.409   6.439  14.337  0.5779 -1.3460 -0.7512
  197DOPC  C21124415   3.238   6.302  14.309  0.3472  0.3139  0.3307
  197DOPC  H11R24416   3.301   6.239  14.243 -0.1469 -0.9580  1.0264
  197DOPC  H11S24417   3.136   6.304  14.264 -0.9364  1.4034  3.0889
  197DOPC  C21224418   3.226   6.212  14.435 -0.8365  0.1323  0.0458
  197DOPC  H12R24419   3.154   6.129  14.424  0.0112 -0.9452  2.0588
  197DOPC  H12S24420   3.186   6.277  14.516 -3.4840 -0.3675 -0.7807
  197DOPC  C21324421   3.358   6.161  14.486 -0.2805 -0.9188 -0.3703
  197DOPC  H13R24422   3.430   6.242  14.507 -4.0626  2.8744 -0.5380
  197DOPC  H13S24423   3.413   6.086  14.425  0.2699 -1.4397  0.7368
  197DOPC  C21424424   3.334   6.085  14.617  0.0019  0.5824  0.1959
  197DOPC  H14R24425   3.250   6.013  14.607  0.4100  0.2750 -1.1467
  197DOPC  H14S24426   3.322   6.145  14.710 -0.4540  1.7377 -0.5870
  197DOPC  C21524427   3.451   5.991  14.650 -0.2864  0.3904 -0.2087
  197DOPC  H15R24428   3.474   5.944  14.552 -3.7058 -0.5868 -0.6834
  197DOPC  H15S24429   3.422   5.909  14.719  3.3256 -0.1799  0.8761
  197DOPC  C21624430   3.580   6.052  14.707  0.8217  0.5151  0.2631
  197DOPC  H16R24431   3.647   6.094  14.629 -2.0405  0.7445 -2.2560
  197DOPC  H16S24432   3.630   5.966  14.757 -2.6352 -2.3714 -0.8297
  197DOPC  C21724433   3.554   6.140  14.830  0.6789  0.4970  0.2789
  197DOPC  H17R24434   3.470   6.098  14.889  0.2173  0.5060 -0.3631
  197DOPC  H17S24435   3.513   6.233  14.787 -1.0590 -0.0562  0.6811
  197DOPC  C21824436   3.685   6.166  14.908  0.6317 -0.3378  0.3150
  197DOPC  H18R24437   3.752   6.202  14.827 -0.4245  0.2719 -0.3150
  197DOPC  H18S24438   3.720   6.073  14.958 -1.1318 -2.0871 -1.5835
  197DOPC  H18T24439   3.673   6.244  14.987 -1.6895  1.4424 -1.6401
  197DOPC   C3324440   2.454   6.356  13.444  0.2280  0.6403  0.0073
  197DOPC   H3X24441   2.467   6.261  13.387  1.4280  0.5505  0.3999
  197DOPC   H3Y24442   2.345   6.378  13.445  0.3591  1.3012 -0.0565
  197DOPC   C3424443   2.512   6.336  13.589  0.2855 -0.2959  0.9133
  197DOPC   H4X24444   2.519   6.433  13.643  2.1232  0.8157 -1.1727
  197DOPC   H4Y24445   2.618   6.306  13.573  0.8013  0.9009  1.8933
  197DOPC   C3524446   2.429   6.237  13.668  0.2479  0.4457 -0.6097
  197DOPC   H5X24447   2.392   6.146  13.616  0.4299  1.3859 -2.4574
  197DOPC   H5Y24448   2.329   6.274  13.701 -0.2786 -0.6138 -0.9649
  197DOPC   C3624449   2.486   6.207  13.811 -0.2344 -0.1128 -0.0731
  197DOPC   H6X24450   2.588   6.169  13.791  0.7376  2.7743 -1.1199
  197DOPC   H6Y24451   2.481   6.303  13.866 -0.0368 -0.1211 -0.0420
  197DOPC   C3724452   2.413   6.093  13.873 -0.1339 -0.3460  0.0539
  197DOPC   H7X24453   2.306   6.121  13.881  0.1237  0.3878  0.9866
  197DOPC   H7Y24454   2.416   6.002  13.809  0.3311 -0.7175  0.6009
  197DOPC   C3824455   2.455   6.059  14.018  0.6166  0.5058 -0.4750
  197DOPC   H8X24456   2.555   6.013  14.030  0.1978 -0.0223  1.3902
  197DOPC   H8Y24457   2.379   5.984  14.051  0.9190  0.4306  0.0683
  197DOPC   C3924458   2.442   6.173  14.116  0.1306  0.2681 -0.0252
  197DOPC   H9X24459   2.341   6.197  14.153  1.0440  2.8603  1.0294
  197DOPC  C31024460   2.536   6.264  14.156 -0.0893 -0.0177  0.1809
  197DOPC  H10X24461   2.520   6.341  14.233 -2.2121 -0.6187  0.4118
  197DOPC  C31124462   2.679   6.262  14.108  0.7475 -0.3533 -0.3635
  197DOPC  H11X24463   2.717   6.362  14.080  0.0506  0.2466  0.7659
  197DOPC  H11Y24464   2.699   6.184  14.031 -0.1771 -1.3043  0.3221
  197DOPC  C31224465   2.764   6.226  14.233 -0.7372  0.2206  0.2482
  197DOPC  H12X24466   2.760   6.312  14.304  0.5558  2.6747 -2.4089
  197DOPC  H12Y24467   2.872   6.211  14.211 -0.5062  0.9334  0.8553
  197DOPC  C31324468   2.718   6.101  14.310 -0.0704  0.3727  0.2780
  197DOPC  H13X24469   2.613   6.101  14.345  0.1961  0.2489  1.1136
  197DOPC  H13Y24470   2.729   6.013  14.242  0.3784 -0.1429  0.9979
  197DOPC  C31424471   2.799   6.079  14.434  0.3325  0.2539  0.0640
  197DOPC  H14X24472   2.908   6.065  14.421  0.1113 -0.7344 -0.9121
  197DOPC  H14Y24473   2.788   6.168  14.499  2.6772 -0.9911  2.3611
  197DOPC  C31524474   2.761   5.951  14.507  0.2304  0.7324  0.2643
  197DOPC  H15X24475   2.773   5.860  14.444 -0.7112 -0.9242  2.3522
  197DOPC  H15Y24476   2.653   5.946  14.530  0.4034 -3.1190  0.8572
  197DOPC  C31624477   2.828   5.929  14.640 -0.1283 -0.1256 -0.1638
  197DOPC  H16X24478   2.929   5.882  14.638  0.9964  2.0474  1.7960
  197DOPC  H16Y24479   2.849   6.027  14.688  1.2109 -0.3188 -0.3288
  197DOPC  C31724480   2.740   5.850  14.741  0.3538 -1.1157  0.0851
  197DOPC  H17X24481   2.770   5.876  14.845  0.2340  0.2594 -0.2085
  197DOPC  H17Y24482   2.632   5.873  14.733  0.5868  0.2089  0.5256
  197DOPC  C31824483   2.746   5.697  14.727 -0.5576 -0.0680 -0.5882
  197DOPC  H18X24484   2.677   5.652  14.801 -0.5735  0.6448 -0.1613
  197DOPC  H18Y24485   2.702   5.684  14.625 -1.7480  0.9672 -0.2234
  197DOPC  H18Z24486   2.853   5.667  14.731 -0.0376  1.7824  0.6266
  198DOPC     N24487   6.540   0.245  12.862  0.0617 -0.7008  0.1342
  198DOPC   C1224488   6.422   0.178  12.792 -0.5038 -0.3879  0.4489
  198DOPC  H12A24489   6.419   0.083  12.843  1.9262 -1.0053 -0.3989
  198DOPC  H12B24490   6.430   0.170  12.685 -2.2703  0.8568  0.1690
  198DOPC   C1324491   6.518   0.233  13.001  0.0533  0.3372 -0.2218
  198DOPC  H13A24492   6.508   0.129  13.026 -1.3907  0.0869 -1.6331
  198DOPC  H13B24493   6.594   0.285  13.057  1.3790 -0.4612 -1.2170
  198DOPC  H13C24494   6.420   0.272  13.024  0.1988  1.1150 -0.8706
  198DOPC   C1424495   6.558   0.390  12.826 -0.0408  0.0450  0.1479
  198DOPC  H14A24496   6.570   0.407  12.720  1.0520 -2.8921 -0.2816
  198DOPC  H14B24497   6.472   0.439  12.871  0.9119  0.3364  1.7079
  198DOPC  H14C24498   6.652   0.420  12.869 -1.3755  1.5163  2.2413
  198DOPC   C1524499   6.669   0.180  12.826  0.1826  1.1622  0.2102
  198DOPC  H15A24500   6.660   0.072  12.826  0.2004  1.1384  1.6436
  198DOPC  H15B24501   6.741   0.208  12.901  1.0449  0.2975 -0.2723
  198DOPC  H15C24502   6.709   0.219  12.734  1.1381 -0.4944 -0.1213
  198DOPC   C1124503   6.281   0.235  12.815 -0.1773  0.0728  0.0678
  198DOPC  H11A24504   6.274   0.342  12.788  2.1587  0.1177 -0.5549
  198DOPC  H11B24505   6.217   0.184  12.739 -0.2751 -1.0220  0.8579
  198DOPC     P24506   6.156   0.273  13.033 -0.1204  0.0024  0.2111
  198DOPC   O1324507   6.120   0.187  13.147  0.1543 -0.3540  0.0840
  198DOPC   O1424508   6.044   0.344  12.964 -0.2453  0.1436 -0.4717
  198DOPC   O1224509   6.231   0.187  12.935 -0.0166  0.4799 -0.1172
  198DOPC   O1124510   6.267   0.379  13.071  0.3378  0.2566  0.5843
  198DOPC    C124511   6.228   0.491  13.160  0.2533  0.0814  0.7897
  198DOPC    HA24512   6.168   0.449  13.243 -0.3252 -1.6920 -0.4516
  198DOPC    HB24513   6.161   0.549  13.093  0.3083 -2.5321 -1.7693
  198DOPC    C224514   6.356   0.561  13.214 -0.0509 -0.1839 -0.5116
  198DOPC    HS24515   6.433   0.546  13.135 -0.1691 -2.1999 -0.2877
  198DOPC   O2124516   6.399   0.486  13.331 -0.0747 -0.2917 -0.4549
  198DOPC   C2124517   6.511   0.538  13.395 -0.0828 -0.5224  0.0004
  198DOPC   O2224518   6.571   0.631  13.352 -0.0597  0.4482 -0.0774
  198DOPC   C2224519   6.540   0.466  13.522  0.0306 -0.0115  0.0660
  198DOPC   H2R24520   6.619   0.509  13.587  0.3047 -0.6651  0.1666
  198DOPC   H2S24521   6.562   0.359  13.506  0.4482 -0.4877  3.2079
  198DOPC    C324522   6.320   0.710  13.231  0.6018 -0.7443  0.1378
  198DOPC    HX24523   6.308   0.739  13.124 -0.3657 -0.5616  0.2897
  198DOPC    HY24524   6.406   0.771  13.268 -0.0437 -0.3520  1.0089
  198DOPC   O3124525   6.202   0.730  13.304 -0.0291 -0.2570  0.0253
  198DOPC   C3124526   6.110   0.812  13.257  0.8252 -0.3083  0.0979
  198DOPC   O3224527   6.097   0.852  13.143  0.2840  0.2664 -0.3085
  198DOPC   C3224528   6.006   0.851  13.359 -0.3898 -0.3850 -0.2239
  198DOPC   H2X24529   5.965   0.945  13.318  1.0736 -0.4772 -2.0084
  198DOPC   H2Y24530   5.923   0.777  13.354  1.1096 -2.1311 -0.4534
  198DOPC   C2324531   6.416   0.469  13.613 -0.0064 -0.2014 -0.8874
  198DOPC   H3R24532   6.332   0.426  13.553  0.5514 -0.4581 -1.4992
  198DOPC   H3S24533   6.386   0.574  13.631 -2.0217 -1.0661  1.2625
  198DOPC   C2424534   6.426   0.413  13.752  0.4738 -0.5239 -0.7124
  198DOPC   H4R24535   6.530   0.430  13.787  0.3804 -1.6175  0.1422
  198DOPC   H4S24536   6.407   0.304  13.746 -0.9816 -0.3482  0.3643
  198DOPC   C2524537   6.329   0.489  13.841  0.3509  0.0113  0.0082
  198DOPC   H5R24538   6.223   0.477  13.808 -0.2753  0.9782  1.5407
  198DOPC   H5S24539   6.348   0.598  13.835 -0.9957  0.3725  1.3732
  198DOPC   C2624540   6.346   0.445  13.988 -0.3572 -0.1074 -1.0313
  198DOPC   H6R24541   6.304   0.531  14.046 -1.2169 -0.1992 -1.4936
  198DOPC   H6S24542   6.454   0.431  14.006  0.0054  0.6470 -2.4474
  198DOPC   C2724543   6.273   0.316  14.028 -0.2352 -0.3922  0.5340
  198DOPC   H7R24544   6.294   0.293  14.135  0.5075 -1.6234  0.1424
  198DOPC   H7S24545   6.324   0.247  13.958  1.3982 -0.0739  1.3546
  198DOPC   C2824546   6.117   0.323  14.017 -0.3725 -0.1146  0.5227
  198DOPC   H8R24547   6.080   0.219  14.030 -1.0613  0.1843  0.9450
  198DOPC   H8S24548   6.097   0.367  13.916 -0.6867  1.3001  1.1742
  198DOPC   C2924549   6.057   0.410  14.120  0.9371  0.2181 -0.5471
  198DOPC   H9R24550   6.033   0.514  14.089  0.0487  0.3128  0.3880
  198DOPC  C21024551   6.013   0.364  14.242 -0.3589 -0.5833 -0.5048
  198DOPC  H10R24552   5.988   0.445  14.311 -1.0047 -2.4761  1.6290
  198DOPC  C21124553   6.030   0.229  14.298 -0.4722  0.3590 -0.2684
  198DOPC  H11R24554   6.123   0.186  14.258  1.0657  1.8756  1.4673
  198DOPC  H11S24555   5.949   0.172  14.248  0.0629 -0.4109 -0.2632
  198DOPC  C21224556   6.015   0.225  14.448  0.7071 -0.1338  0.2038
  198DOPC  H12R24557   6.100   0.284  14.490  1.8280 -0.9101 -0.8883
  198DOPC  H12S24558   6.027   0.119  14.480 -2.1921 -0.4061  0.6390
  198DOPC  C21324559   5.869   0.245  14.499  0.1489  0.4142 -0.6171
  198DOPC  H13R24560   5.795   0.168  14.471 -0.5987  0.5387  0.8950
  198DOPC  H13S24561   5.821   0.336  14.456 -1.2398  0.8276  1.6388
  198DOPC  C21424562   5.867   0.265  14.654  0.0037 -0.1252 -0.3585
  198DOPC  H14R24563   5.781   0.324  14.694  0.9473  0.8208  0.3600
  198DOPC  H14S24564   5.957   0.327  14.675  0.6735 -1.2183  0.0419
  198DOPC  C21524565   5.892   0.130  14.729 -0.1001 -0.7613 -0.3126
  198DOPC  H15R24566   5.982   0.080  14.689  0.8596 -0.7455  1.7080
  198DOPC  H15S24567   5.806   0.062  14.709  0.8574 -2.0309 -0.1739
  198DOPC  C21624568   5.900   0.157  14.880 -0.1692 -0.2772 -0.7065
  198DOPC  H16R24569   5.819   0.224  14.914  0.0526 -0.9249  1.2213
  198DOPC  H16S24570   5.993   0.215  14.898  0.0566 -1.0805  0.9156
  198DOPC  C21724571   5.919   0.030  14.968  0.3257  0.7384  0.6236
  198DOPC  H17R24572   5.992   0.054  15.049  0.4371  0.9686  0.4547
  198DOPC  H17S24573   5.973  -0.041  14.902 -2.0283 -1.2714  0.7279
  198DOPC  C21824574   5.790  -0.035  15.018  0.3262  0.5787  0.2635
  198DOPC  H18R24575   5.719   0.041  15.058  0.5733  1.7065 -1.3585
  198DOPC  H18S24576   5.810  -0.119  15.088  0.1880  0.0171 -0.3662
  198DOPC  H18T24577   5.738  -0.084  14.933 -0.1223  0.2941  0.6892
  198DOPC   C3324578   6.061   0.873  13.503  0.1418  0.1225  0.1324
  198DOPC   H3X24579   5.996   0.949  13.552  1.1163  1.2996 -0.3586
  198DOPC   H3Y24580   6.159   0.924  13.497 -0.3290  1.2658  1.4405
  198DOPC   C3424581   6.055   0.748  13.589 -0.5704  0.4985  0.0764
  198DOPC   H4X24582   6.121   0.674  13.540 -1.1540 -0.1422  0.2428
  198DOPC   H4Y24583   5.951   0.710  13.581  0.1258 -1.2689 -1.3033
  198DOPC   C3524584   6.104   0.760  13.736 -0.2817  0.7501  0.3133
  198DOPC   H5X24585   6.208   0.796  13.744 -0.0097 -0.1115  0.8300
  198DOPC   H5Y24586   6.107   0.659  13.782  1.9600  0.8930  0.5631
  198DOPC   C3624587   6.020   0.840  13.836  0.4327  0.0928 -0.6280
  198DOPC   H6X24588   5.987   0.938  13.797 -2.1604 -0.2938  0.3926
  198DOPC   H6Y24589   5.932   0.772  13.844  1.0405 -0.5600  0.9767
  198DOPC   C3724590   6.076   0.834  13.975 -0.2200  0.0576 -0.4610
  198DOPC   H7X24591   6.002   0.874  14.047  0.2420  0.7631 -0.3715
  198DOPC   H7Y24592   6.112   0.732  14.000  3.2675  1.1594 -0.4196
  198DOPC   C3824593   6.198   0.927  13.987  0.3578 -0.0359  0.1063
  198DOPC   H8X24594   6.278   0.887  13.921 -0.6653 -0.6779 -0.7665
  198DOPC   H8Y24595   6.236   0.908  14.090 -2.4655 -0.6521  1.1392
  198DOPC   C3924596   6.170   1.073  13.971  0.2523  0.2260  0.4170
  198DOPC   H9X24597   6.132   1.096  13.870 -1.4773 -0.7730  0.7989
  198DOPC  C31024598   6.206   1.174  14.054 -0.4695 -0.1952  0.2334
  198DOPC  H10X24599   6.181   1.280  14.041 -1.6870 -0.3119  1.3579
  198DOPC  C31124600   6.287   1.150  14.181 -0.4254 -0.2654  0.2156
  198DOPC  H11X24601   6.345   1.244  14.197  0.8637 -1.1565  0.8924
  198DOPC  H11Y24602   6.353   1.062  14.167  0.1857  0.0358  1.0779
  198DOPC  C31224603   6.198   1.121  14.304  0.2613 -0.5209 -0.0522
  198DOPC  H12X24604   6.120   1.049  14.272 -0.9254  0.4951  0.4574
  198DOPC  H12Y24605   6.157   1.219  14.338  2.1314  0.1429  0.4144
  198DOPC  C31324606   6.277   1.053  14.426 -0.0319  0.3244  0.0238
  198DOPC  H13X24607   6.340   0.973  14.381  0.2320  0.2669  0.4876
  198DOPC  H13Y24608   6.357   1.109  14.479 -0.4248 -1.7692  3.0557
  198DOPC  C31424609   6.173   1.002  14.526 -0.2435 -0.0771 -0.6423
  198DOPC  H14X24610   6.091   0.951  14.471 -0.5915  1.1538 -1.3075
  198DOPC  H14Y24611   6.224   0.934  14.596 -0.0651  1.5115  0.8406
  198DOPC  C31524612   6.109   1.111  14.619 -0.1539  0.0401 -0.0971
  198DOPC  H15X24613   6.058   1.182  14.551 -2.3559 -0.6847  0.7265
  198DOPC  H15Y24614   6.187   1.162  14.679  0.9101 -2.3492  0.7010
  198DOPC  C31624615   6.009   1.045  14.716 -0.1596  0.0708  0.5098
  198DOPC  H16X24616   5.942   0.975  14.662  0.6305 -0.2427 -0.0839
  198DOPC  H16Y24617   6.076   0.980  14.776 -0.4089 -0.1245  0.5793
  198DOPC  C31724618   5.937   1.151  14.806 -0.0710  0.2493 -0.0738
  198DOPC  H17X24619   6.008   1.197  14.879 -2.6793 -0.7445  3.3850
  198DOPC  H17Y24620   5.896   1.229  14.738 -1.1027  0.0351  0.2876
  198DOPC  C31824621   5.816   1.095  14.883  0.2356 -0.2978  0.4851
  198DOPC  H18X24622   5.740   1.172  14.908  1.1365 -0.0420  2.7013
  198DOPC  H18Y24623   5.774   1.005  14.832  1.1162 -1.4338  1.7056
  198DOPC  H18Z24624   5.845   1.069  14.987  1.3357  2.3974  0.9205
  199DOPC     N24625   5.073   1.830  12.989  0.1024 -0.7720  0.0822
  199DOPC   C1224626   5.081   1.863  13.139 -0.2354  0.4455 -0.2111
  199DOPC  H12A24627   4.986   1.854  13.189 -0.5613 -2.9578 -1.2420
  199DOPC  H12B24628   5.101   1.969  13.150  1.3750  0.0932  0.4659
  199DOPC   C1324629   5.195   1.889  12.922  0.0807  0.5220 -0.6574
  199DOPC  H13A24630   5.204   1.860  12.818 -1.2189 -0.4793 -0.5126
  199DOPC  H13B24631   5.210   1.996  12.926 -0.6837  0.6082  0.1092
  199DOPC  H13C24632   5.285   1.847  12.966  0.2807  0.2964 -1.2654
  199DOPC   C1424633   4.956   1.893  12.916 -0.4298 -0.8493 -0.8558
  199DOPC  H14A24634   4.961   1.887  12.809 -1.8136 -0.2045 -0.9715
  199DOPC  H14B24635   4.862   1.862  12.958 -0.9753  0.5865 -0.9553
  199DOPC  H14C24636   4.961   1.997  12.946  0.8622 -1.5077  1.5238
  199DOPC   C1524637   5.072   1.688  12.960 -0.0500 -0.3251  0.0645
  199DOPC  H15A24638   5.166   1.635  12.966  0.2237  0.2417  1.0645
  199DOPC  H15B24639   5.052   1.680  12.854 -1.9345  0.1117  0.3489
  199DOPC  H15C24640   5.001   1.633  13.019 -1.3782  0.3302 -0.8498
  199DOPC   C1124641   5.187   1.793  13.229 -0.3530  0.4138  0.5521
  199DOPC  H11A24642   5.162   1.804  13.337 -0.2317  0.4482  0.5763
  199DOPC  H11B24643   5.164   1.688  13.200  2.5158  0.0380 -0.6719
  199DOPC     P24644   5.434   1.733  13.230  0.1596 -0.0993  0.0396
  199DOPC   O1324645   5.559   1.787  13.174  0.0846 -0.1392 -0.1309
  199DOPC   O1424646   5.404   1.600  13.179  0.3654  0.8912  0.0416
  199DOPC   O1224647   5.327   1.835  13.193  0.2486 -0.6348 -0.0785
  199DOPC   O1124648   5.438   1.724  13.393  0.2503 -0.2877  0.2370
  199DOPC    C124649   5.552   1.751  13.476  0.3217  0.1847  0.8385
  199DOPC    HA24650   5.522   1.808  13.566  1.4277  3.2888 -0.6063
  199DOPC    HB24651   5.613   1.829  13.426 -2.2222  1.6384 -0.1811
  199DOPC    C224652   5.638   1.626  13.501 -1.0768 -0.2386 -0.4791
  199DOPC    HS24653   5.671   1.598  13.399  2.0310  0.9349  0.0832
  199DOPC   O2124654   5.554   1.523  13.558 -0.0654  0.2386  0.2605
  199DOPC   C2124655   5.602   1.403  13.536  0.5007  0.6040 -0.6222
  199DOPC   O2224656   5.705   1.375  13.475  0.2668 -0.1586 -0.2690
  199DOPC   C2224657   5.500   1.299  13.581  0.1588  0.4228  0.3009
  199DOPC   H2R24658   5.425   1.278  13.501 -0.7356  1.2851  0.8913
  199DOPC   H2S24659   5.434   1.333  13.664 -2.5237 -1.3741 -0.9490
  199DOPC    C324660   5.762   1.663  13.593  0.4363  0.4189  0.2937
  199DOPC    HX24661   5.823   1.736  13.536  1.7353 -0.7669  0.1047
  199DOPC    HY24662   5.825   1.571  13.597  0.1199  0.1591 -0.4873
  199DOPC   O3124663   5.721   1.722  13.715  0.9947 -0.2495 -0.4418
  199DOPC   C3124664   5.738   1.645  13.831 -0.3100  0.2807  0.2894
  199DOPC   O3224665   5.782   1.536  13.834  0.5295  0.6959 -0.4930
  199DOPC   C3224666   5.692   1.730  13.950 -0.5384 -0.8584  0.2511
  199DOPC   H2X24667   5.768   1.810  13.956  0.5032 -1.7705 -0.3346
  199DOPC   H2Y24668   5.602   1.785  13.915 -0.0792 -0.6510 -0.6272
  199DOPC   C2324669   5.568   1.168  13.634 -0.6415  0.4122  0.0559
  199DOPC   H3R24670   5.637   1.126  13.558 -1.3877  2.2593 -1.7416
  199DOPC   H3S24671   5.488   1.093  13.651 -0.2999 -0.2162 -1.0094
  199DOPC   C2424672   5.639   1.167  13.775 -0.2202  0.1665 -0.1314
  199DOPC   H4R24673   5.567   1.208  13.849  1.2305  0.5657  1.1182
  199DOPC   H4S24674   5.729   1.231  13.761  0.0255 -0.0178  0.5537
  199DOPC   C2524675   5.690   1.036  13.822  0.2720 -0.1249  1.1423
  199DOPC   H5R24676   5.749   1.044  13.916  3.0025  1.5830 -0.5548
  199DOPC   H5S24677   5.753   0.984  13.747 -2.1033 -1.8462  0.2398
  199DOPC   C2624678   5.575   0.946  13.866  0.3406  0.0228  1.1089
  199DOPC   H6R24679   5.507   0.929  13.780  1.4071 -1.6836  0.5649
  199DOPC   H6S24680   5.521   0.990  13.952 -1.2498  0.9518 -0.3078
  199DOPC   C2724681   5.618   0.805  13.897 -0.2815  0.5038  0.0598
  199DOPC   H7R24682   5.689   0.768  13.820  0.2616  0.2009  0.6956
  199DOPC   H7S24683   5.531   0.737  13.912  0.1722 -0.2129 -0.4922
  199DOPC   C2824684   5.693   0.793  14.034 -0.2513 -0.0804 -0.4330
  199DOPC   H8R24685   5.640   0.860  14.105  0.4424 -0.3098  0.3147
  199DOPC   H8S24686   5.788   0.845  14.009  0.1690 -0.1022  1.0337
  199DOPC   C2924687   5.719   0.653  14.082  0.0161 -0.1480 -0.0565
  199DOPC   H9R24688   5.742   0.592  13.993  1.3553 -0.2228  0.3156
  199DOPC  C21024689   5.700   0.601  14.202 -0.3041  0.3312  0.1702
  199DOPC  H10R24690   5.726   0.499  14.231 -0.9465 -0.1854 -0.9998
  199DOPC  C21124691   5.647   0.691  14.317 -0.2038  0.1364  0.1816
  199DOPC  H11R24692   5.538   0.711  14.308 -0.9508 -2.6488  1.6567
  199DOPC  H11S24693   5.715   0.778  14.325 -0.6743  0.4077  1.6872
  199DOPC  C21224694   5.661   0.610  14.449  0.3903 -0.5223 -0.5937
  199DOPC  H12R24695   5.674   0.680  14.534  0.3601 -0.9037 -0.2712
  199DOPC  H12S24696   5.757   0.554  14.441  0.8711  0.1679  0.1668
  199DOPC  C21324697   5.549   0.504  14.472  0.2004  0.9003  0.8928
  199DOPC  H13R24698   5.593   0.425  14.537 -0.5335  1.9669  2.7263
  199DOPC  H13S24699   5.540   0.452  14.374  0.7038  0.4581  1.0704
  199DOPC  C21424700   5.410   0.550  14.511 -0.5546 -0.6615  0.4964
  199DOPC  H14R24701   5.338   0.465  14.505 -0.2450 -0.9980  1.3986
  199DOPC  H14S24702   5.375   0.630  14.444 -1.1045 -1.7545 -0.5592
  199DOPC  C21524703   5.415   0.613  14.654  0.1014  0.5535 -0.2777
  199DOPC  H15R24704   5.490   0.695  14.650  0.6551 -0.0158 -2.2415
  199DOPC  H15S24705   5.453   0.533  14.721 -1.3338 -0.1074 -0.2016
  199DOPC  C21624706   5.279   0.664  14.688  0.0448  0.8653 -0.1985
  199DOPC  H16R24707   5.215   0.573  14.684  2.5025 -0.9190 -0.8351
  199DOPC  H16S24708   5.265   0.739  14.608 -2.1223  1.0595  0.2926
  199DOPC  C21724709   5.254   0.736  14.820  1.3208 -0.8959  0.4007
  199DOPC  H17R24710   5.264   0.660  14.900  0.6206 -1.0488  0.3441
  199DOPC  H17S24711   5.149   0.770  14.829  1.4634 -0.2217 -0.3613
  199DOPC  C21824712   5.338   0.866  14.825  0.1658  0.5208  0.6702
  199DOPC  H18R24713   5.295   0.954  14.876 -0.6842  1.0558 -0.9079
  199DOPC  H18S24714   5.344   0.902  14.720 -1.6981 -1.3907 -0.1752
  199DOPC  H18T24715   5.437   0.837  14.866  1.0277  2.1731 -0.1322
  199DOPC   C3324716   5.685   1.661  14.080  0.3061  0.2726 -0.1580
  199DOPC   H3X24717   5.692   1.737  14.161  0.6731 -1.3450  1.3937
  199DOPC   H3Y24718   5.775   1.597  14.086 -0.2012 -0.4107  0.3252
  199DOPC   C3424719   5.549   1.586  14.119  0.2995 -0.1619  0.0901
  199DOPC   H4X24720   5.565   1.476  14.109 -2.5109 -0.5972 -0.3858
  199DOPC   H4Y24721   5.466   1.603  14.047 -1.5053  1.6578  2.4506
  199DOPC   C3524722   5.494   1.629  14.255 -0.5461  0.1885 -0.7397
  199DOPC   H5X24723   5.574   1.618  14.331 -0.5028 -0.9873 -0.9359
  199DOPC   H5Y24724   5.426   1.547  14.285 -1.7272  0.8751 -1.4546
  199DOPC   C3624725   5.418   1.763  14.268 -0.7441 -0.2703  0.5762
  199DOPC   H6X24726   5.495   1.842  14.284 -1.8094  1.0540 -0.5206
  199DOPC   H6Y24727   5.368   1.771  14.169  2.0510  0.5482 -0.8666
  199DOPC   C3724728   5.325   1.773  14.386 -0.1358  0.0289 -0.7967
  199DOPC   H7X24729   5.286   1.877  14.392 -0.3471 -0.0929  0.0673
  199DOPC   H7Y24730   5.245   1.696  14.385 -0.9961  0.8300  0.9955
  199DOPC   C3824731   5.400   1.752  14.525  0.0003  0.9036 -0.1206
  199DOPC   H8X24732   5.449   1.653  14.515  1.7832  1.8083 -0.8526
  199DOPC   H8Y24733   5.326   1.738  14.606  0.8044 -1.1431  0.3053
  199DOPC   C3924734   5.494   1.867  14.556  0.0440  0.5963 -0.0765
  199DOPC   H9X24735   5.456   1.970  14.565 -1.4019 -0.0051  1.1750
  199DOPC  C31024736   5.627   1.848  14.586 -0.6679 -0.6104  0.0438
  199DOPC  H10X24737   5.679   1.940  14.617  0.3758 -0.6642 -1.4693
  199DOPC  C31124738   5.709   1.723  14.581  0.2443  0.1670  0.0940
  199DOPC  H11X24739   5.785   1.719  14.499  1.5766  0.8099  1.2576
  199DOPC  H11Y24740   5.642   1.635  14.568  1.9996 -1.3522  0.8254
  199DOPC  C31224741   5.781   1.686  14.716 -1.0987  0.0821  1.3744
  199DOPC  H12X24742   5.846   1.775  14.732  3.1101 -2.6819  1.2196
  199DOPC  H12Y24743   5.851   1.602  14.697 -1.2033 -0.0483  1.5642
  199DOPC  C31324744   5.702   1.645  14.839 -0.2348  0.5846 -0.0098
  199DOPC  H13X24745   5.755   1.647  14.936  1.9821 -2.3643 -1.0226
  199DOPC  H13Y24746   5.625   1.725  14.850  1.6471  2.4903  0.0862
  199DOPC  C31424747   5.641   1.506  14.825  0.7209  0.0807  0.1680
  199DOPC  H14X24748   5.570   1.511  14.740 -0.1564 -1.4366  0.7734
  199DOPC  H14Y24749   5.718   1.428  14.809 -0.7546 -1.0369 -1.7861
  199DOPC  C31524750   5.556   1.466  14.946 -0.8559  0.7305 -0.0371
  199DOPC  H15X24751   5.493   1.555  14.968 -0.1524  1.0846  0.5940
  199DOPC  H15Y24752   5.635   1.458  15.024 -1.4257 -1.0149  0.4030
  199DOPC  C31624753   5.484   1.332  14.928 -0.6061  0.3171  0.2020
  199DOPC  H16X24754   5.399   1.338  14.857  1.9435 -2.7317 -3.5045
  199DOPC  H16Y24755   5.555   1.261  14.880 -1.4673 -0.1915 -0.3384
  199DOPC  C31724756   5.442   1.264  15.064  0.0145 -0.1957  0.0664
  199DOPC  H17X24757   5.390   1.342  15.123 -0.7695 -1.6600  1.3870
  199DOPC  H17Y24758   5.374   1.182  15.033  1.2734 -0.9255 -0.8612
  199DOPC  C31824759   5.557   1.220  15.150 -0.5254  0.1994 -0.5711
  199DOPC  H18X24760   5.602   1.123  15.119  1.0471  0.9328 -0.6334
  199DOPC  H18Y24761   5.647   1.283  15.136  0.7538 -1.8120 -2.0860
  199DOPC  H18Z24762   5.526   1.210  15.257  0.9235 -2.6063 -0.3057
  200DOPC     N24763   1.808   6.026  13.051  0.2826  0.2222 -0.3058
  200DOPC   C1224764   1.745   6.038  13.190  0.1125  0.3385  0.1856
  200DOPC  H12A24765   1.792   5.962  13.250 -0.1446 -1.4027 -1.7337
  200DOPC  H12B24766   1.643   6.002  13.185  0.5446 -0.9722  0.3773
  200DOPC   C1324767   1.952   6.055  13.051  0.0911 -0.5270 -0.0589
  200DOPC  H13A24768   2.000   6.076  12.957  0.2979  0.5131  0.2675
  200DOPC  H13B24769   1.970   6.135  13.122  1.6533 -0.7646 -0.1516
  200DOPC  H13C24770   2.001   5.970  13.095  0.5752 -0.4391 -0.4229
  200DOPC   C1424771   1.733   6.122  12.958 -0.9098 -0.1363 -0.2610
  200DOPC  H14A24772   1.793   6.132  12.868  0.6426 -0.6474  0.6680
  200DOPC  H14B24773   1.636   6.084  12.932  0.3621 -3.2899 -0.9112
  200DOPC  H14C24774   1.732   6.219  13.006  1.0620 -0.6984  1.0383
  200DOPC   C1524775   1.779   5.885  12.990  0.2871  0.7433  0.2199
  200DOPC  H15A24776   1.805   5.878  12.886  0.5050  1.5719  0.2087
  200DOPC  H15B24777   1.678   5.846  12.988 -0.7471  3.1888  0.8818
  200DOPC  H15C24778   1.847   5.808  13.025 -0.6774 -1.1022 -1.7152
  200DOPC   C1124779   1.759   6.183  13.267  0.2137  0.3428 -0.2831
  200DOPC  H11A24780   1.713   6.177  13.368 -2.1049 -0.8159 -1.3462
  200DOPC  H11B24781   1.866   6.192  13.298  0.0138  0.8006  0.2814
  200DOPC     P24782   1.563   6.339  13.184  0.1900 -0.2623 -0.0711
  200DOPC   O1324783   1.504   6.271  13.065  0.1980 -0.5778 -0.2237
  200DOPC   O1424784   1.543   6.486  13.187  0.2737  0.0983 -0.2663
  200DOPC   O1224785   1.720   6.303  13.195  0.1562 -0.4254  0.6094
  200DOPC   O1124786   1.495   6.274  13.309 -0.6500  0.6215 -0.5341
  200DOPC    C124787   1.422   6.338  13.409  0.4908 -0.1869 -0.6561
  200DOPC    HA24788   1.339   6.271  13.440 -0.1323 -0.0043 -1.8693
  200DOPC    HB24789   1.384   6.425  13.351  2.1466 -0.3110 -1.9906
  200DOPC    C224790   1.523   6.387  13.523  0.3271 -0.1218  0.2425
  200DOPC    HS24791   1.610   6.442  13.481 -1.1277  1.0556 -1.3860
  200DOPC   O2124792   1.567   6.270  13.600 -0.8264 -0.4711  0.5576
  200DOPC   C2124793   1.668   6.280  13.686 -0.1455  0.3199 -0.1865
  200DOPC   O2224794   1.732   6.380  13.698 -0.0003  0.2303 -0.6319
  200DOPC   C2224795   1.700   6.156  13.763 -0.7290  0.6227  0.1261
  200DOPC   H2R24796   1.811   6.150  13.756 -0.8779 -0.9136 -1.7997
  200DOPC   H2S24797   1.659   6.064  13.716  1.3651 -0.6477  0.6130
  200DOPC    C324798   1.448   6.475  13.617  0.2753 -0.1063  0.2238
  200DOPC    HX24799   1.423   6.570  13.565  0.0450 -0.7911 -0.9509
  200DOPC    HY24800   1.520   6.509  13.695  0.8982 -1.7322  0.3842
  200DOPC   O3124801   1.332   6.410  13.665 -0.1653 -0.6834  0.2780
  200DOPC   C3124802   1.214   6.459  13.634 -0.4438  0.6397 -0.3793
  200DOPC   O3224803   1.195   6.556  13.563 -0.6712  0.5313  0.1437
  200DOPC   C3224804   1.110   6.361  13.691 -0.3480 -0.4439  0.6840
  200DOPC   H2X24805   1.012   6.409  13.672  0.2128  0.6310  0.3988
  200DOPC   H2Y24806   1.121   6.278  13.618  1.3568  0.9140 -0.7120
  200DOPC   C2324807   1.675   6.170  13.914  0.3765 -0.4775  0.2627
  200DOPC   H3R24808   1.749   6.229  13.971  1.4597 -2.1782  0.6958
  200DOPC   H3S24809   1.686   6.068  13.957  1.2731 -0.4409  0.1320
  200DOPC   C2424810   1.526   6.211  13.936  0.5254 -0.5614 -0.2908
  200DOPC   H4R24811   1.455   6.155  13.872  0.2692 -0.4868 -0.0692
  200DOPC   H4S24812   1.519   6.315  13.898  2.5395  0.3872  1.7055
  200DOPC   C2524813   1.472   6.214  14.083 -0.2933 -0.3680  0.1274
  200DOPC   H5R24814   1.496   6.110  14.115 -1.7083 -1.7796 -2.9217
  200DOPC   H5S24815   1.361   6.222  14.075 -0.1862 -0.4623 -1.9417
  200DOPC   C2624816   1.541   6.325  14.163  0.4102  0.3023  0.4169
  200DOPC   H6R24817   1.542   6.410  14.092  0.6592 -1.2309 -1.5212
  200DOPC   H6S24818   1.645   6.294  14.184  1.2902  1.3806 -1.9347
  200DOPC   C2724819   1.461   6.365  14.286 -0.4908  0.2798  0.1310
  200DOPC   H7R24820   1.352   6.377  14.267 -1.0278 -0.8237  2.2081
  200DOPC   H7S24821   1.495   6.467  14.316 -2.4925  1.4002 -1.1590
  200DOPC   C2824822   1.495   6.270  14.398 -0.3532  0.1264 -0.5135
  200DOPC   H8R24823   1.457   6.168  14.374 -1.5230  0.6082 -0.8040
  200DOPC   H8S24824   1.441   6.305  14.489 -0.3602 -0.3418 -0.3331
  200DOPC   C2924825   1.648   6.263  14.434 -0.0481 -0.8070 -0.1054
  200DOPC   H9R24826   1.708   6.353  14.415  1.4617 -1.1044  2.6722
  200DOPC  C21024827   1.707   6.171  14.511  0.1843  0.5501  0.2869
  200DOPC  H10R24828   1.817   6.169  14.511  0.1853  0.3679  0.8814
  200DOPC  C21124829   1.644   6.048  14.567  0.5435  0.1173 -0.3820
  200DOPC  H11R24830   1.611   5.983  14.483  1.7463 -1.7349  0.5100
  200DOPC  H11S24831   1.557   6.067  14.633  1.6013  0.1290  1.0373
  200DOPC  C21224832   1.734   5.956  14.658 -0.4912 -0.0733 -0.7183
  200DOPC  H12R24833   1.791   6.023  14.727 -0.7592  2.2492 -2.5922
  200DOPC  H12S24834   1.806   5.913  14.585 -0.6474 -0.2968 -0.7399
  200DOPC  C21324835   1.656   5.850  14.738 -0.8410 -0.1658 -0.2334
  200DOPC  H13R24836   1.580   5.792  14.682 -1.2077  0.0920 -0.0033
  200DOPC  H13S24837   1.613   5.913  14.819  1.4268  1.3809 -0.1405
  200DOPC  C21424838   1.756   5.748  14.791  0.7089 -0.3513 -0.0098
  200DOPC  H14R24839   1.836   5.811  14.835  0.1123  0.6284 -0.3137
  200DOPC  H14S24840   1.810   5.692  14.711  1.5153 -0.3010  0.4854
  200DOPC  C21524841   1.679   5.658  14.882 -0.1787 -0.1205  0.7242
  200DOPC  H15R24842   1.603   5.599  14.825  0.5927 -0.3165 -0.1231
  200DOPC  H15S24843   1.622   5.712  14.961  1.9509  2.3811  0.6988
  200DOPC  C21624844   1.769   5.554  14.956  1.3318 -0.2400 -0.4883
  200DOPC  H16R24845   1.816   5.483  14.885  0.8024  0.3964 -1.4930
  200DOPC  H16S24846   1.688   5.506  15.016 -0.9001  1.0092 -2.3410
  200DOPC  C21724847   1.860   5.617  15.057 -0.2094 -0.6308  0.1371
  200DOPC  H17R24848   1.814   5.708  15.100 -0.4077 -0.2346 -0.8882
  200DOPC  H17S24849   1.948   5.652  14.998 -1.7501  1.3219 -1.1248
  200DOPC  C21824850   1.909   5.525  15.168  0.5107 -0.4602 -0.1474
  200DOPC  H18R24851   1.820   5.484  15.220  2.8526 -1.7917  3.2629
  200DOPC  H18S24852   1.973   5.581  15.241 -0.6188  0.3783  0.2290
  200DOPC  H18T24853   1.971   5.442  15.128  0.2068 -1.7276  1.8656
  200DOPC   C3324854   1.135   6.312  13.832  0.4176 -0.3785 -0.4202
  200DOPC   H3X24855   1.241   6.289  13.858  0.2372  0.7505  1.4822
  200DOPC   H3Y24856   1.072   6.220  13.840 -2.3204  1.1168 -3.0125
  200DOPC   C3424857   1.079   6.416  13.934  0.0250  0.3227 -0.7893
  200DOPC   H4X24858   1.076   6.357  14.028  0.2643 -0.5458 -1.3103
  200DOPC   H4Y24859   0.977   6.452  13.909 -0.0945  0.5506  0.0307
  200DOPC   C3524860   1.168   6.540  13.964 -0.0834 -0.1228  0.0852
  200DOPC   H5X24861   1.184   6.603  13.873  2.3649  1.2594  1.3988
  200DOPC   H5Y24862   1.268   6.506  13.998 -0.5301 -0.5271  1.0112
  200DOPC   C3624863   1.094   6.630  14.062 -0.1538 -0.5392 -0.3741
  200DOPC   H6X24864   0.995   6.664  14.024  0.6772  1.7501 -0.5876
  200DOPC   H6Y24865   1.082   6.581  14.161  1.5954 -0.1311  0.0605
  200DOPC   C3724866   1.176   6.757  14.096 -0.3807  0.7687 -0.2156
  200DOPC   H7X24867   1.271   6.728  14.147 -0.5295  0.7870  0.0736
  200DOPC   H7Y24868   1.202   6.809  14.002 -0.2982 -0.7137 -1.0386
  200DOPC   C3824869   1.112   6.863  14.195 -0.4136  0.0098  0.4918
  200DOPC   H8X24870   1.190   6.937  14.219  0.8529 -1.2269  0.3386
  200DOPC   H8Y24871   1.091   6.797  14.282 -1.2775  0.5829  0.7326
  200DOPC   C3924872   0.981   6.919  14.139 -0.1004  0.3278 -0.1098
  200DOPC   H9X24873   0.920   6.845  14.084  0.8527  0.0866 -0.8780
  200DOPC  C31024874   0.941   7.045  14.141  0.5980  0.2726 -0.4375
  200DOPC  H10X24875   0.843   7.072  14.100  0.3919 -0.8169 -0.6716
  200DOPC  C31124876   1.011   7.171  14.196  0.4413  0.4956 -0.1831
  200DOPC  H11X24877   1.108   7.138  14.239  0.5558  0.7222 -0.2676
  200DOPC  H11Y24878   0.952   7.218  14.277 -2.1519 -0.4169 -1.4579
  200DOPC  C31224879   1.021   7.274  14.092 -0.6381 -0.1851 -0.0562
  200DOPC  H12X24880   0.925   7.279  14.037  0.4213  0.9214 -1.9113
  200DOPC  H12Y24881   1.100   7.235  14.023 -0.8522  1.2828 -1.1828
  200DOPC  C31324882   1.060   7.406  14.156 -0.0730 -0.0037  0.0259
  200DOPC  H13X24883   0.982   7.436  14.230 -0.4246 -1.3521  0.2400
  200DOPC  H13Y24884   1.159   7.402  14.206 -0.1492  0.2513  0.2031
  200DOPC  C31424885   1.070   7.521  14.055  0.5386 -0.4354 -0.3960
  200DOPC  H14X24886   0.971   7.534  14.007  2.2007  1.4984 -3.7336
  200DOPC  H14Y24887   1.088   7.619  14.105  0.1518  0.1540 -1.3725
  200DOPC  C31524888   1.182   7.506  13.953  0.3237 -0.3561  0.5972
  200DOPC  H15X24889   1.184   7.402  13.911  0.2293  0.2206 -0.9156
  200DOPC  H15Y24890   1.280   7.519  14.004  0.5151  0.4333  0.0535
  200DOPC  C31624891   1.167   7.603  13.831 -0.9019 -0.1747  0.5840
  200DOPC  H16X24892   1.246   7.588  13.755 -2.3087  0.6815 -1.1268
  200DOPC  H16Y24893   1.074   7.584  13.773 -0.2687 -0.2448 -0.4342
  200DOPC  C31724894   1.182   7.746  13.876 -0.8195 -0.0555 -0.4911
  200DOPC  H17X24895   1.130   7.805  13.797  0.8844  1.4609 -0.5660
  200DOPC  H17Y24896   1.129   7.771  13.970  0.8549  2.3428 -0.0801
  200DOPC  C31824897   1.324   7.801  13.877 -0.3336  0.3913 -0.3967
  200DOPC  H18X24898   1.325   7.901  13.926 -2.1948  0.2298  0.0433
  200DOPC  H18Y24899   1.396   7.738  13.934 -1.8299  0.3160  1.4879
  200DOPC  H18Z24900   1.359   7.823  13.774 -0.2132  0.9461 -0.2418
  201SOD    SOD24901   0.130   2.433  18.844  0.2037  0.4467 -0.2955
  202SOD    SOD24902   0.462   0.226  10.569  0.2763 -0.1599  0.0644
  203SOD    SOD24903   0.986   1.248  18.453  0.3639  0.0105 -0.1680
  204SOD    SOD24904   2.296   4.430  11.627 -0.1458 -0.4140  0.1668
  205SOD    SOD24905   6.230   1.203  18.273 -0.1824 -0.3752  0.0794
  206SOD    SOD24906   7.242   3.581  12.865  0.5202 -0.1433  0.1082
  207SOD    SOD24907   5.767   5.406  11.728 -0.1240  0.0642 -0.1433
  208SOD    SOD24908   1.966   4.484  17.645  0.2846 -0.2918  0.5290
  209SOD    SOD24909   0.041   1.603  11.954  0.1436 -0.0897 -0.3145
  210SOD    SOD24910   6.202   3.533  19.052 -0.2789  0.5059  0.2667
  211SOD    SOD24911   2.945   0.338  17.333 -0.6466  0.0258  0.0482
  212SOD    SOD24912   4.192   7.282  19.163  0.1016  0.1038 -0.3590
  213SOD    SOD24913   1.792   2.060  11.164 -0.2710  0.0321 -0.2198
  214SOD    SOD24914   7.068   7.075  17.600 -0.5685 -0.4805  0.2203
  215SOD    SOD24915   2.718   6.010  18.657  0.1032 -0.7673  0.1054
  216SOD    SOD24916   1.503   3.547  18.243 -0.0842  0.5876  0.3204
  217SOD    SOD24917   1.998   5.446  11.471  0.1485  0.3267 -0.4085
  218SOD    SOD24918   6.080   1.791  18.334 -0.2030 -0.1017 -0.2659
  219SOD    SOD24919   2.317   3.733  17.008 -0.1960  0.2005  0.4526
  220SOD    SOD24920   5.201   5.894  13.023  0.0563 -0.2560  0.4226
  221SOD    SOD24921   1.944   6.245  11.727 -0.1332  0.2033 -0.2825
  222SOD    SOD24922   2.337   3.201  18.226 -0.1798  0.3456 -0.2312
  223SOD    SOD24923   3.558   1.512  12.051 -0.1946 -0.7802  0.1594
  224SOD    SOD24924   5.853   6.961  10.785  0.1483 -0.2839 -0.0339
  225SOD    SOD24925   6.498   5.113  11.889  0.1759 -0.1042  0.4017
  226SOD    SOD24926   5.361   4.760  17.597  0.3764 -0.2385 -0.4792
  227CLA    CLA24927   2.333   2.256  11.641 -0.2633 -0.3982 -0.0958
  228CLA    CLA24928   6.195   5.504  12.684 -0.2764 -0.0755 -0.0948
  229CLA    CLA24929   6.270   5.029  11.030 -0.4806 -0.2068  0.5311
  230CLA    CLA24930   0.192   3.326  18.561 -0.1652  0.2289  0.0632
  231CLA    CLA24931   6.449   0.267  18.791  0.3821 -0.2434  0.1601
  232CLA    CLA24932   1.776   7.109  17.757  0.1723 -0.1061  0.0940
  233CLA    CLA24933   3.062   0.788  18.099 -0.0209  0.2545 -0.4389
  234CLA    CLA24934   1.307   0.767  17.293  0.1126 -0.1122 -0.3069
  235CLA    CLA24935   1.603   6.596  11.551  0.1122 -0.3286 -0.2686
  236CLA    CLA24936   3.562   7.120  17.866  0.1624  0.0012 -0.0155
  237CLA    CLA24937   1.506   0.309  18.106 -0.2473 -0.1557 -0.2742
  238CLA    CLA24938   0.967   4.309  12.173 -0.2938  0.3042 -0.5691
  239CLA    CLA24939   7.182   2.029  11.983  0.3929  0.2306  0.1500
  240CLA    CLA24940   7.038   1.488  18.562  0.2500  0.1140 -0.2133
  241CLA    CLA24941   7.384   4.258  10.834 -0.1528 -0.1586 -0.2338
  242CLA    CLA24942   2.547   3.966  17.899  0.0980  0.4036  0.1357
  243CLA    CLA24943   0.831   0.591  11.785  0.2845  0.1163 -0.5695
  244CLA    CLA24944   7.592   4.631  11.721  0.3949 -0.5372  0.3393
  245CLA    CLA24945   5.476   2.715  11.453 -0.3585  0.4232  0.1271
  246CLA    CLA24946   6.025   2.284  18.235  0.0815 -0.0318  0.1112
  247CLA    CLA24947   7.582   0.257  11.060 -0.0614  0.0169 -0.1035
  248CLA    CLA24948   0.016   5.271  12.381  0.0988 -0.1131 -0.3189
  249CLA    CLA24949   5.774   3.640  12.043  0.1886 -0.4691 -0.2533
  250CLA    CLA24950   3.308   2.449  18.355  0.0687  0.0407  0.2482
  251CLA    CLA24951   5.645   4.149  19.168 -0.1904  0.0825 -0.1079
  252CLA    CLA24952   2.124   0.393  11.791 -0.3431  0.1631  0.1737
  253TIP3   OH224953   7.310   6.393  19.458  0.2673 -0.2675 -0.6862
  253TIP3    H124954   7.352   6.310  19.479 -0.0595  0.4169  3.3353
  253TIP3    H224955   7.358   6.458  19.509 -1.0679  1.6825 -1.7829
  254TIP3   OH224956   4.106   5.678  19.213 -0.8409 -0.1946  0.1038
  254TIP3    H124957   4.044   5.628  19.266  0.4203 -1.8812  0.0758
  254TIP3    H224958   4.079   5.661  19.123 -0.7881 -0.3081  0.1095
  255TIP3   OH224959   5.182   5.469  18.869 -0.0621 -0.2481  0.0350
  255TIP3    H124960   5.174   5.547  18.814 -0.7549 -0.2476  0.1350
  255TIP3    H224961   5.204   5.503  18.956 -0.7444 -0.1323  0.1683
  256TIP3   OH224962   2.889   6.298  17.747 -0.2982 -0.2985 -0.7358
  256TIP3    H124963   2.849   6.384  17.740 -0.5873 -0.4279 -0.6981
  256TIP3    H224964   2.845   6.258  17.822  0.1916 -0.2863 -0.4365
  257TIP3   OH224965   4.154   3.396  17.397 -0.3459 -0.6311  0.1855
  257TIP3    H124966   4.158   3.348  17.315 -1.2473  0.0599 -0.2811
  257TIP3    H224967   4.224   3.460  17.392 -0.4950 -0.4897 -0.1185
  258TIP3   OH224968   3.692   5.526  18.889  0.5156 -0.4380  0.5402
  258TIP3    H124969   3.661   5.587  18.823  1.5957 -1.6459 -1.1650
  258TIP3    H224970   3.685   5.440  18.847  1.5009 -1.2169  1.8935
  259TIP3   OH224971   3.014   0.092  17.928  0.0591  0.3212 -0.2298
  259TIP3    H124972   2.923   0.099  17.956  0.1518 -1.7856  0.7779
  259TIP3    H224973   3.043   0.183  17.918 -2.1253  1.0372 -0.5797
  260TIP3   OH224974   7.336   6.741  17.510 -0.1334  0.1145 -0.1715
  260TIP3    H124975   7.322   6.807  17.443 -1.2575  0.5650  0.4702
  260TIP3    H224976   7.357   6.661  17.462 -1.5285  0.2750 -1.1062
  261TIP3   OH224977   2.922   0.128  18.215 -0.3923  0.2586  0.3828
  261TIP3    H124978   2.959   0.072  18.283  0.2747  2.3888  1.8928
  261TIP3    H224979   2.879   0.199  18.263 -2.5256  0.2988 -1.4080
  262TIP3   OH224980   4.783   1.020  18.252 -0.2537 -0.4352 -0.0348
  262TIP3    H124981   4.763   0.948  18.312  0.2138  0.9716  1.9137
  262TIP3    H224982   4.706   1.077  18.257 -0.9162 -1.0605 -2.0865
  263TIP3   OH224983   2.813   7.128  18.691  0.3909 -0.2978 -0.1848
  263TIP3    H124984   2.809   7.078  18.772  3.0269 -1.5441 -0.6937
  263TIP3    H224985   2.772   7.212  18.711 -3.1184 -2.1201  1.0715
  264TIP3   OH224986   6.083   2.580  19.088  0.7885  0.5159 -0.2811
  264TIP3    H124987   6.009   2.619  19.042 -0.7422 -0.1500  1.4614
  264TIP3    H224988   6.117   2.514  19.028  1.2066  2.0832 -1.8537
  265TIP3   OH224989   6.044   1.155  17.508  0.1969 -0.2235  0.1831
  265TIP3    H124990   6.089   1.139  17.591  0.2917  0.3418  0.2457
  265TIP3    H224991   5.975   1.089  17.504  0.3769 -0.4353  0.5756
  266TIP3   OH224992   5.607   7.066  18.634 -0.0605 -0.0544 -0.0611
  266TIP3    H124993   5.687   7.114  18.657 -0.0586  1.3175 -2.5722
  266TIP3    H224994   5.630   7.020  18.553 -2.2527  1.9264 -1.9747
  267TIP3   OH224995   6.031   0.170  18.083 -0.1443 -0.0408 -0.0665
  267TIP3    H124996   6.106   0.159  18.025  0.0812 -0.7967  0.3565
  267TIP3    H224997   6.059   0.234  18.148  0.0843 -0.2356  0.0242
  268TIP3   OH224998   5.529   4.926  19.442 -0.5032 -0.7673  0.4358
  268TIP3    H124999   5.495   4.979  19.369 -0.1530 -0.5680  0.4139
  268TIP3    H225000   5.462   4.859  19.457 -1.6787  0.5519  1.4185
  269TIP3   OH225001   3.834   7.262  18.701  0.3177  0.3539 -0.1664
  269TIP3    H125002   3.917   7.307  18.716  2.2229 -1.7635 -3.1228
  269TIP3    H225003   3.778   7.327  18.658  0.8814  1.4462  0.7143
  270TIP3   OH225004   7.427   4.399  18.098 -0.4863  0.3275 -0.2492
  270TIP3    H125005   7.516   4.435  18.093 -0.4321  0.1644 -0.4705
  270TIP3    H225006   7.440   4.304  18.095 -0.6442  0.2959  0.0946
  271TIP3   OH225007   4.915   7.678  17.948  0.2721  0.3906  0.0964
  271TIP3    H125008   4.932   7.770  17.926 -0.9284  0.6176  0.0425
  271TIP3    H225009   4.933   7.630  17.867 -1.5161  0.9040 -0.6720
  272TIP3   OH225010   1.527   4.329  18.191  0.8785  0.0400 -0.3287
  272TIP3    H125011   1.587   4.278  18.245  1.7693  2.0106  0.5954
  272TIP3    H225012   1.445   4.331  18.241  1.0050 -0.0302 -0.1185
  273TIP3   OH225013   2.230   6.506  17.769  0.4381 -0.0557 -0.3538
  273TIP3    H125014   2.294   6.575  17.748  0.6466 -0.3258 -0.6299
  273TIP3    H225015   2.282   6.425  17.766  0.3810 -0.1419  0.8359
  274TIP3   OH225016   2.379   5.970  18.351  0.0227 -0.0599  0.3801
  274TIP3    H125017   2.337   5.905  18.295  0.7876  0.5587 -0.9512
  274TIP3    H225018   2.471   5.947  18.350  0.5394  1.7969 -1.2607
  275TIP3   OH225019   3.574   6.124  16.945 -0.3465  0.7580 -0.7154
  275TIP3    H125020   3.512   6.129  17.017  0.0332  2.3681 -0.4735
  275TIP3    H225021   3.639   6.192  16.963  0.4544  0.3632 -1.9285
  276TIP3   OH225022   6.619   3.719  17.840 -0.2598 -1.0994  0.2941
  276TIP3    H125023   6.664   3.754  17.917 -1.2747 -0.3077  0.5519
  276TIP3    H225024   6.634   3.624  17.845 -0.6313 -1.1148  1.6972
  277TIP3   OH225025   7.050   2.897  18.528  0.2852 -0.2208  0.0964
  277TIP3    H125026   7.088   2.922  18.444  0.5694 -0.5166  0.1337
  277TIP3    H225027   7.047   2.801  18.525  0.7210 -0.2554  0.6055
  278TIP3   OH225028   3.495   4.047  18.034 -0.3230  0.1476  0.5231
  278TIP3    H125029   3.482   4.014  17.945 -1.6843 -1.0459  1.1113
  278TIP3    H225030   3.577   4.006  18.063 -1.2089 -1.6346  0.6964
  279TIP3   OH225031   5.928   7.380  17.742 -0.1086  0.3542 -0.1975
  279TIP3    H125032   5.982   7.446  17.786 -1.3023  0.0282  1.9080
  279TIP3    H225033   5.859   7.359  17.805 -2.2209  0.1167 -2.4335
  280TIP3   OH225034   1.245   2.620  18.290  0.4097  0.4004  0.1713
  280TIP3    H125035   1.324   2.631  18.238  2.1154 -3.2274  1.6351
  280TIP3    H225036   1.181   2.678  18.249  3.5400  3.0299 -1.5275
  281TIP3   OH225037   7.007   4.624  17.443  0.6606  0.0101  0.4115
  281TIP3    H125038   7.089   4.587  17.475  0.4386 -0.2338  0.7051
  281TIP3    H225039   6.950   4.628  17.519 -0.0349 -1.0388 -0.0204
  282TIP3   OH225040   5.754   4.057  17.550  0.5891 -0.1803  0.2583
  282TIP3    H125041   5.844   4.039  17.580  0.1578  0.0622  1.7732
  282TIP3    H225042   5.751   4.152  17.540  0.5131 -0.1939  0.1545
  283TIP3   OH225043   4.876   3.366  18.352 -0.1371  0.7697  0.2524
  283TIP3    H125044   4.957   3.321  18.378  0.5790  1.9006  0.0650
  283TIP3    H225045   4.818   3.355  18.427 -0.6147 -1.8226 -0.3848
  284TIP3   OH225046   7.327   4.711  11.204 -0.0225 -0.0892 -0.0100
  284TIP3    H125047   7.295   4.675  11.287  0.4319 -0.9649 -0.2051
  284TIP3    H225048   7.387   4.644  11.170  2.2998  1.6083  0.5080
  285TIP3   OH225049   2.828   6.071  13.451  0.1804  0.2976 -0.5545
  285TIP3    H125050   2.809   6.006  13.384 -2.2802 -1.3697  1.5373
  285TIP3    H225051   2.760   6.137  13.442 -0.0714  0.1492  0.1414
  286TIP3   OH225052   3.071   3.731  10.885 -0.4255 -0.2828 -0.3145
  286TIP3    H125053   3.095   3.697  10.972  1.9498 -0.8064 -1.0868
  286TIP3    H225054   3.100   3.822  10.887 -0.2282 -0.3395 -0.6058
  287TIP3   OH225055   0.163   0.983  10.854 -0.2228 -0.2454 -0.4156
  287TIP3    H125056   0.158   0.887  10.848 -1.1202 -0.1862 -0.6186
  287TIP3    H225057   0.074   1.013  10.840  0.4286  0.7553 -2.8877
  288TIP3   OH225058   4.928   2.890  11.990  0.3520 -0.1782  0.0866
  288TIP3    H125059   4.992   2.959  11.971 -0.2497  1.1430  2.3590
  288TIP3    H225060   4.878   2.881  11.909  1.5649  0.8253 -0.8274
  289TIP3   OH225061   0.050   3.215  11.991 -0.0520 -0.0638  0.2885
  289TIP3    H125062   0.040   3.286  11.927  2.1057 -1.6415 -1.9903
  289TIP3    H225063  -0.037   3.176  11.997 -1.1377  2.2965  1.1279
  290TIP3   OH225064   6.370   3.093  11.269  0.0802 -0.3592 -0.1772
  290TIP3    H125065   6.401   3.083  11.359 -0.2404 -0.5869 -0.0931
  290TIP3    H225066   6.380   3.187  11.251 -0.1531 -0.2610  0.2025
  291TIP3   OH225067   5.906   6.257  12.756  0.4476 -0.5857 -0.4988
  291TIP3    H125068   5.861   6.311  12.821  0.7582  1.2678 -1.7607
  291TIP3    H225069   5.972   6.209  12.806  1.1090  1.2772  0.5043
  292TIP3   OH225070   4.597   4.970  12.488 -0.0037  0.1024 -0.0003
  292TIP3    H125071   4.597   4.878  12.464 -0.6576  0.0752  0.0850
  292TIP3    H225072   4.586   4.970  12.583 -0.6523  0.2750 -0.0684
  293TIP3   OH225073   6.488   6.720  10.361 -0.4446 -0.3155 -0.5016
  293TIP3    H125074   6.455   6.705  10.272 -1.1151  1.1509 -0.5409
  293TIP3    H225075   6.458   6.644  10.410 -0.5526 -0.8805 -1.4069
  294TIP3   OH225076   6.454   2.961  10.620  0.0636 -0.0822 -0.0589
  294TIP3    H125077   6.409   2.949  10.704 -1.5288 -0.8888 -0.9800
  294TIP3    H225078   6.446   3.055  10.602  0.5314  0.1215  0.7372
  295TIP3   OH225079   3.620   2.257  10.716  0.3420  0.5488  0.5498
  295TIP3    H125080   3.567   2.207  10.778 -0.8354 -0.2084 -0.9831
  295TIP3    H225081   3.559   2.322  10.679 -0.2509 -1.6089 -2.6969
  296TIP3   OH225082   4.420   6.669  11.576 -0.0543 -0.3621  0.0319
  296TIP3    H125083   4.344   6.640  11.526  0.9710 -0.4533 -1.5336
  296TIP3    H225084   4.383   6.725  11.645 -1.4540  0.4462 -1.3148
  297TIP3   OH225085   0.398   6.122  11.764 -0.1818  0.0123 -0.0460
  297TIP3    H125086   0.423   6.059  11.696  2.4030  1.5711 -0.6852
  297TIP3    H225087   0.481   6.150  11.802 -1.4927 -1.2126  4.3154
  298TIP3   OH225088   0.395   3.948  10.847  0.0801  0.0901  0.1204
  298TIP3    H125089   0.381   4.041  10.862 -0.2930  0.2289 -1.0258
  298TIP3    H225090   0.324   3.922  10.788  0.6219 -0.7478 -0.1804
  299TIP3   OH225091   2.761   0.903  10.718  0.4525 -0.2829  0.5934
  299TIP3    H125092   2.848   0.874  10.747 -0.7144 -3.5467  1.2764
  299TIP3    H225093   2.703   0.878  10.790 -1.0595  2.4499  0.4532
  300TIP3   OH225094   4.036   2.712  11.639  0.4513  0.4385  0.1697
  300TIP3    H125095   3.982   2.679  11.567  0.6689 -0.2208  0.3073
  300TIP3    H225096   4.120   2.668  11.628  0.0826 -0.6834  1.6007
  301TIP3   OH225097   5.989   3.440  11.602  0.0161 -0.1427  0.5909
  301TIP3    H125098   5.932   3.500  11.650  0.1566  0.0515  0.5155
  301TIP3    H225099   6.029   3.385  11.669  1.6900  1.3594  0.9105
  302TIP3   OH225100   1.604   0.340  10.937  0.4292  0.1187 -0.0499
  302TIP3    H125101   1.582   0.410  10.999  0.4645  1.2774 -1.3160
  302TIP3    H225102   1.699   0.343  10.930  0.4773 -0.4447  0.3273
  303TIP3   OH225103   7.558   3.032  12.836  0.6004  0.1139  0.0778
  303TIP3    H125104   7.499   3.062  12.905  0.0243 -1.3192  0.2489
  303TIP3    H225105   7.640   3.078  12.853 -0.3246  1.8663  0.0500
  304TIP3   OH225106   5.869   0.882  12.942 -0.1907 -0.1364  0.2829
  304TIP3    H125107   5.901   0.868  12.853 -0.9659 -0.1163 -0.0059
  304TIP3    H225108   5.928   0.829  12.997 -0.0528 -0.5986 -0.2952
  305TIP3   OH225109   2.885   1.833  11.801  0.2032 -0.4348  0.3491
  305TIP3    H125110   2.841   1.748  11.796  0.9079 -0.7514 -1.3628
  305TIP3    H225111   2.846   1.883  11.729 -0.2604  0.7488  1.3944
  306TIP3   OH225112   6.972   2.471  11.854  0.0700  0.1214  0.1281
  306TIP3    H125113   7.040   2.461  11.788  1.5482 -0.6341  1.7121
  306TIP3    H225114   6.995   2.409  11.923 -0.2778  2.2208  2.2784
  307TIP3   OH225115   5.612   3.219  11.488 -0.0759 -0.6316  0.4141
  307TIP3    H125116   5.606   3.125  11.505  0.9121 -0.6702  0.6372
  307TIP3    H225117   5.521   3.250  11.490 -0.2900 -1.2152  2.5218
  308TIP3   OH225118   0.139   4.463  12.551 -0.2050 -0.8295 -0.2075
  308TIP3    H125119   0.081   4.406  12.501  0.0854  0.1535 -1.7472
  308TIP3    H225120   0.127   4.549  12.512 -0.2035  0.0666  1.6828
  309TIP3   OH225121   5.085   7.034  11.165 -0.2413 -0.1670 -0.1971
  309TIP3    H125122   5.127   7.119  11.175  1.8314 -0.8780 -2.0577
  309TIP3    H225123   5.027   7.044  11.090 -2.9716  0.5803  1.8766
  310TIP3   OH225124   1.812   2.831  10.841 -0.0206  0.4009 -0.4322
  310TIP3    H125125   1.791   2.743  10.870 -1.7334  0.7193 -0.5701
  310TIP3    H225126   1.899   2.849  10.877  0.5945 -1.5210 -0.8631
  311TIP3   OH225127   4.915   5.093  13.005  0.1011  0.3752 -0.4089
  311TIP3    H125128   4.943   5.125  13.091  1.0053  0.8544 -0.8664
  311TIP3    H225129   4.844   5.032  13.025  2.6508 -2.4269  1.0005
  312TIP3   OH225130   6.318   5.520  12.992  0.4049 -0.0376 -0.0061
  312TIP3    H125131   6.367   5.601  12.987 -0.9311  0.7460 -1.0799
  312TIP3    H225132   6.311   5.489  12.902 -0.4503 -0.4967  0.1945
  313TIP3   OH225133   7.457   5.461  12.402  0.4203 -0.0880 -0.2473
  313TIP3    H125134   7.535   5.406  12.388  0.5148  0.1833 -0.8190
  313TIP3    H225135   7.387   5.399  12.421  0.9086 -0.3055  0.9364
  314TIP3   OH225136   3.892   0.375  12.195  0.1850 -0.2903 -0.2777
  314TIP3    H125137   3.967   0.327  12.231  0.6112  0.6254  0.0917
  314TIP3    H225138   3.833   0.307  12.163  0.9706 -1.0446 -0.1635
  315TIP3   OH225139   2.440   3.486  12.796  0.2874  0.0051 -0.2860
  315TIP3    H125140   2.493   3.548  12.746  0.5468 -0.2500 -0.3309
  315TIP3    H225141   2.438   3.523  12.884  1.0732 -0.3051 -0.1278
  316TIP3   OH225142   5.642   2.306  11.944  0.1771  0.2907 -0.5181
  316TIP3    H125143   5.653   2.275  11.854 -0.7232 -0.0506 -0.5160
  316TIP3    H225144   5.641   2.401  11.938 -0.7886  0.2534 -0.9798
  317TIP3   OH225145   4.966   1.901  12.034  0.1691 -0.1391 -0.5075
  317TIP3    H125146   4.999   1.971  11.977 -0.7898 -0.3941 -1.4049
  317TIP3    H225147   4.871   1.907  12.028  0.0220  0.0283  1.3505
  318TIP3   OH225148   3.395   3.641  12.647 -0.3263  0.4133  0.7959
  318TIP3    H125149   3.451   3.719  12.652  0.8691 -0.3096 -0.4693
  318TIP3    H225150   3.329   3.654  12.716  0.5895  1.9373  1.4423
  319TIP3   OH225151   5.363   4.299  12.607 -1.0588  0.0505  0.3619
  319TIP3    H125152   5.439   4.353  12.587 -1.0146  0.0105  0.4219
  319TIP3    H225153   5.336   4.327  12.694 -2.0385  1.1436 -0.2633
  320TIP3   OH225154   7.396   5.840  10.397  0.0067 -0.1335  0.4434
  320TIP3    H125155   7.435   5.773  10.340  1.8372  0.7857  0.5427
  320TIP3    H225156   7.430   5.820  10.484 -0.7542 -0.0201  0.7755
  321TIP3   OH225157   1.977   4.625  11.018  0.1449  0.3479 -0.3591
  321TIP3    H125158   1.917   4.550  11.025  1.3797 -0.6665 -0.2737
  321TIP3    H225159   1.921   4.698  10.993 -1.6627  0.1404  2.5078
  322TIP3   OH225160   2.608   7.379  12.250 -0.0768 -0.0025 -0.2483
  322TIP3    H125161   2.630   7.416  12.164 -0.2722  0.2870 -0.1752
  322TIP3    H225162   2.662   7.301  12.257 -0.3620 -0.2572 -0.8112
  323TIP3   OH225163   6.448   0.605  17.720 -0.0601 -0.4070  0.2418
  323TIP3    H125164   6.504   0.667  17.766 -0.7093  0.6594 -0.3541
  323TIP3    H225165   6.477   0.519  17.750  2.5277  0.0258 -0.7052
  324TIP3   OH225166   6.183   2.009  17.255  0.2720 -0.7659  0.2307
  324TIP3    H125167   6.198   2.103  17.242  0.1383 -0.8260 -0.3725
  324TIP3    H225168   6.195   1.970  17.168  2.0573 -1.5568  0.7899
  325TIP3   OH225169   5.350   4.274  19.364  0.1228 -0.2234 -0.4599
  325TIP3    H125170   5.405   4.315  19.298  0.4863 -0.2957 -0.2066
  325TIP3    H225171   5.272   4.244  19.316 -0.3116  1.0606 -0.5820
  326TIP3   OH225172   3.998   5.863  17.496 -0.9037  0.1028 -0.4812
  326TIP3    H125173   4.087   5.885  17.467 -1.3963  0.0849 -2.0788
  326TIP3    H225174   3.963   5.806  17.427 -1.9426 -0.4088  0.4344
  327TIP3   OH225175   7.628   0.072  18.356  0.2716  0.0229 -1.2565
  327TIP3    H125176   7.679   0.050  18.433 -2.6723 -1.1813  0.5115
  327TIP3    H225177   7.602   0.163  18.369 -2.7515 -0.9868  0.9453
  328TIP3   OH225178   4.552   3.952  17.749  0.4116  0.3889  0.2662
  328TIP3    H125179   4.522   3.862  17.764  0.3571  0.1008 -1.3632
  328TIP3    H225180   4.495   4.006  17.804  0.5932 -0.5737  1.4362
  329TIP3   OH225181   5.136   6.040  19.630 -0.3008 -0.2884  0.0623
  329TIP3    H125182   5.215   6.027  19.578 -0.0542  0.7683  0.1486
  329TIP3    H225183   5.097   6.121  19.596 -0.4820  0.0692  1.0604
  330TIP3   OH225184   0.840   6.939  18.671  0.1567  0.6839  0.0955
  330TIP3    H125185   0.932   6.917  18.689  0.4165  1.8920  0.2877
  330TIP3    H225186   0.843   7.028  18.637 -1.2280  2.1841  3.5033
  331TIP3   OH225187   0.862   4.331  19.084  0.2609  0.0367  0.6709
  331TIP3    H125188   0.955   4.337  19.102 -0.0813  1.9648  2.0965
  331TIP3    H225189   0.826   4.282  19.158 -0.1814  1.5586  1.4867
  332TIP3   OH225190   6.390   1.391  17.647 -0.0829 -0.1478  0.1995
  332TIP3    H125191   6.444   1.468  17.662  0.6833 -1.0042  2.1963
  332TIP3    H225192   6.323   1.420  17.585 -0.1782  2.2899  1.3301
  333TIP3   OH225193   3.058   1.466  18.759 -0.1196 -0.1878  0.1461
  333TIP3    H125194   3.153   1.462  18.754 -0.1374 -1.0679  0.3252
  333TIP3    H225195   3.039   1.557  18.779  0.7984 -0.3474  2.0455
  334TIP3   OH225196   2.051   5.149  18.419  0.0125 -0.3561 -0.1879
  334TIP3    H125197   2.117   5.216  18.434 -0.0274 -0.3571 -0.0056
  334TIP3    H225198   2.054   5.132  18.324 -0.1190  0.0520 -0.2661
  335TIP3   OH225199   1.488   2.311  17.062 -0.0522  0.3646  0.0558
  335TIP3    H125200   1.411   2.279  17.015 -0.9038  1.6754  0.4978
  335TIP3    H225201   1.555   2.321  16.994 -0.4253 -0.3117 -0.4207
  336TIP3   OH225202   2.711   0.725  16.683  0.1636 -0.1699  0.5393
  336TIP3    H125203   2.621   0.693  16.675  0.2632 -0.6182  1.1790
  336TIP3    H225204   2.702   0.815  16.714 -0.0549 -0.4234  1.2293
  337TIP3   OH225205   5.979   6.575  18.813 -0.8165  0.1050 -0.5040
  337TIP3    H125206   5.913   6.634  18.849 -1.0961  0.8278 -2.1353
  337TIP3    H225207   6.058   6.629  18.806  0.3264 -0.9857  2.3057
  338TIP3   OH225208   2.896   4.725  18.616  0.2380  0.0410  0.3354
  338TIP3    H125209   2.835   4.795  18.595 -0.8574 -0.4502  1.6937
  338TIP3    H225210   2.875   4.655  18.553  0.6103  0.5124 -0.3254
  339TIP3   OH225211   6.746   7.621  16.736 -0.6892 -0.4997  0.1401
  339TIP3    H125212   6.735   7.546  16.795  0.9834  0.3754  1.6270
  339TIP3    H225213   6.671   7.678  16.756  0.4489  0.3452  2.3634
  340TIP3   OH225214   5.072   5.071  18.964  0.0171 -0.2311 -0.3523
  340TIP3    H125215   5.090   4.980  18.944 -1.9659 -0.6018 -0.7152
  340TIP3    H225216   5.022   5.068  19.046  0.5731  0.5953  0.0290
  341TIP3   OH225217   5.071   4.282  19.625 -0.0534  0.2115  0.0076
  341TIP3    H125218   5.134   4.225  19.581  1.0960  1.8299 -0.5573
  341TIP3    H225219   5.116   4.311  19.705 -0.1623  1.1642 -0.2572
  342TIP3   OH225220   4.222   2.262  16.622 -0.4219 -0.5833 -0.0272
  342TIP3    H125221   4.159   2.256  16.550 -0.4792  0.8790 -0.1294
  342TIP3    H225222   4.170   2.288  16.697 -0.2469 -1.4232  0.4054
  343TIP3   OH225223   2.706   3.528  17.044 -0.3609  0.1800 -0.0465
  343TIP3    H125224   2.704   3.593  16.974 -0.6272  0.7173  0.4574
  343TIP3    H225225   2.781   3.553  17.098 -1.3220  0.9416  0.9702
  344TIP3   OH225226   2.803   2.629  18.853  0.1570 -0.2146  0.1964
  344TIP3    H125227   2.839   2.704  18.899 -0.9629  0.8171 -0.5480
  344TIP3    H225228   2.736   2.666  18.796  0.3464 -1.6480 -1.0140
  345TIP3   OH225229   2.157   4.097  17.695 -0.0253 -0.3275  0.2635
  345TIP3    H125230   2.167   4.002  17.695  0.1247 -0.3177  1.1888
  345TIP3    H225231   2.185   4.124  17.607  2.4278 -0.8807  0.8082
  346TIP3   OH225232   2.018   5.392  18.168 -0.0313 -0.4387 -0.2232
  346TIP3    H125233   2.000   5.486  18.166  0.2236 -0.3753  0.2154
  346TIP3    H225234   2.057   5.378  18.254 -1.2488 -1.1640  0.2432
  347TIP3   OH225235   0.453   4.124  18.370  0.6300 -0.2167  0.0558
  347TIP3    H125236   0.398   4.072  18.311  0.7077 -1.2366  0.8640
  347TIP3    H225237   0.404   4.129  18.452  0.6116  1.0346 -0.0024
  348TIP3   OH225238   7.442   0.410  19.341 -0.0308  0.0520  0.0671
  348TIP3    H125239   7.446   0.422  19.246  0.5070 -0.2330  0.0480
  348TIP3    H225240   7.472   0.320  19.355  1.0651  0.4742  0.5868
  349TIP3   OH225241   6.160   7.506  18.658 -0.7669 -0.0028  0.5933
  349TIP3    H125242   6.230   7.568  18.676 -0.0416 -0.4045 -0.6428
  349TIP3    H225243   6.106   7.549  18.592  0.4701 -1.0949 -1.2575
  350TIP3   OH225244   6.091   0.029  19.215 -0.6959 -0.0701  0.2014
  350TIP3    H125245   6.175  -0.013  19.235 -0.7152  0.5384  1.7075
  350TIP3    H225246   6.114   0.115  19.181 -0.6776 -0.9241 -2.0850
  351TIP3   OH225247   7.018   7.084  19.678 -0.0259 -0.3078  0.2815
  351TIP3    H125248   6.951   7.136  19.633 -1.1592  0.6044  2.7986
  351TIP3    H225249   6.981   6.996  19.682 -0.7135  0.0000  0.9080
  352TIP3   OH225250   3.723   4.323  18.311  0.4150  0.0484 -0.4379
  352TIP3    H125251   3.669   4.395  18.343  0.6718 -0.1615  0.5319
  352TIP3    H225252   3.768   4.358  18.234  0.8387  1.0709  0.2481
  353TIP3   OH225253   5.438   2.980  17.664  0.5292 -0.5528  0.3410
  353TIP3    H125254   5.485   3.046  17.715  0.7696 -0.0033 -0.5602
  353TIP3    H225255   5.411   3.027  17.585 -0.7415 -1.1074  0.4345
  354TIP3   OH225256   7.054   5.280  17.131  0.0722  0.5013 -0.3459
  354TIP3    H125257   7.070   5.310  17.221  0.2734  0.5832 -0.4103
  354TIP3    H225258   7.085   5.189  17.130 -0.2560  0.3846 -0.2359
  355TIP3   OH225259   1.835   1.477  18.876  0.0755  0.4432 -0.4509
  355TIP3    H125260   1.801   1.562  18.903  0.0575  0.1590  0.4449
  355TIP3    H225261   1.792   1.414  18.934  1.6281  0.0114  0.2873
  356TIP3   OH225262   6.368   0.038  19.273  0.1221 -0.0624 -0.1472
  356TIP3    H125263   6.439   0.065  19.331  0.0609  0.9410 -0.5264
  356TIP3    H225264   6.337   0.119  19.232 -1.3778 -0.4310  0.1630
  357TIP3   OH225265   7.022   2.683  18.188  0.0031  0.2213 -0.7282
  357TIP3    H125266   6.927   2.700  18.184 -0.6813 -2.5190  1.1547
  357TIP3    H225267   7.060   2.766  18.215 -1.9849  1.1471 -0.5835
  358TIP3   OH225268   3.862   6.290  19.034  0.5286  0.5088 -0.0101
  358TIP3    H125269   3.777   6.326  19.058 -0.3632 -1.1193 -0.5988
  358TIP3    H225270   3.871   6.211  19.086  0.2909 -0.9645 -2.0765
  359TIP3   OH225271   6.288   5.613  18.514  0.0560 -0.0234  0.8969
  359TIP3    H125272   6.310   5.613  18.607  0.9629  1.6332  0.7299
  359TIP3    H225273   6.372   5.618  18.469 -0.3711 -0.7197 -0.0334
  360TIP3   OH225274   4.207   3.388  18.637 -0.0271 -0.5162  0.5083
  360TIP3    H125275   4.227   3.469  18.591  1.1410 -0.8665  0.3726
  360TIP3    H225276   4.186   3.325  18.567  0.0485 -0.5971  0.5588
  361TIP3   OH225277   0.001   6.064  18.594  0.3516 -0.2040  0.3553
  361TIP3    H125278   0.061   6.076  18.668 -0.4083 -0.6642  1.0608
  361TIP3    H225279  -0.030   6.153  18.575  1.7316  0.1391 -0.4544
  362TIP3   OH225280   1.845   5.092  19.021  0.2919  0.1598 -0.0486
  362TIP3    H125281   1.856   5.143  19.102 -2.1379  0.2050  0.3222
  362TIP3    H225282   1.814   5.156  18.957 -1.5171 -0.5367  0.0705
  363TIP3   OH225283   5.344   3.116  17.452 -0.7501  0.3025  0.2003
  363TIP3    H125284   5.250   3.104  17.446 -1.0109  2.0231  0.3895
  363TIP3    H225285   5.359   3.207  17.426  0.8467  0.1135  0.3090
  364TIP3   OH225286   6.162   2.743  17.120  0.1892 -0.0595  0.1644
  364TIP3    H125287   6.212   2.800  17.062  0.5366 -1.2636 -0.7591
  364TIP3    H225288   6.134   2.670  17.065  0.5561 -1.2573  1.4946
  365TIP3   OH225289   3.201   0.592  18.694 -0.2174  0.0580 -0.8191
  365TIP3    H125290   3.209   0.501  18.722 -0.5253 -0.1671 -1.4300
  365TIP3    H225291   3.118   0.595  18.646 -1.6672  1.2997  1.5947
  366TIP3   OH225292   6.001   6.317  18.042 -0.1107  0.0098  0.2666
  366TIP3    H125293   5.923   6.306  18.097  0.8457  0.4849  1.8003
  366TIP3    H225294   6.050   6.388  18.085  0.7039  0.3764 -1.2128
  367TIP3   OH225295   4.923   2.432  17.696  0.6855  0.6226  0.1402
  367TIP3    H125296   4.872   2.430  17.615 -0.7798 -0.1943  1.0546
  367TIP3    H225297   5.013   2.443  17.666  0.3484 -1.0243 -1.6903
  368TIP3   OH225298   1.019   5.872  18.282  0.3936  0.6800  0.5278
  368TIP3    H125299   0.995   5.960  18.311  1.3540  0.5725  1.7090
  368TIP3    H225300   0.956   5.852  18.213 -2.6281  0.6000  3.0977
  369TIP3   OH225301   0.375   3.213  19.266 -0.3526 -0.2126 -0.5520
  369TIP3    H125302   0.280   3.214  19.253 -0.7756 -0.0620  2.0177
  369TIP3    H225303   0.407   3.146  19.206 -2.2657 -1.2047 -0.5298
  370TIP3   OH225304   0.184   3.410  18.188  0.2229 -0.0108  0.2999
  370TIP3    H125305   0.173   3.417  18.282 -0.0418 -0.1379  0.2782
  370TIP3    H225306   0.278   3.409  18.175  0.2650  0.7791  0.5051
  371TIP3   OH225307   2.956   1.123  18.324 -0.5037  0.0699  0.3999
  371TIP3    H125308   2.962   1.180  18.400  0.7698 -0.2389  0.5678
  371TIP3    H225309   2.902   1.050  18.353  1.3935 -0.9374  1.6613
  372TIP3   OH225310   3.100   4.274  18.888 -0.4979 -0.1405  0.0668
  372TIP3    H125311   3.085   4.366  18.867 -1.7420 -0.1914  0.6439
  372TIP3    H225312   3.191   4.271  18.916  0.2929  0.4670 -2.2145
  373TIP3   OH225313   2.301   4.314  19.331  0.8974  0.2605  1.0508
  373TIP3    H125314   2.374   4.295  19.271  0.6462 -0.3904  0.9356
  373TIP3    H225315   2.226   4.326  19.273  1.1529  2.3178  1.0725
  374TIP3   OH225316   1.747   1.054  18.733  0.1205 -0.7156 -0.0172
  374TIP3    H125317   1.690   1.079  18.660  0.4414  0.9216  0.2548
  374TIP3    H225318   1.821   1.114  18.728  1.6338 -2.4675 -0.0699
  375TIP3   OH225319   6.255   7.514  17.148 -0.4669  0.0859 -0.2784
  375TIP3    H125320   6.198   7.519  17.072 -2.3987  2.8342  1.1595
  375TIP3    H225321   6.195   7.502  17.222  1.1173 -0.0935  1.0420
  376TIP3   OH225322   4.131   0.464  19.177  0.3165 -0.1274 -0.0928
  376TIP3    H125323   4.150   0.557  19.165  0.2498 -0.2589 -1.3518
  376TIP3    H225324   4.099   0.435  19.091 -1.5601 -0.8617  0.8039
  377TIP3   OH225325   2.019   6.669  17.639  0.3619 -0.3014 -0.9811
  377TIP3    H125326   2.071   6.635  17.712  0.7714 -1.4294 -1.7701
  377TIP3    H225327   2.007   6.762  17.659  1.4408 -0.3422 -0.0516
  378TIP3   OH225328   7.167   2.069  17.326  0.2342  0.4547  0.5145
  378TIP3    H125329   7.155   2.163  17.339  1.9527  0.7331  0.2408
  378TIP3    H225330   7.230   2.044  17.394  1.4887 -0.0516 -0.7982
  379TIP3   OH225331   2.115   4.518  18.919 -0.1311 -0.4303  0.3376
  379TIP3    H125332   2.031   4.488  18.884 -0.2530 -0.3570  0.5655
  379TIP3    H225333   2.129   4.603  18.878  0.3017 -0.8639 -0.4507
  380TIP3   OH225334   7.297   5.833  17.549 -0.3276  0.2261  0.1308
  380TIP3    H125335   7.234   5.869  17.612  0.5557 -0.2747  1.3482
  380TIP3    H225336   7.377   5.883  17.564  0.3253 -0.8843  0.4537
  381TIP3   OH225337   5.908   5.522  19.276  0.2896  0.6147 -0.0744
  381TIP3    H125338   5.834   5.475  19.238  1.4203 -0.1033 -1.5066
  381TIP3    H225339   5.924   5.480  19.360  0.6492 -0.9543 -0.8904
  382TIP3   OH225340   7.391   3.909  19.059 -0.2122 -0.2276 -0.2206
  382TIP3    H125341   7.389   3.832  19.115 -0.6182 -1.2245 -1.5484
  382TIP3    H225342   7.327   3.969  19.096 -0.6389 -0.9660  0.2453
  383TIP3   OH225343   6.196   0.728  17.774  0.4451  0.5097 -0.1165
  383TIP3    H125344   6.152   0.663  17.829  1.6150  2.5956  3.5896
  383TIP3    H225345   6.284   0.692  17.761 -0.0335 -0.2997 -1.3570
  384TIP3   OH225346   7.412   1.390  18.982  0.4108 -0.0576  0.2337
  384TIP3    H125347   7.447   1.432  18.903  1.4439  0.6155  1.0222
  384TIP3    H225348   7.325   1.428  18.993  0.4632  0.2249 -0.3076
  385TIP3   OH225349   5.163   3.974  19.689  0.3171 -0.8246  0.1190
  385TIP3    H125350   5.191   3.967  19.598  2.3474 -1.2842  0.7421
  385TIP3    H225351   5.235   3.937  19.740 -0.4098  0.1732  1.9714
  386TIP3   OH225352   2.103   3.243  16.533  0.2147  0.0371  0.0669
  386TIP3    H125353   2.024   3.295  16.545 -0.7586 -1.1332 -0.9294
  386TIP3    H225354   2.114   3.238  16.438  0.5582 -1.1265  0.1482
  387TIP3   OH225355   6.803   4.819  19.572  0.7727 -0.4305  0.9686
  387TIP3    H125356   6.797   4.912  19.549  0.8642 -0.2963  1.4908
  387TIP3    H225357   6.885   4.811  19.620  0.0764 -0.5175  2.1649
  388TIP3   OH225358   2.510   2.387  18.257 -0.6952 -0.0745 -0.3958
  388TIP3    H125359   2.573   2.410  18.189 -0.1692 -1.3233 -0.3682
  388TIP3    H225360   2.533   2.443  18.332 -0.6470  0.6020 -0.9106
  389TIP3   OH225361   2.318   2.089  18.777 -0.7115 -0.1085 -0.2633
  389TIP3    H125362   2.263   2.020  18.815 -0.2749  0.6604  1.8330
  389TIP3    H225363   2.271   2.114  18.697 -0.6945 -3.0518 -1.3130
  390TIP3   OH225364   4.503   3.174  17.182  0.0047 -0.3197  0.2517
  390TIP3    H125365   4.546   3.089  17.182 -2.1658 -1.4970 -1.0191
  390TIP3    H225366   4.510   3.205  17.092  0.6666  0.8394  0.6712
  391TIP3   OH225367   3.136   6.510  16.841  0.4424 -0.7429  0.1000
  391TIP3    H125368   3.182   6.498  16.757  2.4657 -1.8520  1.2808
  391TIP3    H225369   3.105   6.423  16.864 -1.9196 -0.1023 -0.4012
  392TIP3   OH225370   2.663   7.369  18.580 -0.1438 -0.3332 -0.0933
  392TIP3    H125371   2.590   7.308  18.587  0.5264 -1.0134  1.6148
  392TIP3    H225372   2.643   7.422  18.503 -2.3221 -0.6357  0.1939
  393TIP3   OH225373   1.270   5.356  17.935  0.1399  0.1834 -0.5477
  393TIP3    H125374   1.195   5.319  17.982  0.3593  0.8977  0.3873
  393TIP3    H225375   1.233   5.430  17.886  0.3886  1.1879  0.7303
  394TIP3   OH225376   5.800   6.781  18.907  0.0498 -0.2243 -0.5396
  394TIP3    H125377   5.763   6.800  18.993  1.1105 -0.5954  0.0200
  394TIP3    H225378   5.735   6.814  18.844 -1.0354 -0.5245  0.3980
  395TIP3   OH225379   5.460   4.138  17.170  0.0087 -0.1342  0.2829
  395TIP3    H125380   5.465   4.135  17.265 -0.7868 -0.0361  0.3378
  395TIP3    H225381   5.399   4.210  17.152  0.6537  0.2715 -0.3175
  396TIP3   OH225382   7.138   2.342  18.357 -0.4781  0.0463 -0.3736
  396TIP3    H125383   7.116   2.435  18.348 -0.2232  0.0808 -0.6811
  396TIP3    H225384   7.226   2.335  18.319  0.6220  0.1733  1.9680
  397TIP3   OH225385   3.559   6.044  17.628 -0.5080 -0.1694 -0.3374
  397TIP3    H125386   3.528   6.122  17.674  1.2585  1.8926 -2.3738
  397TIP3    H225387   3.615   5.999  17.691  1.0997  2.0538 -0.0466
  398TIP3   OH225388   2.931   6.724  18.979  0.1802  0.8934  0.2985
  398TIP3    H125389   2.977   6.640  18.978 -0.5403  0.3784 -2.8234
  398TIP3    H225390   2.856   6.709  19.036 -0.2044 -0.8158 -0.5667
  399TIP3   OH225391   0.580   1.544  18.421  0.5677 -0.6132 -0.5897
  399TIP3    H125392   0.544   1.632  18.413 -0.0380 -0.7857  0.0842
  399TIP3    H225393   0.580   1.510  18.332 -0.3320 -0.3690 -0.6975
  400TIP3   OH225394   1.042   1.783  17.553 -0.0208 -0.1269  0.4570
  400TIP3    H125395   1.102   1.724  17.506 -0.1451  0.1631 -0.0775
  400TIP3    H225396   0.968   1.792  17.493  0.2600  1.0469  0.2682
  401TIP3   OH225397   1.602   2.716  17.910 -0.5411 -0.2385  0.1255
  401TIP3    H125398   1.551   2.737  17.832 -1.1566 -0.5095  0.4417
  401TIP3    H225399   1.665   2.650  17.880 -1.1031 -0.7115 -0.0414
  402TIP3   OH225400   1.265   3.351  17.963  0.1332  0.4343  0.0460
  402TIP3    H125401   1.205   3.359  18.037 -0.0527  3.2055 -0.3058
  402TIP3    H225402   1.207   3.342  17.887  0.3154 -1.5824  0.0830
  403TIP3   OH225403   0.760   4.233  17.236 -0.1528  0.0094 -0.4854
  403TIP3    H125404   0.721   4.169  17.176 -0.7658  1.1986 -1.4079
  403TIP3    H225405   0.694   4.244  17.305 -0.5636  0.5073 -0.9517
  404TIP3   OH225406   6.475   6.513  18.887  0.6031  0.4520 -0.1833
  404TIP3    H125407   6.443   6.428  18.918 -0.3429  0.8105 -0.1321
  404TIP3    H225408   6.447   6.575  18.954  1.2617  0.8150 -0.2348
  405TIP3   OH225409   6.972   2.340  17.610 -0.0952 -0.0428  0.1616
  405TIP3    H125410   6.914   2.415  17.627  0.3179  0.2458  0.3208
  405TIP3    H225411   6.924   2.265  17.644  0.1276  0.3460  1.3632
  406TIP3   OH225412   5.894   0.554  19.215 -0.1509  0.0890 -0.7562
  406TIP3    H125413   5.883   0.634  19.164 -1.2689  0.1230 -0.4894
  406TIP3    H225414   5.811   0.507  19.205 -0.6012  0.3078  1.3515
  407TIP3   OH225415   6.980   1.853  19.742  0.0092 -0.1185  0.5813
  407TIP3    H125416   7.067   1.888  19.723 -0.5326  0.8044 -0.3121
  407TIP3    H225417   6.988   1.815  19.829  0.9965  1.0364  1.0232
  408TIP3   OH225418   6.026   3.467  17.660  0.0368  0.0206 -0.2643
  408TIP3    H125419   6.025   3.563  17.665 -0.4440  0.0021  0.0680
  408TIP3    H225420   5.935   3.441  17.675 -0.3288 -0.3826 -2.7989
  409TIP3   OH225421   6.699   2.389  17.443  0.5615  0.1021  0.1005
  409TIP3    H125422   6.712   2.454  17.512  0.9413  1.3419 -1.0936
  409TIP3    H225423   6.634   2.328  17.479 -0.1801  1.4258  1.0786
  410TIP3   OH225424   6.182   6.897  17.603  0.3464 -0.3853 -0.1100
  410TIP3    H125425   6.258   6.838  17.609  0.4557 -0.3596 -1.1307
  410TIP3    H225426   6.220   6.983  17.587  0.2012  0.0431  1.6405
  411TIP3   OH225427   4.937   7.529  18.316 -0.0691  0.3107  0.3027
  411TIP3    H125428   4.980   7.600  18.268 -0.3446  0.2913  0.0269
  411TIP3    H225429   4.859   7.569  18.354 -0.2072  0.1637  0.1740
  412TIP3   OH225430   1.603   3.077  17.164  0.3417  0.5989 -0.9634
  412TIP3    H125431   1.668   3.008  17.178 -0.3715  0.4185  2.0583
  412TIP3    H225432   1.644   3.156  17.198  0.1904  1.2070 -2.1189
  413TIP3   OH225433   3.715   5.838  19.320  0.2676 -0.5237  0.3578
  413TIP3    H125434   3.662   5.915  19.341 -0.3162 -1.4014  2.3741
  413TIP3    H225435   3.782   5.836  19.388  2.6345  0.2312 -1.8063
  414TIP3   OH225436   5.490   4.395  19.113 -0.4373 -0.3771 -0.1160
  414TIP3    H125437   5.478   4.354  19.027  1.5035  0.9209 -1.0649
  414TIP3    H225438   5.532   4.327  19.166  3.4157  0.3922 -1.8834
  415TIP3   OH225439   4.684   4.918  17.954 -0.0039 -0.0066  0.5387
  415TIP3    H125440   4.689   4.980  17.881  3.0395 -1.3110 -0.5254
  415TIP3    H225441   4.752   4.947  18.015  1.0792 -1.8745  0.2898
  416TIP3   OH225442   0.914   0.944  17.351 -0.2267  0.0010  0.3140
  416TIP3    H125443   1.006   0.957  17.374 -0.6341 -1.0719  2.7981
  416TIP3    H225444   0.911   0.858  17.309 -0.1386 -0.1024  0.5189
  417TIP3   OH225445   2.711   2.124  18.281 -0.1784 -0.1830  0.4425
  417TIP3    H125446   2.719   2.055  18.215  2.5013  0.7311 -0.3275
  417TIP3    H225447   2.728   2.205  18.233  0.4775  0.6462  1.9967
  418TIP3   OH225448   4.696   2.226  18.168  0.2118  0.1953  0.0349
  418TIP3    H125449   4.670   2.263  18.252 -1.1751 -0.0308 -0.2812
  418TIP3    H225450   4.694   2.299  18.107  0.8127  0.2729  0.0976
  419TIP3   OH225451   2.729   4.920  18.582  0.0482  0.3006  0.1850
  419TIP3    H125452   2.688   4.997  18.541  0.3945  0.3090 -0.1483
  419TIP3    H225453   2.680   4.908  18.664 -0.7793  0.1734 -0.3114
  420TIP3   OH225454   3.284   7.014  18.639  0.7885 -0.4996 -0.9374
  420TIP3    H125455   3.343   6.959  18.692  1.9449  0.8299 -0.7812
  420TIP3    H225456   3.306   6.992  18.549  0.2855 -1.2712 -0.8769
  421TIP3   OH225457   3.547   4.757  18.809 -0.2657  0.3743  0.9027
  421TIP3    H125458   3.592   4.836  18.780  3.7350 -2.5598 -1.8814
  421TIP3    H225459   3.558   4.756  18.904  2.7007  1.5633  0.6660
  422TIP3   OH225460   1.139   3.619  16.684  0.1151 -0.1170 -0.2027
  422TIP3    H125461   1.088   3.623  16.766  0.5370 -0.2772  0.0718
  422TIP3    H225462   1.075   3.640  16.616 -0.0155  1.0586  0.2521
  423TIP3   OH225463   2.163   1.610  19.014 -0.0139  0.2213 -0.6771
  423TIP3    H125464   2.113   1.531  19.038  0.1039  0.4140  0.2638
  423TIP3    H225465   2.230   1.578  18.954  0.9142 -0.6719  0.7538
  424TIP3   OH225466   1.334   0.230  18.979 -0.4513  0.6302 -0.5431
  424TIP3    H125467   1.390   0.172  19.032 -0.6805  1.2697  0.4148
  424TIP3    H225468   1.373   0.227  18.891  2.2678  2.5288  0.4912
  425TIP3   OH225469   6.325   2.131  19.049 -0.1849 -0.2102 -0.2524
  425TIP3    H125470   6.292   2.045  19.021  0.3878  0.2161 -2.3834
  425TIP3    H225471   6.378   2.111  19.126 -0.0251 -1.7986 -0.7270
  426TIP3   OH225472   3.646   5.187  17.236 -0.1868 -0.1799  0.2763
  426TIP3    H125473   3.732   5.206  17.273  0.1416 -0.6666 -0.2299
  426TIP3    H225474   3.588   5.252  17.276  0.3040 -0.2063  1.0581
  427TIP3   OH225475   4.540   4.120  16.769 -0.1384 -0.3710 -0.7470
  427TIP3    H125476   4.458   4.073  16.785 -0.0399  0.1273  1.6046
  427TIP3    H225477   4.609   4.055  16.784 -0.0370 -0.7862 -2.7097
  428TIP3   OH225478   6.530   5.180  19.283 -0.2824 -0.1961 -0.2363
  428TIP3    H125479   6.538   5.141  19.370 -1.0168  1.3717  0.5602
  428TIP3    H225480   6.470   5.123  19.236  1.4870 -2.0707 -0.3656
  429TIP3   OH225481   3.228   1.024  17.917  0.9556  0.1331  0.2095
  429TIP3    H125482   3.181   0.941  17.921  0.5134  0.2664 -1.5441
  429TIP3    H225483   3.162   1.091  17.935  1.2530  0.1603  1.3286
  430TIP3   OH225484   0.450   3.935  17.111  0.0359 -0.1196  0.7070
  430TIP3    H125485   0.416   3.863  17.057 -1.0135 -0.6828  2.0699
  430TIP3    H225486   0.418   3.916  17.199  2.4154  0.3318  1.7230
  431TIP3   OH225487   2.464   2.812  17.759  0.0757  0.5164  0.1661
  431TIP3    H125488   2.532   2.874  17.733  1.6944  0.5270  3.9528
  431TIP3    H225489   2.509   2.746  17.811 -2.5833 -0.3292  1.5609
  432TIP3   OH225490   5.064   2.439  18.708  0.1098 -0.3055  0.2116
  432TIP3    H125491   5.001   2.498  18.750 -2.8843 -2.9384 -0.2511
  432TIP3    H225492   5.096   2.489  18.632 -0.0158  1.7493  1.4331
  433TIP3   OH225493   5.494   5.363  19.012  0.2131  0.0670 -0.3916
  433TIP3    H125494   5.423   5.300  19.001  0.9084 -0.6011 -1.2053
  433TIP3    H225495   5.555   5.343  18.941  0.7892  1.2123 -0.2464
  434TIP3   OH225496   5.138   2.465  19.093  0.0418  0.2488 -0.2087
  434TIP3    H125497   5.100   2.397  19.036  0.2198 -0.2891  0.2988
  434TIP3    H225498   5.118   2.547  19.049 -1.7486 -0.0002  0.0231
  435TIP3   OH225499   7.354   3.095  16.677 -0.1046  0.4688  0.0407
  435TIP3    H125500   7.410   3.172  16.677 -0.6608  0.9473  2.4048
  435TIP3    H225501   7.268   3.128  16.704 -0.7920 -0.7188 -0.5896
  436TIP3   OH225502   1.369   0.460  17.382  0.2004 -0.4020  0.2930
  436TIP3    H125503   1.327   0.399  17.321 -1.0384 -1.1996  1.8647
  436TIP3    H225504   1.346   0.547  17.349  1.6145 -0.7117 -1.7342
  437TIP3   OH225505   2.298   7.674  18.966  0.0475 -0.0552 -1.1036
  437TIP3    H125506   2.366   7.661  19.033  0.2404  2.3796 -0.7242
  437TIP3    H225507   2.321   7.612  18.897 -0.3717 -2.9808  1.1506
  438TIP3   OH225508   6.013   6.196  17.096 -0.4094 -0.2602  0.1337
  438TIP3    H125509   5.996   6.103  17.108 -0.0396 -0.2713  0.6131
  438TIP3    H225510   6.083   6.201  17.032 -1.2274 -0.2642 -0.7797
  439TIP3   OH225511   2.013   1.504  18.655 -0.2098  0.0663 -0.1795
  439TIP3    H125512   1.985   1.495  18.746  3.5060 -0.2051  1.0892
  439TIP3    H225513   2.004   1.598  18.636  0.7413  0.4476  1.1456
  440TIP3   OH225514   3.038   6.656  17.705  0.1296 -0.5316  0.3701
  440TIP3    H125515   3.112   6.700  17.746  1.3580 -0.7414 -1.4978
  440TIP3    H225516   3.073   6.570  17.680 -0.1743  0.0016 -2.0912
  441TIP3   OH225517   4.716   6.263  18.366 -0.4300 -0.4570 -0.0150
  441TIP3    H125518   4.674   6.337  18.411 -0.6728 -0.9183  0.5270
  441TIP3    H225519   4.646   6.225  18.312 -0.2083 -0.0673 -0.5801
  442TIP3   OH225520   0.196   3.864  18.717  0.6410 -0.8849 -0.2280
  442TIP3    H125521   0.254   3.935  18.689  1.0909 -0.5518  1.4612
  442TIP3    H225522   0.255   3.798  18.754 -0.0008 -0.6410  1.3076
  443TIP3   OH225523   1.579   3.296  18.574  0.6289  0.2304 -0.3961
  443TIP3    H125524   1.632   3.260  18.645  0.9074 -0.5002 -0.9549
  443TIP3    H225525   1.564   3.221  18.516 -0.4770  0.5706 -0.5707
  444TIP3   OH225526   1.824   4.244  18.220  0.3770  0.1747  0.3911
  444TIP3    H125527   1.886   4.197  18.277 -0.0644 -0.0810  0.6626
  444TIP3    H225528   1.829   4.198  18.136  0.4192  0.0464  0.4641
  445TIP3   OH225529   5.807   2.535  19.474 -0.0508 -0.4789  0.3078
  445TIP3    H125530   5.736   2.579  19.428  0.4557 -0.0710 -0.0993
  445TIP3    H225531   5.840   2.600  19.535 -0.0442 -0.6760  0.5147
  446TIP3   OH225532   5.973   0.919  17.327  0.7871  0.3290 -0.0983
  446TIP3    H125533   6.009   0.854  17.387  1.3452  0.4822 -0.2678
  446TIP3    H225534   5.903   0.961  17.377 -1.9186 -2.6256 -1.0276
  447TIP3   OH225535   3.113   6.400  17.669  0.0135 -0.0240 -0.6062
  447TIP3    H125536   3.034   6.349  17.688  0.8300 -0.7297  1.1053
  447TIP3    H225537   3.167   6.391  17.748  0.5880  2.7805 -0.5607
  448TIP3   OH225538   1.450   6.864  18.156 -0.3866  0.7093 -0.6000
  448TIP3    H125539   1.462   6.888  18.064 -0.5568  0.6151 -0.6480
  448TIP3    H225540   1.397   6.784  18.153 -1.5551  1.4417 -0.3806
  449TIP3   OH225541   0.463   2.757  17.234 -0.3576 -0.0355 -0.7139
  449TIP3    H125542   0.377   2.719  17.248  0.1769 -0.7019  1.1130
  449TIP3    H225543   0.504   2.701  17.168 -0.8106 -0.5850 -0.5372
  450TIP3   OH225544   0.735   2.676  17.917 -0.2036 -0.6376 -0.3643
  450TIP3    H125545   0.664   2.704  17.975 -0.1232  0.9695 -0.9930
  450TIP3    H225546   0.704   2.593  17.881 -0.1735 -1.7841  2.0769
  451TIP3   OH225547   1.624   1.459  18.222 -0.3898  0.0992  0.5560
  451TIP3    H125548   1.652   1.368  18.209  0.0573  0.0847  1.5348
  451TIP3    H225549   1.540   1.451  18.267 -0.4343  0.1630  0.4820
  452TIP3   OH225550   4.398   2.726  19.568  0.2242 -0.1373  0.3049
  452TIP3    H125551   4.487   2.723  19.603 -0.2379 -0.8974  1.4707
  452TIP3    H225552   4.396   2.805  19.514  1.9133 -0.6690 -0.6181
  453TIP3   OH225553   0.474   6.974  18.369  0.2054  0.1817 -0.0094
  453TIP3    H125554   0.465   6.883  18.343 -0.7089  0.3512 -0.3299
  453TIP3    H225555   0.552   7.005  18.323 -0.9202  0.2511 -1.9895
  454TIP3   OH225556   4.943   0.753  17.334 -0.1165  0.0195  0.8551
  454TIP3    H125557   4.997   0.694  17.281 -0.6351  0.4013 -0.1178
  454TIP3    H225558   5.006   0.798  17.391  0.4783 -0.2769  0.4407
  455TIP3   OH225559   3.004   0.642  17.042 -0.3732  0.2121  0.1366
  455TIP3    H125560   2.986   0.667  17.132  0.1563  0.8094  0.0818
  455TIP3    H225561   3.048   0.718  17.004  0.4907 -0.4843 -0.2831
  456TIP3   OH225562   0.900   3.314  17.164 -0.1309 -0.5439 -0.0164
  456TIP3    H125563   0.900   3.381  17.095  0.7952 -0.9893 -0.4727
  456TIP3    H225564   0.816   3.270  17.155 -1.6732  1.8038  1.5804
  457TIP3   OH225565   3.153   5.400  18.411  0.1874 -0.0260 -0.5309
  457TIP3    H125566   3.061   5.374  18.409  0.5633 -1.4435 -0.4868
  457TIP3    H225567   3.190   5.353  18.487  1.0872 -0.0165 -0.9427
  458TIP3   OH225568   0.338   1.364  18.202  0.0921  0.0649 -0.1383
  458TIP3    H125569   0.431   1.346  18.214 -0.0548 -0.2097  0.6694
  458TIP3    H225570   0.313   1.314  18.124  0.7576  0.6659 -0.7481
  459TIP3   OH225571   1.854   7.119  18.055  0.1679 -0.1202 -0.4633
  459TIP3    H125572   1.825   7.079  17.972 -0.1604  0.3704 -0.5853
  459TIP3    H225573   1.773   7.147  18.098  0.4382  1.0824 -0.7175
  460TIP3   OH225574   0.678   4.526  17.433 -0.1932 -0.0398 -0.4907
  460TIP3    H125575   0.696   4.585  17.506  0.5618 -0.2880 -0.4697
  460TIP3    H225576   0.633   4.451  17.473 -1.2619  0.5586 -0.5343
  461TIP3   OH225577   5.271   4.660  19.443  0.3290 -0.8306 -0.5632
  461TIP3    H125578   5.251   4.730  19.506  2.8717  0.1446 -0.7122
  461TIP3    H225579   5.290   4.584  19.498 -0.3955 -0.8306 -0.3014
  462TIP3   OH225580   6.252   6.954  19.026 -0.1126  0.0242  0.2183
  462TIP3    H125581   6.279   7.000  19.105  0.1366 -1.1061  0.8192
  462TIP3    H225582   6.207   6.876  19.058 -1.8070  0.5490 -0.7785
  463TIP3   OH225583   0.923   1.224  17.810  0.1038 -0.1893  0.6439
  463TIP3    H125584   1.007   1.184  17.784  0.6524  1.4716 -0.2580
  463TIP3    H225585   0.881   1.248  17.727 -0.3914  0.7159  1.1431
  464TIP3   OH225586   0.441   3.721  18.293  0.2966  0.2571  0.1791
  464TIP3    H125587   0.384   3.649  18.319 -0.4000  0.6816 -0.1319
  464TIP3    H225588   0.522   3.707  18.341  0.6852 -1.5010 -0.8874
  465TIP3   OH225589   4.737   6.640  18.057  0.6963  0.3115 -0.0154
  465TIP3    H125590   4.661   6.691  18.031  0.6468 -0.9297 -2.7086
  465TIP3    H225591   4.804   6.705  18.080 -0.3293  1.4790 -0.2677
  466TIP3   OH225592   2.927   6.295  19.369 -0.1714 -0.3396 -0.0087
  466TIP3    H125593   2.874   6.216  19.368 -0.6781 -0.0587 -2.8255
  466TIP3    H225594   3.018   6.264  19.369 -0.3691 -0.9428 -1.0169
  467TIP3   OH225595   6.007   2.940  16.892  0.0481  0.0786  0.7923
  467TIP3    H125596   5.962   3.011  16.936 -2.0397 -1.5544  1.4713
  467TIP3    H225597   6.087   2.927  16.942  0.2822  1.6562  0.8718
  468TIP3   OH225598   7.249   7.555  18.960 -0.5398 -0.1259 -0.2815
  468TIP3    H125599   7.208   7.479  19.003  0.9127 -1.4251 -1.0952
  468TIP3    H225600   7.311   7.517  18.898  0.6157  1.7535 -0.3512
  469TIP3   OH225601   0.989   4.355  18.505  0.0067  0.0009  0.2948
  469TIP3    H125602   0.980   4.447  18.532 -0.2989 -0.0619  0.4017
  469TIP3    H225603   0.981   4.358  18.409 -0.3441  0.0447  0.3247
  470TIP3   OH225604   2.039   2.564  18.028  0.6487 -0.6754  0.0040
  470TIP3    H125605   1.958   2.569  18.079  0.8630 -1.7695  0.4845
  470TIP3    H225606   2.027   2.628  17.957  0.1488  0.5202  1.1329
  471TIP3   OH225607   3.771   2.716  17.977  0.3352  0.0008  0.0528
  471TIP3    H125608   3.756   2.643  17.917 -0.9528 -0.3754  0.7869
  471TIP3    H225609   3.755   2.679  18.064  0.1744  1.0280  0.4770
  472TIP3   OH225610   1.201   6.331  18.240 -0.1151  0.0777  0.0620
  472TIP3    H125611   1.281   6.279  18.228 -0.0227  0.4714 -1.2654
  472TIP3    H225612   1.233   6.418  18.265  0.0574  0.8122 -2.4154
  473TIP3   OH225613   2.729   4.362  16.874  0.0328 -0.2650  0.2785
  473TIP3    H125614   2.792   4.338  16.806  1.2177  0.6599  1.0093
  473TIP3    H225615   2.746   4.454  16.892 -0.7482 -0.3029  1.3252
  474TIP3   OH225616   5.594   5.861  19.730 -0.2227  0.0573 -0.4133
  474TIP3    H125617   5.556   5.911  19.802 -0.4605 -0.6873 -0.0161
  474TIP3    H225618   5.615   5.775  19.768  0.0663 -0.1896 -1.1148
  475TIP3   OH225619   4.291   1.011  17.813  0.3510  0.8083 -0.0403
  475TIP3    H125620   4.268   1.083  17.871  0.0229 -0.2287  1.1747
  475TIP3    H225621   4.347   0.954  17.867  0.4077  0.0377 -0.8886
  476TIP3   OH225622   3.639   5.722  17.532  0.6264  0.2492  0.0752
  476TIP3    H125623   3.659   5.630  17.511  1.0331  0.5008 -0.6529
  476TIP3    H225624   3.546   5.720  17.557  0.2735 -0.1711 -1.1657
  477TIP3   OH225625   7.240   1.888  19.395  0.1911 -0.6454 -0.1832
  477TIP3    H125626   7.184   1.909  19.320 -1.6721 -0.0735  1.2650
  477TIP3    H225627   7.280   1.805  19.373 -0.7946 -0.7972 -1.5561
  478TIP3   OH225628   6.293   3.496  18.812 -0.2791  0.4935  0.2859
  478TIP3    H125629   6.315   3.411  18.774 -0.1607  0.8203 -0.3842
  478TIP3    H225630   6.376   3.544  18.814 -0.3292  0.5692  0.7431
  479TIP3   OH225631   7.233   3.055  17.595  0.2043  0.3668  0.3162
  479TIP3    H125632   7.251   3.021  17.507 -0.6108  1.2837 -0.2207
  479TIP3    H225633   7.158   3.005  17.625 -0.5487  1.1801 -0.1857
  480TIP3   OH225634   0.433   3.727  18.601  0.4867  0.1715 -0.0158
  480TIP3    H125635   0.465   3.817  18.593 -0.4518  0.5883  0.7186
  480TIP3    H225636   0.509   3.678  18.634  0.3664  1.1973  1.9753
  481TIP3   OH225637   1.695   6.465  17.856  0.3408  0.5986 -0.2466
  481TIP3    H125638   1.764   6.416  17.902  1.2380  0.2991 -1.8485
  481TIP3    H225639   1.732   6.484  17.770 -1.4391  0.7711 -1.0177
  482TIP3   OH225640   4.760   2.210  19.235 -0.1903 -0.1556 -0.1093
  482TIP3    H125641   4.740   2.238  19.325  0.1281  0.3296 -0.1849
  482TIP3    H225642   4.685   2.156  19.209 -0.1924 -0.4569  0.5161
  483TIP3   OH225643   0.585   1.515  17.201  0.2286  0.1676 -0.5055
  483TIP3    H125644   0.655   1.536  17.139  1.9326 -1.3863  0.7875
  483TIP3    H225645   0.541   1.439  17.164  0.4817 -0.0410 -0.3764
  484TIP3   OH225646   3.919   6.882  17.677  0.5672 -0.5420  0.3212
  484TIP3    H125647   4.002   6.929  17.679  0.7393 -0.8644  1.6245
  484TIP3    H225648   3.852   6.950  17.683  0.7138 -0.2720 -0.8479
  485TIP3   OH225649   1.395   3.319  17.325 -0.1848  0.2485 -0.5925
  485TIP3    H125650   1.435   3.263  17.392  1.3519  0.0529 -1.6158
  485TIP3    H225651   1.301   3.310  17.340 -0.0041 -2.3728 -0.5060
  486TIP3   OH225652   0.669   3.635  17.324 -0.1990  0.0946 -0.5340
  486TIP3    H125653   0.630   3.683  17.397  1.0344  0.0567  0.1820
  486TIP3    H225654   0.752   3.602  17.359  0.3646 -0.0302 -1.9212
  487TIP3   OH225655   6.968   3.611  17.798  0.6097  0.2098  0.1301
  487TIP3    H125656   7.012   3.552  17.860 -0.6969 -0.8005  0.1375
  487TIP3    H225657   7.033   3.628  17.731  0.8182 -1.8546 -0.2596
  488TIP3   OH225658   2.708   7.437  18.275 -0.2237 -0.1424 -0.1307
  488TIP3    H125659   2.626   7.472  18.312 -1.6760 -2.0551 -1.3657
  488TIP3    H225660   2.718   7.483  18.192 -0.4267 -0.3851 -0.2922
  489TIP3   OH225661   2.622   3.512  18.198 -0.1784  0.0391  0.5520
  489TIP3    H125662   2.717   3.497  18.191 -0.3839 -0.6674 -1.1275
  489TIP3    H225663   2.605   3.582  18.136 -1.0206 -1.1636 -0.6255
  490TIP3   OH225664   2.842   4.938  17.948 -0.0287 -0.2194 -0.2511
  490TIP3    H125665   2.794   5.001  17.894 -0.6888  0.0142  0.5941
  490TIP3    H225666   2.856   4.863  17.890 -0.1664  0.2714 -0.9388
  491TIP3   OH225667   3.602   7.094  18.465 -0.3335 -0.4533  0.0756
  491TIP3    H125668   3.636   7.116  18.552  0.5754  0.1454 -0.4152
  491TIP3    H225669   3.559   7.009  18.476  0.3948 -0.7137  0.9529
  492TIP3   OH225670   3.994   4.934  18.674  0.0743  0.4787 -0.0369
  492TIP3    H125671   3.960   5.017  18.708  0.1545 -0.0490  1.4344
  492TIP3    H225672   4.089   4.943  18.681  0.0658 -0.2277  1.4979
  493TIP3   OH225673   2.719   4.714  17.806  0.0456 -0.1129  0.4546
  493TIP3    H125674   2.802   4.667  17.813 -0.2794 -0.5277  1.6489
  493TIP3    H225675   2.652   4.647  17.821 -0.5020  0.2985 -0.0761
  494TIP3   OH225676   4.274   3.353  17.638 -0.3437  0.6058  0.1177
  494TIP3    H125677   4.245   3.277  17.687 -0.3908  0.6757  0.1990
  494TIP3    H225678   4.204   3.369  17.574 -0.4190  0.6914  0.2215
  495TIP3   OH225679   0.578   4.806  18.678  0.0746  0.2064 -0.0176
  495TIP3    H125680   0.515   4.868  18.641 -1.4859 -0.4993  1.3511
  495TIP3    H225681   0.570   4.728  18.623  0.3322  0.3880 -0.3166
  496TIP3   OH225682   0.202   6.868  16.681 -0.5241 -0.2789 -0.0533
  496TIP3    H125683   0.112   6.848  16.705 -1.0082  1.5746 -0.1448
  496TIP3    H225684   0.195   6.925  16.604  0.9060 -3.6995 -2.9952
  497TIP3   OH225685   1.319   0.444  18.447 -0.0990 -0.2848 -0.1856
  497TIP3    H125686   1.298   0.405  18.532 -0.1115  2.1194  0.9830
  497TIP3    H225687   1.235   0.479  18.416  0.0132 -0.6757 -0.9484
  498TIP3   OH225688   1.627   2.847  18.557 -0.1204  0.4980 -0.4535
  498TIP3    H125689   1.689   2.868  18.627 -0.7156 -0.4532  0.4015
  498TIP3    H225690   1.566   2.786  18.598 -1.6114  1.3942 -1.2845
  499TIP3   OH225691   5.401   2.677  16.975  0.4026  0.0360 -0.2201
  499TIP3    H125692   5.353   2.607  16.932  0.7081 -0.2778 -0.0519
  499TIP3    H225693   5.352   2.756  16.954 -0.2475 -0.2958  0.0513
  500TIP3   OH225694   6.814   1.949  16.405  0.3951 -0.3622  0.6232
  500TIP3    H125695   6.767   1.870  16.380  0.0490 -0.0072  0.1381
  500TIP3    H225696   6.847   1.985  16.323  0.8550 -0.1912  0.8792
  501TIP3   OH225697   6.925   0.510  17.658 -0.5806  0.0453  0.4599
  501TIP3    H125698   6.943   0.423  17.623  1.3810  0.0438  1.3717
  501TIP3    H225699   6.831   0.522  17.644 -0.4735 -1.1894 -1.9219
  502TIP3   OH225700   3.111   2.107  17.704  0.5808 -0.0830  0.6077
  502TIP3    H125701   3.018   2.088  17.715  0.5794  0.0049  0.7422
  502TIP3    H225702   3.150   2.023  17.679  0.5310 -0.2078  0.9468
  503TIP3   OH225703   4.904   1.873  18.644  0.0369  0.4018  0.8098
  503TIP3    H125704   4.897   1.966  18.623 -2.3105  0.5389  1.8862
  503TIP3    H225705   4.818   1.837  18.622  1.5102 -2.0157 -1.5714
  504TIP3   OH225706   2.113   7.397  17.491  0.2783  0.2634 -0.3739
  504TIP3    H125707   2.024   7.402  17.527  0.7007 -0.4855  0.8497
  504TIP3    H225708   2.117   7.311  17.450  0.5599  0.1280 -0.0663
  505TIP3   OH225709   4.681   1.179  17.332 -0.0008 -0.5515  0.0038
  505TIP3    H125710   4.738   1.221  17.268 -0.2806  0.9216  0.6692
  505TIP3    H225711   4.659   1.094  17.293  1.0210 -0.3068 -1.1590
  506TIP3   OH225712   4.714   4.844  17.142 -0.7137 -0.9502  0.2290
  506TIP3    H125713   4.635   4.816  17.188 -0.4079 -1.1799  0.6211
  506TIP3    H225714   4.766   4.763  17.132 -0.3839 -0.7466  0.2652
  507TIP3   OH225715   3.626   5.730  18.726  1.0498 -0.7320  0.3385
  507TIP3    H125716   3.547   5.771  18.762  0.2830 -2.1402  0.3492
  507TIP3    H225717   3.689   5.801  18.719 -0.3762  0.5430 -0.1183
  508TIP3   OH225718   2.724   5.510  18.477  0.5995  0.3604 -0.1642
  508TIP3    H125719   2.636   5.538  18.501 -0.9617 -2.5219 -1.8598
  508TIP3    H225720   2.764   5.587  18.437 -1.5575  1.4811 -0.3078
  509TIP3   OH225721   5.381   6.677  17.644 -0.4683 -0.0559  0.6679
  509TIP3    H125722   5.319   6.604  17.641 -0.6642  0.1397 -1.6332
  509TIP3    H225723   5.434   6.667  17.565  0.2479  1.6670  0.8900
  510TIP3   OH225724   3.047   3.504  18.956  0.0351 -0.3238  0.2200
  510TIP3    H125725   3.020   3.590  18.988 -1.0552  0.0824 -1.6227
  510TIP3    H225726   2.987   3.443  18.997 -0.6959  0.0749 -0.2209
  511TIP3   OH225727   6.505   5.404  19.590 -0.4010  0.1118 -0.1777
  511TIP3    H125728   6.428   5.372  19.543  0.2954  0.1702 -1.3741
  511TIP3    H225729   6.473   5.481  19.637 -1.1534 -0.0643 -0.3805
  512TIP3   OH225730   4.239   4.642  18.930 -0.3421  0.2158 -0.0035
  512TIP3    H125731   4.161   4.686  18.894 -0.4763 -1.3281 -1.7710
  512TIP3    H225732   4.206   4.560  18.966  0.4517 -0.5178 -0.8935
  513TIP3   OH225733   1.368   3.327  16.319 -0.1852  0.4791  0.1434
  513TIP3    H125734   1.320   3.369  16.248  0.5417  1.3197  0.1302
  513TIP3    H225735   1.414   3.399  16.362  0.5597 -0.2253  0.5419
  514TIP3   OH225736   1.518   2.231  19.024  0.0147  0.2694  0.5044
  514TIP3    H125737   1.596   2.179  19.006 -0.5285 -0.4258  0.1038
  514TIP3    H225738   1.551   2.316  19.054  0.9530  0.4536 -0.9714
  515TIP3   OH225739   1.383   1.825  17.530 -0.3349  0.5025 -0.4528
  515TIP3    H125740   1.368   1.737  17.564 -0.5728  1.1848  1.3389
  515TIP3    H225741   1.461   1.816  17.475 -0.5756 -0.8827 -0.6099
  516TIP3   OH225742   4.071   0.103  17.735  0.4222 -0.5587 -0.1721
  516TIP3    H125743   4.069   0.048  17.814 -0.4888 -0.0046  0.2008
  516TIP3    H225744   4.097   0.189  17.767 -0.4090 -0.2187 -0.4066
  517TIP3   OH225745   1.109   2.998  18.259 -0.0912 -0.1437  0.7204
  517TIP3    H125746   1.042   3.065  18.252  0.2023  0.2805  1.6783
  517TIP3    H225747   1.062   2.915  18.254 -0.2235 -0.0104 -3.0413
  518TIP3   OH225748   1.775   0.848  18.976 -0.1873 -0.1179 -0.2630
  518TIP3    H125749   1.777   0.876  18.884  0.3913  0.0060 -0.2141
  518TIP3    H225750   1.743   0.925  19.023  1.2632  0.4495 -0.1499
  519TIP3   OH225751   7.027   6.448  19.427 -0.7512  0.3114  0.0408
  519TIP3    H125752   6.994   6.369  19.384 -0.2540  0.4393 -0.5908
  519TIP3    H225753   7.114   6.424  19.459 -0.7252  0.5093  0.1186
  520TIP3   OH225754   0.966   1.089  19.080  0.2597 -0.0198 -0.1858
  520TIP3    H125755   0.917   1.024  19.029 -0.6035  0.5380 -0.0969
  520TIP3    H225756   0.949   1.066  19.171  0.0771  0.2345 -0.1550
  521TIP3   OH225757   3.880   3.489  18.729  0.2927  0.6960 -0.1059
  521TIP3    H125758   3.831   3.463  18.807 -1.6098 -0.3067 -1.5451
  521TIP3    H225759   3.922   3.571  18.754 -0.0184  0.2685  2.0499
  522TIP3   OH225760   2.475   7.416  18.905 -0.5261 -0.1013  0.5588
  522TIP3    H125761   2.560   7.446  18.875 -0.5990 -0.6408 -0.2069
  522TIP3    H225762   2.417   7.425  18.829 -1.0028 -0.3384  0.8822
  523TIP3   OH225763   3.049   3.938  17.763  0.1167  0.0968  0.1968
  523TIP3    H125764   2.981   4.003  17.742 -0.1859 -0.4419 -0.5157
  523TIP3    H225765   3.119   3.990  17.803  0.4204  1.0824 -1.5138
  524TIP3   OH225766   4.760   2.266  18.649 -0.0613  0.3689  0.2513
  524TIP3    H125767   4.805   2.228  18.574 -1.2315  1.6687 -1.1522
  524TIP3    H225768   4.761   2.360  18.633  0.4771  0.7692  2.3514
  525TIP3   OH225769   1.814   4.882  17.228 -0.1110 -0.6252 -0.0274
  525TIP3    H125770   1.844   4.835  17.150 -0.3780 -0.2942 -0.3371
  525TIP3    H225771   1.721   4.898  17.212 -0.0048  0.0813  0.0284
  526TIP3   OH225772   1.863   3.369  16.579  0.1220  0.2928 -0.1966
  526TIP3    H125773   1.863   3.405  16.668 -0.7900 -0.9593  0.3417
  526TIP3    H225774   1.816   3.285  16.587 -0.9085  0.6340 -2.0488
  527TIP3   OH225775   5.204   0.818  17.875 -0.2963 -0.0085 -0.1803
  527TIP3    H125776   5.160   0.790  17.795 -0.6722  0.2449 -0.0598
  527TIP3    H225777   5.140   0.872  17.921 -0.9237 -1.9812  1.3994
  528TIP3   OH225778   0.274   2.293  18.964  0.1291 -0.6171 -0.9448
  528TIP3    H125779   0.359   2.303  18.920  0.9460  0.9179  0.8454
  528TIP3    H225780   0.249   2.202  18.948  1.7389 -0.8929 -2.1483
  529TIP3   OH225781   1.944   2.910  16.395  0.1311  0.0822  0.5072
  529TIP3    H125782   1.850   2.908  16.376  0.0914  1.1043  0.4963
  529TIP3    H225783   1.948   2.925  16.490  0.2670  0.5527  0.4323
  530TIP3   OH225784   5.857   1.521  16.939 -0.0852  1.0013  0.3834
  530TIP3    H125785   5.778   1.574  16.952  0.8172  2.3559  0.5223
  530TIP3    H225786   5.898   1.558  16.861 -0.0550 -0.3251 -0.2679
  531TIP3   OH225787   2.689   1.027  19.088 -0.2303  0.6016  0.0315
  531TIP3    H125788   2.709   1.022  18.994 -1.1988 -0.5907 -0.1326
  531TIP3    H225789   2.748   0.964  19.129 -1.7960 -1.0968 -0.1697
  532TIP3   OH225790   1.209   2.277  17.913 -0.0143  0.4118 -0.3301
  532TIP3    H125791   1.295   2.245  17.885 -0.2703  0.8811 -1.7311
  532TIP3    H225792   1.167   2.307  17.833 -0.4591  2.7030  0.6898
  533TIP3   OH225793   3.306   0.630  19.154  0.2480 -0.3947  0.0127
  533TIP3    H125794   3.281   0.580  19.232  1.5952  1.4441  1.7186
  533TIP3    H225795   3.377   0.579  19.115 -1.2307 -1.9591 -0.8008
  534TIP3   OH225796   5.368   0.095  18.149 -0.4348 -0.1095 -0.4795
  534TIP3    H125797   5.364  -0.000  18.157  1.2582 -0.2404 -0.9459
  534TIP3    H225798   5.454   0.113  18.112 -0.8585  1.5944 -0.7296
  535TIP3   OH225799   4.507   4.428  18.918 -0.1789 -0.4040 -0.1730
  535TIP3    H125800   4.443   4.498  18.910 -0.0603 -0.2565  0.1470
  535TIP3    H225801   4.457   4.348  18.904 -0.6564 -0.3629  1.1065
  536TIP3   OH225802   6.096   5.072  18.028 -0.0092 -0.0916 -0.1843
  536TIP3    H125803   6.066   5.091  17.939  1.2961 -0.3807 -0.7050
  536TIP3    H225804   6.089   4.977  18.037  4.0010 -0.7392 -1.6549
  537TIP3   OH225805   6.750   2.717  18.960 -0.5586 -0.1662 -0.1252
  537TIP3    H125806   6.764   2.626  18.987 -0.7382 -0.1313  0.0907
  537TIP3    H225807   6.813   2.767  19.013 -1.4399 -0.0132  0.8159
  538TIP3   OH225808   0.856   3.821  19.503 -0.5219  0.3810  0.1582
  538TIP3    H125809   0.783   3.814  19.565  1.6210 -1.1444  2.7341
  538TIP3    H225810   0.893   3.908  19.518 -0.9121  0.6037 -0.1349
  539TIP3   OH225811   2.549   0.370  17.301  0.3955  0.0628 -0.4903
  539TIP3    H125812   2.566   0.284  17.264  0.2357 -1.1041  1.9518
  539TIP3    H225813   2.623   0.424  17.273  2.6289 -1.9618  1.0622
  540TIP3   OH225814   7.366   5.701  18.561 -0.2189  0.1207  0.0421
  540TIP3    H125815   7.409   5.723  18.643  0.7964  0.3497 -0.5293
  540TIP3    H225816   7.329   5.614  18.575  0.9884 -0.3659  0.3576
  541TIP3   OH225817   7.394   4.201  17.038  0.6824 -0.2972  0.3696
  541TIP3    H125818   7.330   4.162  16.978  1.0373  0.1119 -0.2789
  541TIP3    H225819   7.478   4.165  17.009  0.8030 -0.4606  0.9174
  542TIP3   OH225820   1.012   4.491  17.435  0.1105  0.1615  0.2504
  542TIP3    H125821   0.973   4.460  17.354  1.3017 -2.4436  0.5598
  542TIP3    H225822   0.968   4.573  17.454 -0.9545  0.2849 -2.4405
  543TIP3   OH225823   4.099   3.359  18.885 -0.3305  0.5575  0.3261
  543TIP3    H125824   4.113   3.392  18.796 -1.9652  0.8285  0.1465
  543TIP3    H225825   4.075   3.267  18.873  1.0197  0.1440  0.6167
  544TIP3   OH225826   2.377   0.573  18.101  0.3025 -0.1078  0.4057
  544TIP3    H125827   2.357   0.613  18.185  1.3076  0.8935  0.1807
  544TIP3    H225828   2.423   0.640  18.052  1.2459 -1.2438 -0.3216
  545TIP3   OH225829   0.919   6.874  17.735 -0.2434 -0.2379  0.3701
  545TIP3    H125830   0.984   6.902  17.799 -0.0899 -0.7687  0.4583
  545TIP3    H225831   0.936   6.780  17.724  0.5765  0.0617 -1.4073
  546TIP3   OH225832   0.208   6.075  18.133 -0.2681  0.1413  0.0808
  546TIP3    H125833   0.181   6.019  18.060  0.9368  0.5805 -0.7454
  546TIP3    H225834   0.188   6.024  18.212  0.0023 -1.0981 -0.6272
  547TIP3   OH225835   4.945   5.672  18.779  0.2157  0.4162 -0.1182
  547TIP3    H125836   4.953   5.758  18.821 -1.1328  1.0159 -1.0217
  547TIP3    H225837   4.876   5.628  18.828 -0.8074  0.8125 -1.1797
  548TIP3   OH225838   4.469   1.407  19.328 -0.4693 -0.2544  0.8278
  548TIP3    H125839   4.550   1.377  19.371 -1.3509 -3.2628  0.6006
  548TIP3    H225840   4.399   1.378  19.385 -1.5280 -1.1615 -0.8433
  549TIP3   OH225841   4.282   1.148  17.031  0.4250 -0.0795  0.7498
  549TIP3    H125842   4.304   1.072  16.978 -1.5002 -1.2646  1.5380
  549TIP3    H225843   4.345   1.216  17.004  0.5277 -1.1085 -1.8377
  550TIP3   OH225844   2.162   2.512  19.456 -0.0957  0.0761 -0.0109
  550TIP3    H125845   2.198   2.429  19.487 -0.6385 -0.2941 -0.3506
  550TIP3    H225846   2.071   2.511  19.486 -0.0469  0.6587  0.1792
  551TIP3   OH225847   5.877   6.038  19.038 -0.2571 -0.4327 -0.2207
  551TIP3    H125848   5.850   5.953  19.003 -0.7477  0.0240 -0.9877
  551TIP3    H225849   5.839   6.042  19.125 -0.7473 -0.7499 -0.4165
  552TIP3   OH225850   4.927   6.803  19.002  0.3350  0.1778  0.0817
  552TIP3    H125851   4.862   6.864  18.965 -0.4426  0.9305  2.4750
  552TIP3    H225852   4.885   6.717  18.995 -0.4687  0.5136  0.5856
  553TIP3   OH225853   7.339   3.060  18.679  0.2237 -0.3235  0.2886
  553TIP3    H125854   7.411   3.080  18.738  0.4192  1.7381 -0.5492
  553TIP3    H225855   7.262   3.099  18.721  0.6997  3.1839 -1.6329
  554TIP3   OH225856   2.141   5.410  17.762  0.6909 -0.3659 -0.4430
  554TIP3    H125857   2.227   5.447  17.782  1.1417 -1.6552  0.0872
  554TIP3    H225858   2.079   5.475  17.795  1.4448 -0.8413  2.0634
  555TIP3   OH225859   2.556   0.717  17.948 -0.0257  0.6638 -0.2893
  555TIP3    H125860   2.517   0.798  17.916  0.4485  0.5670 -1.1499
  555TIP3    H225861   2.615   0.745  18.018 -0.1242  1.0211 -0.3470
  556TIP3   OH225862   2.210   5.664  17.403 -0.3107  0.1796 -0.0121
  556TIP3    H125863   2.260   5.644  17.482  0.2098 -0.0959 -0.4038
  556TIP3    H225864   2.269   5.718  17.350 -0.8923  0.9019  0.0664
  557TIP3   OH225865   1.770   7.066  19.141  0.2983 -0.4297  0.1709
  557TIP3    H125866   1.787   7.111  19.059 -0.6209  1.8658  1.1610
  557TIP3    H225867   1.822   6.986  19.135  1.6914  0.5293 -1.8727
  558TIP3   OH225868   7.571   0.286  17.743 -0.4688 -0.6273 -0.2129
  558TIP3    H125869   7.613   0.289  17.657  1.3737 -0.8546  0.6210
  558TIP3    H225870   7.581   0.375  17.777 -0.4253 -0.7485  0.0944
  559TIP3   OH225871   4.558   0.376  19.120 -0.0505 -0.1914 -0.1972
  559TIP3    H125872   4.495   0.311  19.150  1.9765 -1.9377  0.5535
  559TIP3    H225873   4.552   0.372  19.024 -1.1221 -0.2449 -0.1418
  560TIP3   OH225874   6.525   0.989  19.147 -0.2591 -0.3201  0.0086
  560TIP3    H125875   6.532   0.908  19.198  0.5805 -0.0802  0.2870
  560TIP3    H225876   6.527   0.960  19.056 -4.0520 -0.9874 -0.0599
  561TIP3   OH225877   5.149   6.717  18.278  0.1390  0.5827 -0.1976
  561TIP3    H125878   5.075   6.708  18.337  2.3213 -0.1977  2.5979
  561TIP3    H225879   5.136   6.803  18.236 -1.8223  0.8662  0.8935
  562TIP3   OH225880   4.124   1.032  18.952 -0.8065 -0.1241  0.0455
  562TIP3    H125881   4.034   1.025  18.921 -0.1656  0.1834 -2.0637
  562TIP3    H225882   4.127   1.115  18.999 -1.5945 -0.0700  0.0092
  563TIP3   OH225883   6.987   4.933  18.421 -0.2604 -0.2934  0.1669
  563TIP3    H125884   7.082   4.942  18.432 -0.0432  0.1114 -1.6463
  563TIP3    H225885   6.970   4.841  18.439  0.5728 -0.5002 -0.0410
  564TIP3   OH225886   4.835   7.066  18.275  0.2455 -0.0127  0.0236
  564TIP3    H125887   4.805   7.005  18.208  0.3110 -0.4235  0.3627
  564TIP3    H225888   4.844   7.150  18.229 -0.2901 -0.1492 -0.3439
  565TIP3   OH225889   6.682   7.555  18.263 -0.0635 -0.2125 -0.1939
  565TIP3    H125890   6.649   7.469  18.289  0.0420 -0.8913 -2.1009
  565TIP3    H225891   6.634   7.617  18.317 -0.6398 -1.4394  0.7507
  566TIP3   OH225892   3.137   7.497  18.926  0.2190  0.0719 -0.4434
  566TIP3    H125893   3.042   7.492  18.931  0.1981 -0.3037 -1.1607
  566TIP3    H225894   3.160   7.447  18.848  1.0622 -0.5176  0.1611
  567TIP3   OH225895   5.605   3.671  17.032 -0.3723  0.0396 -0.4839
  567TIP3    H125896   5.640   3.687  16.944  0.0105  0.8826 -0.1934
  567TIP3    H225897   5.613   3.756  17.076  0.2117 -0.5673  0.6208
  568TIP3   OH225898   6.893   4.129  19.162 -0.0736 -0.0082  0.1218
  568TIP3    H125899   6.830   4.087  19.104 -1.6664  3.0864 -0.6542
  568TIP3    H225900   6.844   4.146  19.242  0.7419 -0.2712  0.6896
  569TIP3   OH225901   7.256   3.474  18.488  0.1948  0.3786 -0.6152
  569TIP3    H125902   7.274   3.432  18.572  0.5973 -0.9610 -1.3396
  569TIP3    H225903   7.161   3.489  18.488 -0.3624 -2.5587 -1.1747
  570TIP3   OH225904   1.034   1.827  18.479  0.5212  0.0126 -0.6835
  570TIP3    H125905   1.093   1.836  18.404  0.5808  1.2082 -0.5054
  570TIP3    H225906   0.970   1.898  18.467  1.0349  0.7685  0.8459
  571TIP3   OH225907   1.398   3.871  17.771  0.0161  0.5065 -0.7888
  571TIP3    H125908   1.439   3.804  17.825  0.9374 -1.0021 -3.2205
  571TIP3    H225909   1.306   3.869  17.795 -0.2447 -2.6135 -1.6838
  572TIP3   OH225910   0.469   6.278  19.243 -0.6793 -0.0038 -0.0439
  572TIP3    H125911   0.461   6.284  19.148 -0.4026 -0.1977 -0.0805
  572TIP3    H225912   0.433   6.360  19.276 -1.6889 -0.3442 -0.2598
  573TIP3   OH225913   5.084   6.015  18.663 -0.1141  0.5140  0.2890
  573TIP3    H125914   5.030   6.031  18.586  0.1636  1.4106  0.2763
  573TIP3    H225915   5.170   5.993  18.628 -0.8350 -2.7980  0.2272
  574TIP3   OH225916   6.971   5.917  17.974 -0.0558  0.1420 -0.1105
  574TIP3    H125917   7.022   5.960  18.042 -0.1701  1.3792 -0.7883
  574TIP3    H225918   6.888   5.895  18.016  0.6244 -0.9851  0.7134
  575TIP3   OH225919   7.360   7.454  17.635  0.3910 -0.0589  0.5226
  575TIP3    H125920   7.323   7.503  17.709 -0.2837  0.4136 -0.1070
  575TIP3    H225921   7.373   7.520  17.567 -1.9150 -0.9171 -0.8756
  576TIP3   OH225922   2.472   3.307  17.210 -0.0876  0.3602  0.0854
  576TIP3    H125923   2.463   3.350  17.125 -3.8153  0.2361  0.2783
  576TIP3    H225924   2.455   3.215  17.192  0.7204  0.0600  0.7745
  577TIP3   OH225925   3.926   2.165  18.898 -0.2173  0.4247  0.3007
  577TIP3    H125926   3.914   2.225  18.972  1.7933 -0.3025  1.2811
  577TIP3    H225927   3.844   2.116  18.894 -0.5744  0.8571  1.7117
  578TIP3   OH225928   3.260   3.716  18.229 -0.2170 -0.1370 -0.6642
  578TIP3    H125929   3.217   3.678  18.152 -0.9443 -0.4104 -0.1359
  578TIP3    H225930   3.335   3.659  18.245 -0.2041 -0.2229 -1.0214
  579TIP3   OH225931   2.486   4.109  18.464  0.0378 -0.2984 -0.0841
  579TIP3    H125932   2.553   4.161  18.419  0.6368  0.9418  2.0583
  579TIP3    H225933   2.461   4.163  18.540 -0.4456 -2.4824  1.4134
  580TIP3   OH225934   3.410   0.248  17.447 -0.2907  0.1689 -0.4049
  580TIP3    H125935   3.404   0.331  17.399 -2.5487  0.5587  0.4005
  580TIP3    H225936   3.320   0.229  17.473  0.6798 -0.1894  3.3264
  581TIP3   OH225937   6.343   6.878  17.328 -0.5770  0.1133 -0.1181
  581TIP3    H125938   6.394   6.830  17.394  0.9834 -0.2785 -1.5416
  581TIP3    H225939   6.372   6.842  17.244 -2.2238  0.8747 -1.0630
  582TIP3   OH225940   5.198   5.512  16.902 -0.0743  0.3718 -0.0096
  582TIP3    H125941   5.128   5.565  16.864 -0.3085 -1.4254 -2.3444
  582TIP3    H225942   5.276   5.534  16.850 -0.0890 -1.1383 -0.7569
  583TIP3   OH225943   1.570   0.965  19.189  0.1761  0.1180 -0.2525
  583TIP3    H125944   1.534   0.999  19.271  0.5742  1.4648 -0.6116
  583TIP3    H225945   1.526   1.016  19.121 -1.1223 -1.8796 -0.9711
  584TIP3   OH225946   2.854   5.020  19.163  0.0248  0.3214  0.1875
  584TIP3    H125947   2.763   5.015  19.135 -0.7786  1.5867  2.4149
  584TIP3    H225948   2.886   5.103  19.127 -0.0042  0.3766  0.2907
  585TIP3   OH225949   3.365   1.830  19.235  0.1766 -0.2637 -0.5444
  585TIP3    H125950   3.447   1.877  19.248  0.2359 -0.2929 -0.8157
  585TIP3    H225951   3.370   1.755  19.294 -0.8950  1.2855  1.6703
  586TIP3   OH225952   6.131   0.062  16.847  0.2872  0.1585 -0.2591
  586TIP3    H125953   6.072  -0.009  16.870  1.6299 -0.9500 -0.1009
  586TIP3    H225954   6.141   0.056  16.752 -0.1638  0.6157 -0.3434
  587TIP3   OH225955   4.408   2.360  19.488  0.1088 -0.1083  0.0485
  587TIP3    H125956   4.400   2.396  19.576 -0.6571 -0.3953  0.1035
  587TIP3    H225957   4.334   2.397  19.440  0.1033 -0.5279 -0.2748
  588TIP3   OH225958   1.458   6.338  17.821 -0.5987 -0.4029 -0.5965
  588TIP3    H125959   1.376   6.386  17.812 -0.8014 -0.5348  0.3919
  588TIP3    H225960   1.522   6.404  17.844 -0.1363 -0.1041 -2.5727
  589TIP3   OH225961   4.883   4.053  19.344  0.0863  0.3637  0.2539
  589TIP3    H125962   4.956   4.107  19.314 -0.4917  1.1407  0.2405
  589TIP3    H225963   4.898   4.043  19.439  1.2004 -1.0195 -0.0276
  590TIP3   OH225964   1.502   1.982  19.132  0.2884  0.0721  0.1112
  590TIP3    H125965   1.477   2.071  19.109 -1.3118 -0.1573  0.8112
  590TIP3    H225966   1.472   1.928  19.059  0.3628 -0.0020  0.1355
  591TIP3   OH225967   5.709   5.701  18.568  0.2596  0.3201  0.2106
  591TIP3    H125968   5.766   5.630  18.540  1.1341  1.1636 -0.1944
  591TIP3    H225969   5.640   5.705  18.502  0.3796  0.0508  0.0720
  592TIP3   OH225970   3.592   6.682  18.749 -0.0316 -1.0259 -0.5180
  592TIP3    H125971   3.517   6.742  18.756 -0.3915 -1.4817 -0.4325
  592TIP3    H225972   3.603   6.669  18.655  1.5433  1.0195 -0.6938
  593TIP3   OH225973   6.560   6.937  19.382  0.2582 -0.3590  0.1152
  593TIP3    H125974   6.592   6.893  19.303  0.6386  2.5898 -1.5185
  593TIP3    H225975   6.633   6.993  19.409 -0.7149  0.4606  1.1289
  594TIP3   OH225976   1.683   0.136  19.188  0.0835  0.0552 -0.4169
  594TIP3    H125977   1.760   0.085  19.165 -0.1998 -0.8669  0.6182
  594TIP3    H225978   1.609   0.086  19.154 -0.2224 -0.4579  0.9359
  595TIP3   OH225979   4.191   6.274  17.857 -0.0679  0.4788 -0.1607
  595TIP3    H125980   4.159   6.329  17.929 -1.1897  0.9988 -1.0168
  595TIP3    H225981   4.167   6.323  17.778  1.7215  0.2305 -0.8918
  596TIP3   OH225982   0.185   2.369  17.945  0.0025 -0.8795  0.0466
  596TIP3    H125983   0.149   2.447  17.901  2.9621  1.0087  0.6658
  596TIP3    H225984   0.111   2.332  17.993 -1.6570  1.2573 -0.6863
  597TIP3   OH225985   1.183   4.168  19.636  0.5949  0.0054 -0.0121
  597TIP3    H125986   1.158   4.251  19.595 -0.3296  0.9519  2.3314
  597TIP3    H225987   1.162   4.179  19.728 -1.3366 -3.5010  0.1563
  598TIP3   OH225988   0.852   5.531  17.899 -0.5615  0.8855 -0.1539
  598TIP3    H125989   0.915   5.583  17.849  0.6838 -0.5438 -0.1400
  598TIP3    H225990   0.805   5.481  17.832 -0.5684  0.7608 -0.0569
  599TIP3   OH225991   1.027   2.230  19.213 -0.0544  0.5105  0.0410
  599TIP3    H125992   0.938   2.202  19.233  0.2568  1.0730  2.5645
  599TIP3    H225993   1.051   2.180  19.135 -1.5784 -1.7897  0.9313
  600TIP3   OH225994   0.369   0.427  19.507 -0.0820  0.3758 -0.5621
  600TIP3    H125995   0.362   0.363  19.578 -0.3496  0.8740 -0.1304
  600TIP3    H225996   0.280   0.434  19.473  0.1552 -0.3009 -1.3463
  601TIP3   OH225997   2.610   6.587  17.800  0.1891  0.2772 -0.3035
  601TIP3    H125998   2.541   6.600  17.735  1.4793  3.9100 -1.2147
  601TIP3    H225999   2.686   6.559  17.749  0.4846  0.4599  0.0321
  602TIP3   OH226000   3.824   6.874  18.806  0.5197  0.1849 -0.4551
  602TIP3    H126001   3.829   6.949  18.747  1.2877 -0.9212 -1.8358
  602TIP3    H226002   3.739   6.834  18.787  0.8180 -0.2415 -0.9250
  603TIP3   OH226003   3.161   4.471  18.040  0.5561 -0.4831  0.6155
  603TIP3    H126004   3.221   4.405  18.076  1.6455 -0.5807 -1.2324
  603TIP3    H226005   3.118   4.427  17.967  1.3715  0.8226 -0.7136
  604TIP3   OH226006   2.406   2.900  17.465  0.3657 -0.1163  0.3109
  604TIP3    H126007   2.372   2.867  17.549 -2.6153  3.0476  0.5732
  604TIP3    H226008   2.489   2.942  17.488 -0.0237  0.0183  1.5530
  605TIP3   OH226009   4.556   4.872  18.359  0.0231 -0.3937  0.5496
  605TIP3    H126010   4.482   4.931  18.368 -0.0754  0.1993 -2.9459
  605TIP3    H226011   4.633   4.928  18.371 -0.0923 -0.0789 -0.1326
  606TIP3   OH226012   4.546   0.038  17.969 -0.3829  0.2288 -0.5288
  606TIP3    H126013   4.574   0.040  17.878 -2.7217 -2.1234 -1.4155
  606TIP3    H226014   4.465   0.090  17.971 -1.1336 -0.9147 -0.1580
  607TIP3   OH226015   1.945   3.967  19.518  0.1256  0.0566  0.4792
  607TIP3    H126016   1.982   3.978  19.430 -0.5647 -0.5420  0.0980
  607TIP3    H226017   1.919   4.055  19.544 -1.3734  0.0175 -0.7137
  608TIP3   OH226018   0.822   3.639  17.984  0.3996  0.6648  0.0005
  608TIP3    H126019   0.858   3.708  18.040 -1.3727  1.8233 -0.2081
  608TIP3    H226020   0.739   3.674  17.953 -1.7529 -2.3946  1.7130
  609TIP3   OH226021   0.565   5.652  18.126  0.3001  0.3391 -0.1606
  609TIP3    H126022   0.514   5.688  18.199 -0.3582  0.1050 -0.5052
  609TIP3    H226023   0.653   5.689  18.139  0.0770  0.6633  0.4931
  610TIP3   OH226024   5.658   0.429  19.120 -0.2533  0.3724  0.3303
  610TIP3    H126025   5.686   0.434  19.029 -0.8824 -1.5521 -0.0131
  610TIP3    H226026   5.565   0.451  19.119 -0.1229  0.9669  0.6184
  611TIP3   OH226027   7.114   6.100  16.862 -0.5050  0.2217 -0.4665
  611TIP3    H126028   7.102   6.022  16.917  1.2204 -0.9700 -1.6562
  611TIP3    H226029   7.144   6.065  16.778  1.1180  2.2233 -0.7825
  612TIP3   OH226030   3.127   6.671  18.737 -0.2391 -0.2513  0.0153
  612TIP3    H126031   3.201   6.711  18.691  1.0017  1.1245  2.9476
  612TIP3    H226032   3.081   6.746  18.776 -0.6342 -1.3940  1.8074
  613TIP3   OH226033   2.448   7.516  18.368  0.0272  0.0982 -0.2347
  613TIP3    H126034   2.378   7.548  18.311 -0.9739  1.0695  1.4455
  613TIP3    H226035   2.414   7.433  18.402  0.3765 -0.1928 -0.5792
  614TIP3   OH226036   7.357   3.765  17.566 -0.1125 -0.2422  0.2455
  614TIP3    H126037   7.267   3.791  17.583 -0.0797 -0.1653  0.2988
  614TIP3    H226038   7.403   3.847  17.550  0.0209 -0.2546  0.5620
  615TIP3   OH226039   2.186   2.991  16.613 -0.2921 -0.4059  0.2427
  615TIP3    H126040   2.190   3.072  16.562  1.8255 -1.0045 -0.6428
  615TIP3    H226041   2.121   2.938  16.567  0.5708 -0.3864 -1.0507
  616TIP3   OH226042   7.131   2.292  17.820  0.0828  0.2311  0.4778
  616TIP3    H126043   7.069   2.334  17.761  0.7613  0.8866  0.2052
  616TIP3    H226044   7.107   2.200  17.820 -0.0670  0.2611 -0.6473
  617TIP3   OH226045   6.892   1.373  16.825  0.3365 -0.1479 -0.1705
  617TIP3    H126046   6.970   1.426  16.839  0.6668 -1.0618  1.6477
  617TIP3    H226047   6.830   1.433  16.783  0.8823  1.5330  1.3377
  618TIP3   OH226048   6.684   3.262  18.651  0.1404 -0.3409  0.1549
  618TIP3    H126049   6.722   3.275  18.738 -0.6262  1.6074  0.2368
  618TIP3    H226050   6.675   3.350  18.615 -2.3750 -0.8456 -0.6616
  619TIP3   OH226051   2.310   0.163  17.120 -0.1466  0.3184  0.4248
  619TIP3    H126052   2.372   0.097  17.149  0.6393  0.5260 -0.6989
  619TIP3    H226053   2.234   0.113  17.090  0.0980 -0.0321  0.3862
  620TIP3   OH226054   0.494   5.449  19.373 -0.1029 -0.2083  0.5457
  620TIP3    H126055   0.563   5.398  19.417  1.1712  1.1319  0.1871
  620TIP3    H226056   0.449   5.385  19.318  1.1090 -1.0641  0.5017
  621TIP3   OH226057   2.218   3.224  19.576  0.4406  0.0389  0.1198
  621TIP3    H126058   2.199   3.189  19.663  2.1186 -0.4855  0.3285
  621TIP3    H226059   2.165   3.303  19.569 -0.6003 -0.5431  1.1533
  622TIP3   OH226060   1.466   0.823  18.356  0.0915  1.0047 -0.3542
  622TIP3    H126061   1.443   0.864  18.273 -0.1725  0.2855 -0.6439
  622TIP3    H226062   1.510   0.741  18.331 -1.2802  0.0616  0.1870
  623TIP3   OH226063   0.389   5.004  18.670  0.4756  0.4185 -0.2725
  623TIP3    H126064   0.366   5.062  18.597 -0.5240  0.3171 -0.0463
  623TIP3    H226065   0.373   5.056  18.748  1.5000  0.5106 -0.1050
  624TIP3   OH226066   1.313   6.638  16.798  0.4853 -0.0596 -0.3598
  624TIP3    H126067   1.343   6.631  16.708  1.0107  2.0742 -0.3895
  624TIP3    H226068   1.338   6.726  16.826 -2.0051  0.3104  1.0069
  625TIP3   OH226069   3.196   3.862  17.400  0.4571 -0.0010  0.5551
  625TIP3    H126070   3.154   3.825  17.322 -2.3574  2.9560  0.4471
  625TIP3    H226071   3.140   3.834  17.473 -0.2252  1.7772  0.7552
  626TIP3   OH226072   0.380   0.774  18.316  0.1225 -0.1572  0.3603
  626TIP3    H126073   0.338   0.689  18.320 -0.5463  0.1904  0.8596
  626TIP3    H226074   0.468   0.759  18.349 -0.2155 -0.5162  1.1189
  627TIP3   OH226075   1.133   7.399  18.225  0.1642 -0.3802  0.2318
  627TIP3    H126076   1.159   7.309  18.205  1.6626 -0.5032  2.3523
  627TIP3    H226077   1.212   7.438  18.263 -1.5196  0.6159  2.9764
  628TIP3   OH226078   6.001   0.497  17.180 -0.1604 -0.5351 -0.6739
  628TIP3    H126079   6.095   0.515  17.181 -0.0715 -0.7522 -2.1639
  628TIP3    H226080   5.986   0.444  17.258  0.9156 -0.3197 -0.2941
  629TIP3   OH226081   2.225   6.661  17.119  0.4255  0.1476  0.5523
  629TIP3    H126082   2.181   6.700  17.044 -1.7641 -0.9741  1.1604
  629TIP3    H226083   2.168   6.682  17.194  0.2827 -2.2722  1.2155
  630TIP3   OH226084   6.567   4.791  18.248 -0.1987 -0.3667  0.5797
  630TIP3    H126085   6.499   4.855  18.226  0.6619  0.3856  0.0508
  630TIP3    H226086   6.631   4.798  18.178  0.5647 -0.8776  1.2063
  631TIP3   OH226087   6.377   5.585  17.027  0.1857  0.0917 -0.1363
  631TIP3    H126088   6.413   5.673  17.043  0.3823 -0.0649  0.3065
  631TIP3    H226089   6.398   5.567  16.935 -1.5356  1.2754 -0.8126
  632TIP3   OH226090   5.424   0.125  18.921 -0.0288  0.0525  0.3171
  632TIP3    H126091   5.403   0.033  18.939 -1.3921  0.1181 -0.7590
  632TIP3    H226092   5.394   0.172  18.998  0.4136 -0.3565  0.7514
  633TIP3   OH226093   2.771   1.051  18.820  0.4300  0.4641 -0.0568
  633TIP3    H126094   2.799   0.963  18.794  0.2847  0.6030 -0.6780
  633TIP3    H226095   2.834   1.110  18.779  0.0036  0.7013 -0.3782
  634TIP3   OH226096   1.986   0.867  18.582  0.1524 -0.5483  0.0383
  634TIP3    H126097   2.002   0.829  18.668  0.8797 -0.4854 -0.0663
  634TIP3    H226098   2.038   0.814  18.522  1.7751  1.0373 -0.0191
  635TIP3   OH226099   7.323   4.579  17.914 -0.2012 -0.4340 -0.1564
  635TIP3    H126100   7.334   4.513  17.983  0.6685  1.2297  1.3692
  635TIP3    H226101   7.232   4.571  17.888 -0.5770 -1.0563  1.2604
  636TIP3   OH226102   3.092   4.804  18.912 -0.3476 -0.0911 -0.0301
  636TIP3    H126103   3.048   4.879  18.950  0.5204  1.3530 -1.6986
  636TIP3    H226104   3.121   4.835  18.826  1.9159 -1.6478  0.0899
  637TIP3   OH226105   5.189   2.520  16.887  0.5985 -0.3860  0.3364
  637TIP3    H126106   5.141   2.446  16.925  1.8867 -1.8510 -0.7491
  637TIP3    H226107   5.136   2.546  16.811  0.8659 -1.1673 -0.1268
  638TIP3   OH226108   6.753   3.878  19.208 -0.2227  0.2660 -0.0065
  638TIP3    H126109   6.682   3.837  19.257  0.5352 -0.3260  0.6303
  638TIP3    H226110   6.788   3.944  19.267  0.0826  0.2075 -0.1210
  639TIP3   OH226111   2.203   3.636  18.079  0.0722  0.2306 -0.5877
  639TIP3    H126112   2.219   3.719  18.034 -0.2850  0.1682 -0.8359
  639TIP3    H226113   2.125   3.652  18.131 -1.6937 -0.7409 -2.7679
  640TIP3   OH226114   4.861   2.680  18.369  0.3663 -0.2483  0.3573
  640TIP3    H126115   4.812   2.713  18.293  1.1360 -0.8840 -0.4324
  640TIP3    H226116   4.900   2.758  18.407  2.5561 -0.1894 -1.7670
  641TIP3   OH226117   1.196   0.230  18.619  0.0521  0.3337 -0.5483
  641TIP3    H126118   1.132   0.285  18.573 -1.4895 -0.5857  0.4315
  641TIP3    H226119   1.158   0.214  18.705  2.1757  0.7375  0.5446
  642TIP3   OH226120   1.955   2.408  17.739 -0.1402  0.3188 -0.1985
  642TIP3    H126121   1.964   2.474  17.671  1.8731  1.1371  0.7624
  642TIP3    H226122   2.019   2.434  17.806 -0.8829 -1.3592  1.2424
  643TIP3   OH226123   5.704   2.879  18.231 -0.1041 -0.1148 -0.4580
  643TIP3    H126124   5.643   2.948  18.207  0.5578  0.7110  0.1404
  643TIP3    H226125   5.789   2.911  18.202  0.3005 -0.4058  0.3677
  644TIP3   OH226126   5.923   0.991  19.225  0.1400  0.0887  0.0582
  644TIP3    H126127   5.901   0.998  19.318  1.4048  0.5734  0.3504
  644TIP3    H226128   5.901   0.901  19.202  1.4798 -0.6125  1.3231
  645TIP3   OH226129   1.972   2.242  18.852 -0.4351 -0.1659 -0.1972
  645TIP3    H126130   2.015   2.295  18.784 -1.8660  1.8659  0.3888
  645TIP3    H226131   1.998   2.282  18.934 -1.4133 -0.4727  0.2785
  646TIP3   OH226132   5.189   4.980  18.418  0.0531  0.3308  0.1328
  646TIP3    H126133   5.169   4.898  18.463  0.2908  0.4802  0.5122
  646TIP3    H226134   5.121   4.988  18.351 -0.0821 -0.0789  0.2200
  647TIP3   OH226135   4.314   7.569  18.809  0.0841  0.2981  0.2906
  647TIP3    H126136   4.334   7.531  18.723  0.8027 -0.7648  0.8954
  647TIP3    H226137   4.344   7.660  18.803 -1.0856  0.6235 -0.9940
  648TIP3   OH226138   6.114   0.427  18.231  0.2509  0.3698  0.3783
  648TIP3    H126139   6.123   0.466  18.318 -0.1117  2.3015 -0.4049
  648TIP3    H226140   6.188   0.367  18.224  0.1244 -0.0440  2.1224
  649TIP3   OH226141   2.653   5.876  18.424 -0.3469 -0.1451  0.1433
  649TIP3    H126142   2.678   5.964  18.396  1.7897 -0.2200  1.5484
  649TIP3    H226143   2.716   5.818  18.380  0.1571 -0.6682  1.4999
  650TIP3   OH226144   3.291   4.311  17.092 -0.2492  0.3063  0.3945
  650TIP3    H126145   3.356   4.288  17.025  0.2153  3.3322 -0.3482
  650TIP3    H226146   3.207   4.306  17.046 -0.2709 -0.7027  0.5204
  651TIP3   OH226147   4.140   3.512  18.093 -0.3835  0.2682 -0.0845
  651TIP3    H126148   4.105   3.561  18.019 -0.9481  1.6215  1.0217
  651TIP3    H226149   4.235   3.522  18.085 -0.4842  1.6545  0.1551
  652TIP3   OH226150   7.627   6.810  17.603  0.3135  0.1264  0.6477
  652TIP3    H126151   7.533   6.809  17.586  0.5002 -1.4034 -0.6095
  652TIP3    H226152   7.636   6.773  17.690 -0.1687 -2.1191 -0.1870
  653TIP3   OH226153   3.845   7.609  18.698  0.0754  0.2506 -0.4049
  653TIP3    H126154   3.915   7.672  18.714 -0.5463  1.1302 -1.0241
  653TIP3    H226155   3.791   7.651  18.631 -1.5361 -0.0226  0.6844
  654TIP3   OH226156   6.001   6.125  19.410 -0.9437  0.1806  0.9088
  654TIP3    H126157   6.004   6.030  19.405 -0.5602  0.2596 -1.5629
  654TIP3    H226158   6.089   6.154  19.387 -1.0347  1.1530  1.6827
  655TIP3   OH226159   3.325   5.510  18.676 -0.7658  0.1821 -0.2513
  655TIP3    H126160   3.295   5.550  18.757 -1.3020  0.4631 -0.5804
  655TIP3    H226161   3.305   5.417  18.686  0.5857 -0.0546  0.5608
  656TIP3   OH226162   2.130   4.062  16.975  0.0160  0.5138 -0.1234
  656TIP3    H126163   2.142   3.998  17.046  0.4746  0.7113 -0.0195
  656TIP3    H226164   2.042   4.044  16.941  0.3693 -0.5621 -0.4878
  657TIP3   OH226165   2.136   6.895  18.580  0.0785  0.2613 -0.0864
  657TIP3    H126166   2.053   6.929  18.548  0.5288  0.2611 -1.3111
  657TIP3    H226167   2.202   6.953  18.541  0.6476  0.3624  1.0034
  658TIP3   OH226168   0.396   2.628  19.473 -0.0996  0.3750 -0.1948
  658TIP3    H126169   0.360   2.540  19.469  1.6029 -0.3894  0.2725
  658TIP3    H226170   0.488   2.615  19.496  0.6098  2.1792 -1.7549
  659TIP3   OH226171   4.025   3.720  18.521 -0.5484  0.2041 -0.4580
  659TIP3    H126172   3.934   3.704  18.496 -0.9240  0.3537  0.7281
  659TIP3    H226173   4.076   3.660  18.467 -1.3114  0.4062 -1.4280
  660TIP3   OH226174   6.575   6.380  17.731  0.0044  0.0018  0.2315
  660TIP3    H126175   6.593   6.474  17.731  0.0761 -0.0004 -1.4067
  660TIP3    H226176   6.519   6.366  17.655 -0.5451 -1.2010  0.8306
  661TIP3   OH226177   5.350   4.647  19.176  0.2794 -0.1020 -0.1994
  661TIP3    H126178   5.301   4.667  19.256  1.6172  1.1481  0.3475
  661TIP3    H226179   5.391   4.563  19.194  0.4691  0.1096  0.3997
  662TIP3   OH226180   6.235   1.593  17.498 -0.0187  0.9067  0.3569
  662TIP3    H126181   6.198   1.645  17.426  3.1679  0.4034 -1.8348
  662TIP3    H226182   6.277   1.658  17.555  1.6188  1.0438 -0.9277
  663TIP3   OH226183   7.435   4.772  18.118 -0.2699 -0.5162  0.0772
  663TIP3    H126184   7.477   4.752  18.035 -0.7487  2.1322 -0.8882
  663TIP3    H226185   7.343   4.750  18.104  0.0058 -2.2274  0.7326
  664TIP3   OH226186   0.107   3.790  17.099  0.5529  0.0413  0.2406
  664TIP3    H126187   0.037   3.773  17.037  1.6968 -1.4718 -0.7018
  664TIP3    H226188   0.165   3.852  17.054  0.9627 -0.4279  0.1121
  665TIP3   OH226189   2.756   2.184  17.413 -0.3253  0.5744 -0.1177
  665TIP3    H126190   2.807   2.179  17.332 -0.2455 -1.5788  0.0238
  665TIP3    H226191   2.697   2.109  17.409 -1.0788  1.0529  1.3411
  666TIP3   OH226192   3.627   7.246  17.337  0.7739  1.1534  0.0173
  666TIP3    H126193   3.699   7.282  17.388  3.2820 -2.1414 -0.8822
  666TIP3    H226194   3.657   7.252  17.246 -0.9282  1.3069 -0.5750
  667TIP3   OH226195   0.560   0.297  18.510  0.2720 -0.5801 -0.9973
  667TIP3    H126196   0.582   0.349  18.587  0.2929 -1.7277 -0.1954
  667TIP3    H226197   0.468   0.272  18.523 -0.5373  1.2820 -2.6053
  668TIP3   OH226198   4.312   0.265  19.143  0.1028  0.1740  0.0051
  668TIP3    H126199   4.254   0.330  19.183  1.3305  0.2030  1.8487
  668TIP3    H226200   4.271   0.181  19.163  0.2988  0.2301  0.6705
  669TIP3   OH226201   2.611   1.280  18.285 -0.3089 -0.5827  0.2155
  669TIP3    H126202   2.677   1.349  18.280 -1.1723  0.2207 -4.1846
  669TIP3    H226203   2.538   1.319  18.333  0.8403 -0.0879  1.6318
  670TIP3   OH226204   3.193   0.950  17.496 -0.1517 -0.2816  0.2940
  670TIP3    H126205   3.289   0.947  17.494 -0.1691 -0.5128 -0.6841
  670TIP3    H226206   3.169   1.009  17.425 -0.7270  0.3623  1.0025
  671TIP3   OH226207   1.483   1.900  18.643  0.2746 -0.1341 -0.8892
  671TIP3    H126208   1.450   1.875  18.729 -1.4651  1.1747 -1.1060
  671TIP3    H226209   1.552   1.837  18.624 -0.3654 -1.4142  0.7737
  672TIP3   OH226210   3.618   5.826  17.131  0.1931  0.2847 -0.1237
  672TIP3    H126211   3.601   5.838  17.037  0.8517 -0.1409 -0.3030
  672TIP3    H226212   3.598   5.734  17.148  0.2423  0.3163  0.1121
  673TIP3   OH226213   5.762   6.834  17.413  0.4023 -0.2419 -0.2915
  673TIP3    H126214   5.791   6.925  17.411 -1.7986  0.5512  0.5407
  673TIP3    H226215   5.832   6.787  17.457  2.4898  0.6330 -2.4681
  674TIP3   OH226216   1.505   5.089  17.579  0.1073  0.3488 -0.0784
  674TIP3    H126217   1.467   5.049  17.658 -0.5033  2.5982  0.8291
  674TIP3    H226218   1.441   5.069  17.511  0.2186 -0.8973  0.1534
  675TIP3   OH226219   3.224   6.198  19.151  0.0240  0.1322  0.0399
  675TIP3    H126220   3.315   6.192  19.122  0.0166  0.4577 -0.0470
  675TIP3    H226221   3.173   6.163  19.078  0.0092  0.8979 -0.3223
  676TIP3   OH226222   5.150   1.967  18.823 -0.1117 -0.0890 -0.1404
  676TIP3    H126223   5.120   2.032  18.759  0.1495 -1.6203 -1.9052
  676TIP3    H226224   5.159   2.016  18.904 -1.9589  1.6158 -0.8790
  677TIP3   OH226225   0.174   2.274  19.671 -0.2884 -0.2988 -0.4387
  677TIP3    H126226   0.202   2.184  19.657  2.0486  0.3288 -0.3017
  677TIP3    H226227   0.159   2.309  19.583 -0.6316 -0.6412 -0.5194
  678TIP3   OH226228   0.962   5.927  19.044  0.4293 -0.8221 -0.7260
  678TIP3    H126229   0.927   5.907  18.957 -1.5521  1.0508 -0.4436
  678TIP3    H226230   1.017   6.004  19.031 -1.6685  0.8705 -0.0607
  679TIP3   OH226231   5.219   5.831  19.180  0.2462  0.0364 -0.1568
  679TIP3    H126232   5.306   5.871  19.190 -0.3497  1.1259  0.8510
  679TIP3    H226233   5.179   5.879  19.108  0.7812 -1.0824 -1.2519
  680TIP3   OH226234   1.702   3.230  17.958 -0.0047  0.3795  0.2536
  680TIP3    H126235   1.791   3.253  17.986  1.0575 -1.6273 -1.2477
  680TIP3    H226236   1.686   3.144  17.996 -0.6433 -0.0051 -0.8379
  681TIP3   OH226237   2.563   5.665  19.296 -0.0311  0.7953 -0.2727
  681TIP3    H126238   2.567   5.581  19.342 -0.2127  0.4776 -0.8262
  681TIP3    H226239   2.595   5.646  19.208  2.2423  1.8340  0.2818
  682TIP3   OH226240   6.674   4.398  18.331  0.2721  0.1004 -0.6312
  682TIP3    H126241   6.590   4.391  18.284  0.6658 -0.2388 -1.3025
  682TIP3    H226242   6.720   4.317  18.308  0.9182  0.4383 -0.5310
  683TIP3   OH226243   3.910   3.803  19.326 -0.2479 -0.3006  0.7411
  683TIP3    H126244   3.894   3.710  19.339 -0.5217 -0.1517  1.5940
  683TIP3    H226245   3.822   3.842  19.322 -0.1604 -0.2102 -0.7758
  684TIP3   OH226246   1.135   0.499  19.204 -0.7249  0.6740  0.2215
  684TIP3    H126247   1.085   0.475  19.283  1.6013  1.1683  1.9747
  684TIP3    H226248   1.145   0.417  19.157 -2.4112  0.4104  0.2407
  685TIP3   OH226249   2.931   6.221  17.179 -0.4368 -0.4266  0.2364
  685TIP3    H126250   2.849   6.223  17.228 -0.0128  1.9506  0.9862
  685TIP3    H226251   2.987   6.161  17.227 -0.1392  1.6078  2.6074
  686TIP3   OH226252   5.635   1.157  19.381 -0.0414  0.4717 -0.1282
  686TIP3    H126253   5.546   1.121  19.392  0.2350 -1.3731 -2.9557
  686TIP3    H226254   5.621   1.250  19.365 -1.5026  0.2206 -0.5249
  687TIP3   OH226255   2.719   3.245  17.045 -0.3318 -0.0726  0.3553
  687TIP3    H126256   2.710   3.340  17.052 -0.6114 -0.0758  0.0468
  687TIP3    H226257   2.654   3.219  16.980  0.6440 -0.3131 -0.5456
  688TIP3   OH226258   4.356   6.047  19.423 -0.0944  0.6912  0.0778
  688TIP3    H126259   4.445   6.020  19.447 -0.2430  0.3251  0.2227
  688TIP3    H226260   4.367   6.134  19.386  0.3681  0.5151 -0.2086
  689TIP3   OH226261   2.983   6.899  17.580  0.5010 -0.3048  0.2340
  689TIP3    H126262   3.041   6.974  17.568 -0.4798  0.2112 -1.8505
  689TIP3    H226263   3.042   6.824  17.588  1.4798  0.4655  0.4712
  690TIP3   OH226264   7.191   2.760  17.468 -0.1519 -0.2929 -0.1137
  690TIP3    H126265   7.276   2.803  17.459 -0.9050  1.3495  0.2875
  690TIP3    H226266   7.168   2.772  17.560  1.0774 -4.5131  0.9668
  691TIP3   OH226267   2.014   4.987  18.655  0.4096 -0.0651  0.1052
  691TIP3    H126268   1.961   4.914  18.622  2.1586 -0.8760 -1.0659
  691TIP3    H226269   2.027   5.044  18.579  1.8254 -0.2922  0.1530
  692TIP3   OH226270   5.977   0.400  17.468 -0.1419  0.1605  0.3026
  692TIP3    H126271   5.885   0.424  17.477 -0.2919 -0.2910  0.0285
  692TIP3    H226272   6.008   0.391  17.558 -0.7157 -0.9459  0.4167
  693TIP3   OH226273   6.516   1.603  17.255  0.2463  0.3150  0.5696
  693TIP3    H126274   6.504   1.681  17.309  1.3226  0.6250  0.3810
  693TIP3    H226275   6.465   1.620  17.175  1.4964  1.3949 -0.0233
  694TIP3   OH226276   4.584   0.400  18.829 -0.8818  0.0965 -0.3614
  694TIP3    H126277   4.649   0.332  18.845 -3.4339 -2.1835  1.2246
  694TIP3    H226278   4.558   0.387  18.738 -1.2062 -0.9789 -0.1301
  695TIP3   OH226279   6.436   4.454  18.158  0.0236  0.5891  1.0641
  695TIP3    H126280   6.347   4.418  18.166  0.5562 -1.1871 -0.3051
  695TIP3    H226281   6.423   4.542  18.123 -1.2017 -0.0091 -0.1070
  696TIP3   OH226282   4.810   3.657  18.817  0.7244 -0.1174 -0.6185
  696TIP3    H126283   4.778   3.659  18.727 -1.5401 -0.9735  0.0922
  696TIP3    H226284   4.824   3.749  18.839  0.0635  0.2002 -1.4424
  697TIP3   OH226285   3.499   3.920  17.641 -0.1171 -0.0736  0.2772
  697TIP3    H126286   3.573   3.973  17.612  0.0739 -1.4358 -1.9772
  697TIP3    H226287   3.441   3.981  17.687  0.5694  1.8375 -1.2847
  698TIP3   OH226288   5.793   5.453  17.297  0.5100 -0.1228  0.2387
  698TIP3    H126289   5.887   5.466  17.310  0.4187  0.3564  0.4660
  698TIP3    H226290   5.778   5.470  17.204  0.1945  2.8890  0.7296
  699TIP3   OH226291   5.260   6.728  17.230  0.2711  0.2790 -0.1372
  699TIP3    H126292   5.233   6.774  17.310 -0.2016  0.5607 -0.4516
  699TIP3    H226293   5.239   6.636  17.246 -3.5570  0.7630 -1.3714
  700TIP3   OH226294   0.928   3.013  19.444 -0.5135 -0.4111  0.4474
  700TIP3    H126295   0.922   3.106  19.465  0.7479 -0.4270  0.9263
  700TIP3    H226296   1.021   2.997  19.429 -0.9648 -1.1195 -1.9342
  701TIP3   OH226297   6.835   1.660  17.027  0.1444  0.9136  0.2189
  701TIP3    H126298   6.802   1.705  16.948 -0.1084  0.2559 -0.0567
  701TIP3    H226299   6.920   1.701  17.043 -0.3053  1.8641  0.2859
  702TIP3   OH226300   1.074   1.226  18.226 -0.3070  0.3307  0.5983
  702TIP3    H126301   1.039   1.278  18.153 -0.3492  1.0129  1.0903
  702TIP3    H226302   1.117   1.152  18.184 -1.8371 -0.2375 -0.0489
  703TIP3   OH226303   3.821   3.999  17.126 -0.0865 -0.2119 -0.1987
  703TIP3    H126304   3.798   3.949  17.204  0.8670  0.4421  0.5222
  703TIP3    H226305   3.745   4.054  17.109 -0.1349 -0.0482  0.5322
  704TIP3   OH226306   0.659   1.407  16.911  0.2845  0.6541  0.4130
  704TIP3    H126307   0.616   1.347  16.973 -1.0165  0.5785 -0.5175
  704TIP3    H226308   0.721   1.455  16.965 -0.5374  0.3273  1.7220
  705TIP3   OH226309   4.671   3.612  19.424  0.1830 -0.2508 -0.6513
  705TIP3    H126310   4.691   3.631  19.516 -1.4327 -0.5584 -0.1939
  705TIP3    H226311   4.700   3.521  19.412  0.8950 -0.0321 -0.6072
  706TIP3   OH226312   4.592   6.846  17.962 -0.2300  0.4252  0.6342
  706TIP3    H126313   4.515   6.872  17.911  0.0585  1.0482  0.5128
  706TIP3    H226314   4.610   6.921  18.018 -0.4409 -0.1858  1.5422
  707TIP3   OH226315   1.729   3.124  19.284 -0.2387 -0.4218  0.1792
  707TIP3    H126316   1.686   3.195  19.235 -0.4634 -0.2279  0.6431
  707TIP3    H226317   1.818   3.156  19.299 -0.0854 -0.6024 -0.3413
  708TIP3   OH226318   2.700   3.207  19.388  0.1824 -0.4443  0.4672
  708TIP3    H126319   2.641   3.237  19.457 -0.3968 -0.3175 -0.0725
  708TIP3    H226320   2.642   3.179  19.317  0.7261  2.0967 -1.1250
  709TIP3   OH226321   5.990   4.327  18.646  0.3970  0.1882 -0.0616
  709TIP3    H126322   6.070   4.284  18.675  0.5775  0.2500 -0.4538
  709TIP3    H226323   5.967   4.388  18.717 -0.6806 -1.5845  1.1830
  710TIP3   OH226324   7.655   0.651  18.032  0.3759  0.2337  0.0891
  710TIP3    H126325   7.744   0.685  18.034  0.8741 -1.0587  0.7741
  710TIP3    H226326   7.601   0.725  18.060  1.1954  1.1102 -0.6059
  711TIP3   OH226327   6.544   1.848  18.593 -0.1121  0.2949  0.2394
  711TIP3    H126328   6.599   1.788  18.544  0.3720  0.0172  1.1043
  711TIP3    H226329   6.578   1.935  18.571 -0.9606  0.3022 -1.1914
  712TIP3   OH226330   4.738   3.161  17.888 -0.0368 -0.6143 -0.5395
  712TIP3    H126331   4.725   3.235  17.947 -2.1500 -1.3281  0.0260
  712TIP3    H226332   4.785   3.096  17.941 -0.8251 -0.7735 -0.0044
  713TIP3   OH226333   3.076   4.876  17.233 -0.2685 -0.6868 -0.1291
  713TIP3    H126334   3.097   4.854  17.142 -0.6550 -0.4141 -0.2879
  713TIP3    H226335   3.011   4.811  17.260 -0.4586 -0.5211 -0.1845
  714TIP3   OH226336   5.161   2.863  19.282 -0.6295  0.4644  0.2865
  714TIP3    H126337   5.176   2.810  19.205 -3.1783 -0.0114  0.0366
  714TIP3    H226338   5.229   2.836  19.344 -0.5358 -1.4784 -0.6182
  715TIP3   OH226339   3.618   5.735  17.927  0.3021  0.2087 -0.7094
  715TIP3    H126340   3.681   5.664  17.918  0.2839  0.0108  0.6409
  715TIP3    H226341   3.534   5.692  17.936  0.1527  0.4345 -1.0046
  716TIP3   OH226342   6.728   7.315  17.311  0.3698 -0.2403 -0.4286
  716TIP3    H126343   6.750   7.312  17.218  1.3473  0.4951 -0.2382
  716TIP3    H226344   6.639   7.279  17.316 -0.7386  2.0168 -1.9829
  717TIP3   OH226345   6.768   5.580  18.639 -0.0336 -0.2776  0.0219
  717TIP3    H126346   6.855   5.557  18.671  0.7278  0.2228 -1.5991
  717TIP3    H226347   6.719   5.605  18.718  1.2880 -0.5275  0.9534
  718TIP3   OH226348   4.950   3.076  17.150  0.0407 -0.2359 -0.2584
  718TIP3    H126349   4.984   3.019  17.081  1.7435 -1.2275  1.3132
  718TIP3    H226350   4.964   3.026  17.231 -0.7608  1.3940  0.9300
  719TIP3   OH226351   2.575   2.333  17.808  0.7865  0.0516 -0.5963
  719TIP3    H126352   2.526   2.275  17.750  2.1759 -0.2192 -1.5606
  719TIP3    H226353   2.565   2.295  17.895  1.0762 -1.2306 -1.1078
  720TIP3   OH226354   1.267   0.734  19.152 -0.3719  0.1515  0.6188
  720TIP3    H126355   1.249   0.640  19.154  1.3200 -0.2060  0.4911
  720TIP3    H226356   1.362   0.741  19.166 -0.1700  1.7170 -1.0652
  721TIP3   OH226357   3.261   4.933  18.004  0.0113  0.3820  0.1071
  721TIP3    H126358   3.250   4.962  18.094  0.8489 -1.9197  1.0101
  721TIP3    H226359   3.199   4.861  17.994  1.0634 -0.4528 -0.6236
  722TIP3   OH226360   3.066   7.703  17.229  0.0907  0.1649 -0.3959
  722TIP3    H126361   3.147   7.655  17.213 -1.4804 -2.1884 -1.8114
  722TIP3    H226362   3.017   7.649  17.290  0.6790  3.0038  2.9272
  723TIP3   OH226363   6.668   0.996  17.007 -0.1742 -0.1929 -0.1599
  723TIP3    H126364   6.714   1.032  16.932  0.1945 -0.4175 -0.0457
  723TIP3    H226365   6.684   1.059  17.078 -2.2499  1.1117 -0.7703
  724TIP3   OH226366   5.742   7.589  17.369  0.0710 -0.2693  0.5943
  724TIP3    H126367   5.798   7.654  17.412 -0.7788  0.2632  0.9237
  724TIP3    H226368   5.653   7.622  17.380 -0.4647 -1.8396  1.4145
  725TIP3   OH226369   4.989   6.884  18.556  0.3646 -0.3551 -0.3306
  725TIP3    H126370   4.962   6.966  18.596  0.7232  0.0260 -0.8527
  725TIP3    H226371   4.943   6.882  18.472 -0.2758 -1.0795  0.0226
  726TIP3   OH226372   2.166   6.989  19.167 -0.2705 -0.1212  0.0624
  726TIP3    H126373   2.095   6.929  19.189 -1.1153  0.2814 -1.4613
  726TIP3    H226374   2.182   6.974  19.074  0.8491  0.6341  0.1195
  727TIP3   OH226375   5.360   0.448  17.430  0.0009  0.4501  0.0429
  727TIP3    H126376   5.423   0.409  17.370 -0.4766 -2.3373  1.1998
  727TIP3    H226377   5.299   0.495  17.373  0.7710 -0.2928 -1.4521
  728TIP3   OH226378   5.465   3.648  16.770  0.0964  0.1490  0.4127
  728TIP3    H126379   5.513   3.722  16.734 -1.1298  0.9235  0.3290
  728TIP3    H226380   5.418   3.611  16.696 -1.2106  0.8044  0.8797
  729TIP3   OH226381   5.611   3.692  17.576 -0.2924 -0.0470 -0.3270
  729TIP3    H126382   5.647   3.747  17.646  0.7221 -1.1470  0.0525
  729TIP3    H226383   5.680   3.690  17.509  0.3059 -1.9307  0.2688
  730TIP3   OH226384   6.115   5.685  19.187  0.2768  0.2147 -0.1703
  730TIP3    H126385   6.055   5.613  19.208  0.8994  0.2387  1.8675
  730TIP3    H226386   6.127   5.679  19.092  0.5638 -2.5570 -0.0249
  731TIP3   OH226387   7.317   7.172  16.850  0.1406  0.4037 -0.6355
  731TIP3    H126388   7.408   7.197  16.869 -0.1393  0.9558  0.0032
  731TIP3    H226389   7.319   7.145  16.758  1.2217 -0.9337 -0.2529
  732TIP3   OH226390   2.473   7.127  17.526  0.4225 -0.4658  0.6039
  732TIP3    H126391   2.473   7.119  17.431  0.8609 -0.7071  0.6208
  732TIP3    H226392   2.380   7.134  17.550  0.3703  1.0888  0.0467
  733TIP3   OH226393   5.398   2.664  17.424 -0.5338  0.4985  0.1490
  733TIP3    H126394   5.410   2.754  17.394  0.3459 -0.2715 -2.0097
  733TIP3    H226395   5.346   2.623  17.355 -0.4868 -0.7675  0.8479
  734TIP3   OH226396   7.232   3.343  17.836 -0.7208  0.4439  0.1220
  734TIP3    H126397   7.256   3.368  17.925  1.7112 -2.1559  0.3503
  734TIP3    H226398   7.305   3.374  17.782 -0.4411 -0.9990 -0.3830
  735TIP3   OH226399   4.615   2.824  19.373  0.4794 -0.0347  0.0319
  735TIP3    H126400   4.625   2.914  19.343  1.1184  0.1872  0.8726
  735TIP3    H226401   4.542   2.789  19.322  0.5203  0.8146 -0.6243
  736TIP3   OH226402   0.841   1.821  17.344 -0.1975 -0.1167  0.0601
  736TIP3    H126403   0.777   1.750  17.349  0.7885 -1.0595 -0.2720
  736TIP3    H226404   0.866   1.824  17.251  0.7087 -0.2134  0.2851
  737TIP3   OH226405   1.902   0.852  17.054 -0.4651 -0.3923  0.5435
  737TIP3    H126406   1.861   0.816  17.133 -0.2972 -0.4114  0.6213
  737TIP3    H226407   1.888   0.786  16.987  2.0804 -1.8259  1.2985
  738TIP3   OH226408   1.954   2.369  19.191 -0.2581 -0.8636 -0.2686
  738TIP3    H126409   1.870   2.348  19.232  0.0724 -1.1258  0.2922
  738TIP3    H226410   1.999   2.285  19.184  1.2475 -0.3891  2.3738
  739TIP3   OH226411   1.362   2.963  18.147  0.6148  0.4543  0.3401
  739TIP3    H126412   1.276   2.971  18.188 -0.8376 -0.7641 -2.1772
  739TIP3    H226413   1.387   2.872  18.160  0.8323  0.4370 -0.1667
  740TIP3   OH226414   4.356   1.934  18.360 -0.2175 -0.9067  1.1366
  740TIP3    H126415   4.387   2.003  18.418  0.1308 -1.8775  2.1388
  740TIP3    H226416   4.272   1.907  18.397  0.1020 -1.6711  1.3329
  741TIP3   OH226417   6.574   2.019  19.106 -0.0491  0.0240 -0.1581
  741TIP3    H126418   6.572   1.947  19.169  2.1194 -0.8069 -0.9279
  741TIP3    H226419   6.528   1.986  19.029 -3.4139  1.3270  1.1352
  742TIP3   OH226420   5.648   3.611  18.114  0.1553  0.3456  0.7725
  742TIP3    H126421   5.556   3.618  18.089 -0.8322 -2.5739  3.0202
  742TIP3    H226422   5.650   3.637  18.206  0.8302 -2.7143  1.7442
  743TIP3   OH226423   5.511   5.970  17.779  0.5053  0.3826  0.6940
  743TIP3    H126424   5.565   6.029  17.831  0.6673  1.0746 -0.2411
  743TIP3    H226425   5.434   5.953  17.834  0.3072  1.7178  0.8445
  744TIP3   OH226426   5.014   2.158  18.658 -0.4846 -0.1877 -0.0980
  744TIP3    H126427   5.026   2.244  18.699 -1.4538 -0.2332  0.3113
  744TIP3    H226428   4.951   2.173  18.588 -2.3092 -0.9156  1.3078
  745TIP3   OH226429   2.786   5.488  18.186  0.1210  0.2512  0.4094
  745TIP3    H126430   2.762   5.496  18.279 -0.1962  1.3293  0.2537
  745TIP3    H226431   2.712   5.441  18.147 -0.1690  0.5810  0.5503
  746TIP3   OH226432   4.258   6.573  16.799 -0.6679  0.3785 -0.3440
  746TIP3    H126433   4.312   6.647  16.774 -0.3077  0.6093  1.0146
  746TIP3    H226434   4.185   6.612  16.848 -0.2654 -0.1615  0.7300
  747TIP3   OH226435   6.546   6.127  19.465  0.1212  0.6771 -0.0531
  747TIP3    H126436   6.510   6.172  19.388  0.0167 -2.9808 -2.4034
  747TIP3    H226437   6.479   6.063  19.489  0.4706  1.2556  2.7281
  748TIP3   OH226438   7.534   7.211  18.324  0.1331 -0.4588 -0.4374
  748TIP3    H126439   7.545   7.302  18.297 -0.2464  0.1430  1.2616
  748TIP3    H226440   7.595   7.162  18.271  0.8558  0.8927 -0.9002
  749TIP3   OH226441   7.227   2.994  17.187 -0.2636 -0.2541 -0.0104
  749TIP3    H126442   7.265   2.989  17.099  0.6038  1.0839  0.2622
  749TIP3    H226443   7.162   3.063  17.181 -1.7632 -1.6273 -0.1225
  750TIP3   OH226444   3.013   3.003  18.216 -0.7163 -0.1719  0.0054
  750TIP3    H126445   2.987   2.965  18.132  0.5567  1.1469 -1.0364
  750TIP3    H226446   2.959   3.082  18.224 -1.6322 -0.8646  1.0062
  751TIP3   OH226447   5.482   6.637  16.190  0.7362 -0.3295  0.0124
  751TIP3    H126448   5.456   6.576  16.259  0.8195 -0.3410  0.0335
  751TIP3    H226449   5.559   6.596  16.150 -0.4097 -1.2751 -1.3544
  752TIP3   OH226450   5.957   6.526  19.102  0.1102 -0.3604  0.4783
  752TIP3    H126451   5.937   6.445  19.149 -0.7776  0.1080  0.9215
  752TIP3    H226452   5.992   6.496  19.018 -3.7179 -1.3321 -0.9884
  753TIP3   OH226453   3.165   3.456  18.620 -0.0075 -0.0948 -0.5911
  753TIP3    H126454   3.258   3.441  18.606  0.2778  0.5903  0.4987
  753TIP3    H226455   3.156   3.467  18.715 -1.2160 -0.2692 -0.6669
  754TIP3   OH226456   5.833   3.876  18.599 -0.0962 -0.4822  0.0426
  754TIP3    H126457   5.814   3.966  18.626 -1.8160 -0.3147 -1.5042
  754TIP3    H226458   5.850   3.829  18.681  1.3797  1.3341  0.8395
  755TIP3   OH226459   3.876   6.606  18.309 -0.0506 -0.1575 -0.6325
  755TIP3    H126460   3.904   6.688  18.352 -0.8248  0.6117 -1.5531
  755TIP3    H226461   3.781   6.604  18.321 -0.2362 -0.1228 -1.9544
  756TIP3   OH226462   4.771   0.946  17.990 -0.2015  0.4716 -0.3969
  756TIP3    H126463   4.860   0.955  17.958 -0.3076 -0.2515 -0.9146
  756TIP3    H226464   4.778   0.958  18.085  0.4015  0.6537 -0.4639
  757TIP3   OH226465   7.280   4.731  18.409 -0.0971  0.4424  0.2402
  757TIP3    H126466   7.241   4.735  18.322 -0.9528 -3.0427  0.3124
  757TIP3    H226467   7.367   4.769  18.398 -0.9066  1.9464 -1.5963
  758TIP3   OH226468   2.462   6.489  16.451 -0.4287  0.4483  0.4556
  758TIP3    H126469   2.486   6.526  16.537  1.9858  0.8776 -0.3141
  758TIP3    H226470   2.511   6.407  16.446 -1.6935 -0.3107  0.0382
  759TIP3   OH226471   0.215   4.486  18.340 -0.4063  0.4243 -0.0212
  759TIP3    H126472   0.247   4.541  18.411  0.1135 -0.4287  0.4178
  759TIP3    H226473   0.163   4.418  18.382  0.3417 -0.4018 -0.3699
  760TIP3   OH226474   4.911   3.305  18.911 -0.2830 -0.4971 -0.0889
  760TIP3    H126475   4.900   3.216  18.944 -0.8277 -0.1903  0.5612
  760TIP3    H226476   4.825   3.346  18.922  0.5156  0.8026  1.6963
  761TIP3   OH226477   6.867   2.206  16.764 -0.1887 -0.0156  0.2209
  761TIP3    H126478   6.913   2.278  16.806  0.9312  0.7497 -2.1779
  761TIP3    H226479   6.780   2.241  16.744  0.1517  0.4830 -0.4009
  762TIP3   OH226480   2.493   3.248  18.706 -0.3166 -0.1026  0.0963
  762TIP3    H126481   2.492   3.317  18.773  0.7460  0.2945 -0.2677
  762TIP3    H226482   2.584   3.218  18.704 -0.4857 -0.5998 -0.6835
  763TIP3   OH226483   0.452   5.342  18.420  0.2015  0.3199 -0.0862
  763TIP3    H126484   0.401   5.371  18.496 -1.1590 -0.2456 -0.7492
  763TIP3    H226485   0.392   5.351  18.346  1.1462 -0.1660 -0.9373
  764TIP3   OH226486   5.627   1.612  18.766 -0.1971 -0.0655 -0.5502
  764TIP3    H126487   5.555   1.598  18.828 -1.1294  1.2433 -1.2938
  764TIP3    H226488   5.698   1.648  18.819 -0.8770  0.7444 -0.1565
  765TIP3   OH226489   4.704   3.137  17.447  0.1236 -0.0134  0.2419
  765TIP3    H126490   4.647   3.167  17.375  0.8838 -0.1744 -0.4436
  765TIP3    H226491   4.760   3.212  17.466 -0.3496  0.1653  0.9583
  766TIP3   OH226492   1.663   3.586  18.795 -0.2533  0.6598  0.3033
  766TIP3    H126493   1.573   3.611  18.776 -0.0514  0.5932 -0.8062
  766TIP3    H226494   1.656   3.497  18.831 -0.5662  0.2678 -0.6891
  767TIP3   OH226495   1.393   3.602  18.773  0.2353  0.6573 -0.2862
  767TIP3    H126496   1.390   3.522  18.720 -0.4059  1.1982 -1.1009
  767TIP3    H226497   1.312   3.649  18.750 -0.1929  0.7901  1.3894
  768TIP3   OH226498   0.293   1.796  19.302  0.3074  0.0619 -0.0426
  768TIP3    H126499   0.314   1.774  19.212  1.3051  0.6080  0.0374
  768TIP3    H226500   0.305   1.714  19.350 -0.2403 -0.2325 -0.4008
  769TIP3   OH226501   7.108   2.216  16.942  0.0902  0.1477 -0.6603
  769TIP3    H126502   7.037   2.269  16.980  0.1480  0.0874 -0.4638
  769TIP3    H226503   7.180   2.277  16.929  0.1963  0.0990 -0.3264
  770TIP3   OH226504   1.381   1.108  19.352  0.6150 -0.2896  0.3793
  770TIP3    H126505   1.346   1.196  19.362 -0.2984 -0.4169 -1.3963
  770TIP3    H226506   1.306   1.054  19.328  1.6584 -0.9506 -1.6130
  771TIP3   OH226507   6.517   5.788  17.134  0.4310  0.0321 -0.2448
  771TIP3    H126508   6.557   5.875  17.125 -1.0706  0.5827 -2.1716
  771TIP3    H226509   6.460   5.795  17.210  0.8114  0.5425 -0.0051
  772TIP3   OH226510   6.226   3.802  17.588  0.1198 -0.2400  0.1244
  772TIP3    H126511   6.304   3.746  17.599  0.5696  0.6285  1.6638
  772TIP3    H226512   6.227   3.859  17.665 -2.6270 -0.8940  0.7315
  773TIP3   OH226513   0.635   6.243  18.569  0.0044  0.2105  0.0877
  773TIP3    H126514   0.614   6.263  18.477 -2.1531 -0.9449  0.2500
  773TIP3    H226515   0.626   6.148  18.574  0.5162  0.2223  1.4209
  774TIP3   OH226516   1.489   0.918  17.097 -0.0864  0.8965  0.1927
  774TIP3    H126517   1.554   0.852  17.072 -1.2121  0.0583 -0.6785
  774TIP3    H226518   1.437   0.875  17.165 -0.7853  0.8852 -0.3369
  775TIP3   OH226519   2.731   1.298  19.156  0.0289 -0.2074 -0.6421
  775TIP3    H126520   2.755   1.318  19.066 -0.0499 -0.6984 -0.7787
  775TIP3    H226521   2.752   1.205  19.165  1.7195  0.2278  0.3849
  776TIP3   OH226522   4.504   1.381  19.610  0.1662 -0.2674  0.3285
  776TIP3    H126523   4.555   1.313  19.566  0.9440  1.3373 -1.3769
  776TIP3    H226524   4.413   1.351  19.603  0.4030 -0.6867 -1.2930
  777TIP3   OH226525   6.149   3.183  17.955  0.0928 -0.3126 -0.1543
  777TIP3    H126526   6.197   3.224  17.883  0.1653  0.1168  0.1337
  777TIP3    H226527   6.144   3.251  18.023 -0.1050 -0.6597  0.1873
  778TIP3   OH226528   4.255   3.055  17.227 -0.3993 -0.0354  0.0043
  778TIP3    H126529   4.347   3.072  17.209 -0.5326  1.4284  0.6230
  778TIP3    H226530   4.208   3.131  17.194 -1.1264  0.3900  1.8610
  779TIP3   OH226531   3.916   4.960  17.857  0.6371 -0.2719  0.2604
  779TIP3    H126532   3.949   4.876  17.826 -0.7099 -1.2629  1.3826
  779TIP3    H226533   3.838   4.976  17.804  0.3819 -0.1896  0.6555
  780TIP3   OH226534   1.130   6.747  19.163 -0.1735 -0.2101  0.1268
  780TIP3    H126535   1.100   6.838  19.166  3.2738  1.2068 -2.3921
  780TIP3    H226536   1.066   6.702  19.109 -0.4920  1.4493 -0.9419
  781TIP3   OH226537   5.816   4.657  17.300  0.3299  0.3465 -0.5076
  781TIP3    H126538   5.908   4.660  17.328  0.4085  0.0544 -0.7293
  781TIP3    H226539   5.766   4.670  17.381  0.5257 -2.6413  0.2063
  782TIP3   OH226540   3.612   2.575  18.793  0.5884 -0.3185  0.1883
  782TIP3    H126541   3.579   2.499  18.745  1.1784 -0.4972  0.0599
  782TIP3    H226542   3.664   2.539  18.863 -0.5663 -0.0655  1.2176
  783TIP3   OH226543   7.530   1.170  17.885 -0.5109 -0.2915  0.2527
  783TIP3    H126544   7.520   1.257  17.924  0.1034 -0.0826 -0.0303
  783TIP3    H226545   7.465   1.116  17.929 -0.5288  0.1825  0.8292
  784TIP3   OH226546   3.115   0.283  19.013 -0.2006 -0.0173 -0.2503
  784TIP3    H126547   3.164   0.299  19.094  0.2571  0.8071 -0.6814
  784TIP3    H226548   3.034   0.242  19.043  0.2796 -0.4218  0.5625
  785TIP3   OH226549   5.514   2.601  18.629 -0.6126 -0.3764  0.2313
  785TIP3    H126550   5.597   2.554  18.640 -0.6987 -0.7841 -0.7945
  785TIP3    H226551   5.454   2.558  18.689 -0.0483  0.0410  1.1228
  786TIP3   OH226552   7.525   3.476  16.993  0.3418  1.0140 -0.3321
  786TIP3    H126553   7.581   3.467  17.070  1.1747  0.7904 -0.9576
  786TIP3    H226554   7.570   3.540  16.938  0.0866  0.6786 -0.9319
  787TIP3   OH226555   6.963   3.298  17.785 -0.0964 -0.5737  0.5687
  787TIP3    H126556   6.978   3.322  17.693  1.6419  2.3336  1.5084
  787TIP3    H226557   7.050   3.274  17.818 -0.9280 -3.0702  1.1702
  788TIP3   OH226558   7.248   2.390  19.478 -0.5004  0.3630  0.1023
  788TIP3    H126559   7.161   2.355  19.498 -0.4946 -0.5141 -1.2516
  788TIP3    H226560   7.305   2.354  19.545 -0.6331 -1.6985 -0.8130
  789TIP3   OH226561   5.163   6.223  18.461 -0.5950 -0.5872 -0.1934
  789TIP3    H126562   5.189   6.160  18.394  1.2357  0.3004 -0.3846
  789TIP3    H226563   5.210   6.194  18.540  1.9445  1.5876 -0.7751
  790TIP3   OH226564   0.999   2.752  18.221 -0.5585 -0.5887  0.0216
  790TIP3    H126565   0.925   2.715  18.268 -1.8480  0.3780 -1.1260
  790TIP3    H226566   0.991   2.716  18.132  0.6452 -0.8468  0.0042
  791TIP3   OH226567   7.417   0.998  19.276  0.1922 -0.3481 -0.1141
  791TIP3    H126568   7.492   0.995  19.335  0.0178 -0.5709  0.0994
  791TIP3    H226569   7.455   1.006  19.189  0.4692 -0.5404 -0.0145
  792TIP3   OH226570   7.586   4.893  17.535  0.1955 -0.1191  0.4296
  792TIP3    H126571   7.537   4.815  17.562  1.2790 -0.4212  1.6315
  792TIP3    H226572   7.648   4.862  17.470  1.1217 -0.4338  1.4335
  793TIP3   OH226573   1.943   2.566  17.498  0.1519  0.8804 -0.2954
  793TIP3    H126574   1.849   2.549  17.506  0.4792 -0.0811  3.3057
  793TIP3    H226575   1.957   2.580  17.405 -3.2768 -0.6404 -1.2071
  794TIP3   OH226576   6.026   1.879  18.574 -0.2128  0.9112 -0.3405
  794TIP3    H126577   6.071   1.871  18.658 -2.6721  0.4460  1.0405
  794TIP3    H226578   5.984   1.965  18.577 -0.3134  0.8943 -1.0964
  795TIP3   OH226579   6.281   6.345  19.448 -0.2114 -0.1527 -0.2689
  795TIP3    H126580   6.219   6.320  19.516  1.2376 -1.3933  0.6625
  795TIP3    H226581   6.246   6.307  19.368 -1.4590  0.5383 -0.0723
  796TIP3   OH226582   3.709   1.541  19.380  0.6489 -0.3616 -0.7766
  796TIP3    H126583   3.664   1.612  19.425  1.1730  0.7743 -2.0153
  796TIP3    H226584   3.773   1.510  19.444 -0.0596 -0.2149  0.0271
  797TIP3   OH226585   3.842   4.224  18.978  0.8329  0.1973  0.3699
  797TIP3    H126586   3.868   4.307  19.018 -0.6474  0.9112 -0.0870
  797TIP3    H226587   3.868   4.158  19.042  0.7073  1.1261  1.4208
  798TIP3   OH226588   4.379   2.695  18.862  0.3509  0.0241  0.3199
  798TIP3    H126589   4.373   2.790  18.871 -1.1214 -0.1329  1.4824
  798TIP3    H226590   4.390   2.680  18.768 -1.0413  1.2954 -0.0930
  799TIP3   OH226591   4.635   1.237  18.450 -0.4244  0.8540  0.3607
  799TIP3    H126592   4.680   1.295  18.389  1.0808  0.8214  1.4079
  799TIP3    H226593   4.700   1.217  18.517 -0.8963 -2.0482  0.0508
  800TIP3   OH226594   3.369   0.454  17.270  0.0054 -0.1076 -0.0911
  800TIP3    H126595   3.376   0.410  17.186  1.3138 -0.4332  0.1700
  800TIP3    H226596   3.375   0.548  17.249 -1.9920 -0.0436 -0.5630
  801TIP3   OH226597   2.985   3.241  19.104 -0.0216  0.5589  0.3341
  801TIP3    H126598   3.053   3.220  19.168  1.0339  2.1468 -0.2042
  801TIP3    H226599   2.995   3.176  19.035  1.2423  0.9846  0.0867
  802TIP3   OH226600   5.102   5.934  18.913  0.1440  0.1757 -0.2046
  802TIP3    H126601   5.085   5.963  18.823 -1.5609 -2.4714 -0.8682
  802TIP3    H226602   5.016   5.933  18.955  0.7175 -0.0162  1.0098
  803TIP3   OH226603   4.995   0.206  18.924 -0.4752 -0.2990  0.1405
  803TIP3    H126604   4.967   0.290  18.960  0.2633 -1.9470  5.4381
  803TIP3    H226605   5.078   0.225  18.880 -1.0524  1.8795 -0.1114
  804TIP3   OH226606   2.923   1.630  19.081 -0.3291 -0.3119  0.1563
  804TIP3    H126607   2.954   1.605  19.168 -0.4747 -0.7335  0.0907
  804TIP3    H226608   2.865   1.704  19.097 -1.8375 -1.5229  0.6491
  805TIP3   OH226609   1.231   7.487  17.181  0.1798  0.5468 -0.1907
  805TIP3    H126610   1.210   7.409  17.232 -1.3190  0.1739 -1.2889
  805TIP3    H226611   1.325   7.497  17.189  0.1153 -0.0787  1.7922
  806TIP3   OH226612   7.435   2.129  17.776  0.2599 -0.3383  0.1841
  806TIP3    H126613   7.351   2.174  17.773  0.2406 -0.4290 -1.2270
  806TIP3    H226614   7.491   2.185  17.830 -0.7626 -0.4297  1.4144
  807TIP3   OH226615   0.242   2.176  19.237 -0.0642 -0.2671  0.0525
  807TIP3    H126616   0.279   2.191  19.150  0.4301  1.7890  0.5521
  807TIP3    H226617   0.173   2.111  19.223 -1.3835  1.4795 -2.2402
  808TIP3   OH226618   0.512   2.360  19.214 -0.2192  0.6976 -0.3428
  808TIP3    H126619   0.444   2.402  19.162  0.3250  3.4908  0.9817
  808TIP3    H226620   0.472   2.346  19.300  0.0396 -0.3238 -0.3722
  809TIP3   OH226621   1.476   6.103  19.615 -0.3533  0.5450  0.4596
  809TIP3    H126622   1.404   6.167  19.609 -2.7391 -1.7401  2.3751
  809TIP3    H226623   1.500   6.103  19.707  0.4939 -0.4377  0.2524
  810TIP3   OH226624   5.095   3.641  18.715 -0.3190 -0.3804  0.0732
  810TIP3    H126625   5.009   3.654  18.754 -0.3502 -3.3873  1.2569
  810TIP3    H226626   5.150   3.709  18.755 -2.1979  2.0915 -1.2805
  811TIP3   OH226627   6.950   6.366  17.205  0.1662 -0.0776  0.2155
  811TIP3    H126628   6.873   6.347  17.153  0.1336  0.4103  0.0781
  811TIP3    H226629   7.023   6.364  17.143  0.0771  0.9078  0.0578
  812TIP3   OH226630   0.822   5.078  18.256 -0.3452 -0.1027 -0.0622
  812TIP3    H126631   0.868   5.002  18.220  3.0625  1.0047  1.4447
  812TIP3    H226632   0.841   5.149  18.195 -0.3241  0.3173  0.4241
  813TIP3   OH226633   0.326   4.590  17.832 -0.5823  0.7124 -0.0453
  813TIP3    H126634   0.342   4.596  17.926  2.2046  0.3669 -0.4144
  813TIP3    H226635   0.316   4.681  17.804  1.8743  1.1014  0.1608
  814TIP3   OH226636   3.845   0.309  19.284  0.3184  0.1182  0.3430
  814TIP3    H126637   3.912   0.378  19.290 -0.2734  1.0233 -2.2455
  814TIP3    H226638   3.762   0.355  19.297  0.0060 -0.3631  0.0841
  815TIP3   OH226639   3.330   5.207  18.240 -0.1045  0.0513  0.1154
  815TIP3    H126640   3.273   5.130  18.236 -0.4026  0.2881 -0.4450
  815TIP3    H226641   3.282   5.270  18.294  0.0353 -0.0753  0.3859
  816TIP3   OH226642   5.640   4.976  18.914  0.6466  0.0056  0.0870
  816TIP3    H126643   5.673   4.930  18.991 -1.2528  1.5852  1.9586
  816TIP3    H226644   5.547   4.989  18.931 -0.5247 -1.9212 -3.7577
  817TIP3   OH226645   0.851   2.384  19.523 -0.1892  0.4411  0.1999
  817TIP3    H126646   0.799   2.332  19.461  0.6816  1.8527 -1.8314
  817TIP3    H226647   0.801   2.382  19.604 -2.2655 -0.1146 -1.0092
  818TIP3   OH226648   4.961   1.759  18.212 -0.1936  0.0748 -0.1904
  818TIP3    H126649   4.948   1.851  18.236  0.3574  0.4343 -1.1834
  818TIP3    H226650   5.044   1.759  18.164  0.0242 -1.0169  0.1693
  819TIP3   OH226651   6.283   1.429  17.886 -0.2199 -0.2823 -0.2434
  819TIP3    H126652   6.302   1.414  17.793 -0.6303 -0.6513 -0.2717
  819TIP3    H226653   6.210   1.492  17.886  0.8068  0.9567 -0.1386
  820TIP3   OH226654   5.249   5.804  17.552 -0.5635 -0.2003  0.0883
  820TIP3    H126655   5.298   5.731  17.591 -0.1595  0.2284  0.3910
  820TIP3    H226656   5.164   5.802  17.595 -1.3917 -1.8722 -1.4828
  821TIP3   OH226657   3.499   1.096  17.920  0.2370  0.0611  0.5565
  821TIP3    H126658   3.409   1.080  17.894  0.2181 -1.5788  1.4357
  821TIP3    H226659   3.494   1.111  18.015  0.6634  2.3059  0.2669
  822TIP3   OH226660   0.201   7.573  17.241 -0.3318  0.0648 -1.1170
  822TIP3    H126661   0.236   7.646  17.190 -1.3331 -0.3526 -2.4605
  822TIP3    H226662   0.222   7.595  17.332  1.0844  1.0684 -1.6443
  823TIP3   OH226663   7.488   4.642  17.134 -0.2266 -0.7811  0.0321
  823TIP3    H126664   7.537   4.654  17.052 -0.2833 -2.1948 -0.2254
  823TIP3    H226665   7.431   4.719  17.138 -0.6156 -0.9520 -1.5312
  824TIP3   OH226666   0.173   5.859  17.967  0.0371  0.4308 -0.3986
  824TIP3    H126667   0.189   5.772  18.004  0.9066  0.8943  0.3581
  824TIP3    H226668   0.221   5.859  17.884  0.2514  0.2777 -0.2760
  825TIP3   OH226669   0.346   3.874  16.846 -0.0036 -0.1700 -0.0522
  825TIP3    H126670   0.292   3.831  16.779 -0.6589  0.3968  0.0997
  825TIP3    H226671   0.286   3.933  16.890  0.7270  0.4017  0.1923
  826TIP3   OH226672   6.150   4.221  17.217  0.1592 -0.3581 -0.1607
  826TIP3    H126673   6.084   4.183  17.275 -1.0509  0.5549 -0.8693
  826TIP3    H226674   6.141   4.172  17.135  1.0558 -0.8679  0.0278
  827TIP3   OH226675   1.363   6.353  19.780 -0.3200  0.1030  0.0066
  827TIP3    H126676   1.352   6.441  19.744  1.2512  0.2068 -0.3008
  827TIP3    H226677   1.357   6.365  19.874 -1.0894  0.3679 -0.0670
  828TIP3   OH226678   2.567   5.962  17.271  0.5513  0.1878 -0.0459
  828TIP3    H126679   2.618   6.039  17.296  0.3273  0.6279 -0.8944
  828TIP3    H226680   2.488   5.998  17.229  0.0665 -0.4911  0.2590
  829TIP3   OH226681   4.955   5.057  19.217 -0.4173  0.1466  0.3454
  829TIP3    H126682   4.862   5.080  19.215 -0.9857 -1.9383  0.4215
  829TIP3    H226683   4.998   5.134  19.255 -2.0892  1.1657  0.2800
  830TIP3   OH226684   4.130   7.269  16.677  0.1042  0.0080 -0.0287
  830TIP3    H126685   4.038   7.252  16.695  0.0111 -0.8226 -1.1882
  830TIP3    H226686   4.136   7.365  16.674 -0.9738  0.0682 -1.0788
  831TIP3   OH226687   5.989   4.549  18.840  0.5988  0.0116  0.0870
  831TIP3    H126688   5.941   4.596  18.908 -0.9062  0.3817 -1.1685
  831TIP3    H226689   6.054   4.612  18.809 -0.0058  0.5231 -0.1453
  832TIP3   OH226690   1.660   2.353  18.272  0.0569 -0.0323 -0.1869
  832TIP3    H126691   1.668   2.361  18.367  1.1557 -0.7016 -0.2066
  832TIP3    H226692   1.566   2.347  18.256 -0.1877  0.9364  0.7800
  833TIP3   OH226693   7.051   5.266  18.503  0.4204  0.4411 -0.0322
  833TIP3    H126694   7.031   5.201  18.570  0.4363  0.9511  0.4811
  833TIP3    H226695   7.004   5.236  18.425  0.7630 -0.3973  0.0746
  834TIP3   OH226696   5.440   5.296  17.034 -0.4907 -0.8405 -0.5511
  834TIP3    H126697   5.502   5.271  17.103 -1.1841  1.7066  1.1480
  834TIP3    H226698   5.494   5.344  16.971 -0.7045  2.6094  1.6086
  835TIP3   OH226699   4.738   6.554  17.800 -0.8157  0.6023  0.4139
  835TIP3    H126700   4.816   6.604  17.777 -0.9844  1.0332  0.7631
  835TIP3    H226701   4.728   6.567  17.895 -0.1875 -1.0443  0.7446
  836TIP3   OH226702   6.173   4.391  18.106 -0.4803  0.0623  0.1142
  836TIP3    H126703   6.082   4.405  18.080 -0.5257 -0.0195  0.2274
  836TIP3    H226704   6.189   4.299  18.089 -0.3326  0.1387 -0.1630
  837TIP3   OH226705   4.206   7.644  17.510  0.4065 -0.2206 -0.3194
  837TIP3    H126706   4.272   7.590  17.553 -1.6431 -0.6818  2.5202
  837TIP3    H226707   4.172   7.701  17.579 -2.1838 -0.0428 -1.6186
  838TIP3   OH226708   4.220   1.118  18.166  0.3097 -0.1218  0.5449
  838TIP3    H126709   4.302   1.101  18.120  0.9683 -1.6739  2.1820
  838TIP3    H226710   4.169   1.038  18.155 -0.5109  0.3987  0.5064
  839TIP3   OH226711   5.339   3.124  18.067  0.0342 -0.0370 -0.7550
  839TIP3    H126712   5.434   3.118  18.082 -0.3626 -0.5184  2.1465
  839TIP3    H226713   5.331   3.146  17.974  2.9604 -0.4555 -1.2102
  840TIP3   OH226714   1.675   6.436  18.848  0.7668  0.8811 -0.1861
  840TIP3    H126715   1.676   6.484  18.931 -0.6395 -0.7447  0.8223
  840TIP3    H226716   1.694   6.503  18.782  1.7095  2.2626  1.3946
  841TIP3   OH226717   1.600   5.666  17.271 -0.0158 -0.7028  0.5777
  841TIP3    H126718   1.606   5.756  17.304  3.7341  0.2672 -2.0088
  841TIP3    H226719   1.510   5.657  17.240 -0.4273  2.2926  0.6235
  842TIP3   OH226720   6.123   6.739  19.142 -0.5727  0.0531 -1.0743
  842TIP3    H126721   6.050   6.678  19.136 -0.4405 -0.1218 -0.9358
  842TIP3    H226722   6.201   6.683  19.133 -0.4098  0.0115  0.3993
  843TIP3   OH226723   5.338   2.414  17.811  0.4515  0.6776 -0.5870
  843TIP3    H126724   5.384   2.493  17.839 -0.9360  1.6337 -0.8782
  843TIP3    H226725   5.396   2.342  17.835  1.4042  1.7400  0.4036
  844TIP3   OH226726   1.672   6.871  17.420 -0.9328 -0.2629  0.2174
  844TIP3    H126727   1.600   6.924  17.385 -0.3105  1.4389  1.3915
  844TIP3    H226728   1.632   6.822  17.492 -0.9145  0.8385  1.0066
  845TIP3   OH226729   3.986   2.622  19.279 -0.0700  0.0907 -0.0282
  845TIP3    H126730   3.892   2.626  19.261 -0.5151 -3.0568  0.9135
  845TIP3    H226731   4.027   2.615  19.193 -0.8544 -0.1621 -0.3897
  846TIP3   OH226732   0.740   1.085  18.773 -0.6177 -0.1949 -0.3515
  846TIP3    H126733   0.765   1.033  18.697 -1.0249 -1.2751  0.2311
  846TIP3    H226734   0.665   1.137  18.743 -2.2285 -2.2654 -0.1048
  847TIP3   OH226735   3.017   3.769  19.078 -0.3144  0.4849  0.1314
  847TIP3    H126736   2.997   3.840  19.016  0.9949  0.5976 -0.1878
  847TIP3    H226737   3.009   3.811  19.165  2.1759  1.5624 -0.0784
  848TIP3   OH226738   2.055   4.921  17.705  0.4666  0.6332  0.5360
  848TIP3    H126739   2.047   5.008  17.745 -2.1473 -0.1037  1.8519
  848TIP3    H226740   1.997   4.865  17.758  0.2979 -1.4103 -1.6443
  849TIP3   OH226741   0.754   1.619  17.705  0.9848 -0.3300  0.0781
  849TIP3    H126742   0.757   1.713  17.721  1.4272 -0.3376  0.0566
  849TIP3    H226743   0.769   1.610  17.611  0.2910 -0.3873 -0.0301
  850TIP3   OH226744   0.154   6.484  17.142  0.1245  0.0758 -0.7542
  850TIP3    H126745   0.222   6.454  17.081  1.9725  0.4106  1.0533
  850TIP3    H226746   0.152   6.579  17.131  1.4027  0.2841  0.5817
  851TIP3   OH226747   0.859   5.340  19.230  0.7111 -0.1782 -0.7269
  851TIP3    H126748   0.894   5.428  19.242  1.4072 -0.5144 -0.2326
  851TIP3    H226749   0.780   5.352  19.177 -1.7756  1.3215  2.8530
  852TIP3   OH226750   0.209   7.732  17.873  0.4974 -0.1441 -0.0223
  852TIP3    H126751   0.242   7.652  17.832  0.6713 -0.8339  1.4198
  852TIP3    H226752   0.161   7.702  17.950 -0.0378  1.1089  0.1622
  853TIP3   OH226753   5.251   4.818  17.808  0.3038 -0.6929  0.4445
  853TIP3    H126754   5.209   4.793  17.891  0.6676 -0.1149  0.8061
  853TIP3    H226755   5.288   4.904  17.824 -0.3085 -0.2225 -0.5761
  854TIP3   OH226756   4.198   5.834  19.572 -0.0192 -0.4121  0.0257
  854TIP3    H126757   4.224   5.926  19.572  0.7502 -0.5804  2.2296
  854TIP3    H226758   4.279   5.786  19.552 -0.1303 -0.6643  0.1728
  855TIP3   OH226759   2.288   5.871  18.590 -0.0625  0.1701 -0.3752
  855TIP3    H126760   2.308   5.925  18.514  0.6132 -1.1090 -1.1377
  855TIP3    H226761   2.209   5.910  18.627  1.5751  3.0009  0.4163
  856TIP3   OH226762   1.050   1.011  17.023  0.5258 -0.0274  0.3461
  856TIP3    H126763   0.965   1.025  16.981  0.6369 -1.7525 -0.5050
  856TIP3    H226764   1.096   1.094  17.010 -0.7233  0.6566  0.1172
  857TIP3   OH226765   1.780   2.580  18.179  0.2194  0.2942 -0.0046
  857TIP3    H126766   1.750   2.558  18.091  1.0720 -0.8711 -0.0266
  857TIP3    H226767   1.740   2.514  18.236  0.3024  0.5630  0.3715
  858TIP3   OH226768   0.860   7.275  18.193  0.5819 -0.0165 -0.1472
  858TIP3    H126769   0.936   7.320  18.229  0.6256  0.7612 -1.1555
  858TIP3    H226770   0.832   7.331  18.120  0.2547 -1.3041 -1.0445
  859TIP3   OH226771   2.265   3.953  18.031 -0.4400 -0.0661  0.4408
  859TIP3    H126772   2.229   3.929  17.946  2.1755 -1.9967 -0.2458
  859TIP3    H226773   2.341   4.007  18.011 -0.9217  1.1546  1.6911
  860TIP3   OH226774   4.007   2.212  17.335  0.2990  0.2018 -0.6539
  860TIP3    H126775   4.077   2.270  17.366  0.7809  0.0176 -1.3827
  860TIP3    H226776   4.008   2.139  17.397  1.1333 -0.0723 -0.9770
  861TIP3   OH226777   5.323   4.272  18.356 -0.5263  0.3759  0.0002
  861TIP3    H126778   5.263   4.346  18.369  0.2639  0.8618  0.9956
  861TIP3    H226779   5.404   4.299  18.398 -0.1707 -1.0168  0.2636
  862TIP3   OH226780   3.386   5.763  16.582  0.1648  0.0974  0.2928
  862TIP3    H126781   3.443   5.807  16.644  1.0705 -0.5889 -0.0379
  862TIP3    H226782   3.445   5.719  16.521 -0.7054 -0.5887 -0.0848
  863TIP3   OH226783   4.649   2.787  18.688  0.0814 -0.1687  0.0354
  863TIP3    H126784   4.635   2.875  18.653  0.7471 -0.1003 -0.0627
  863TIP3    H226785   4.719   2.797  18.751  0.3109 -0.6725 -0.1349
  864TIP3   OH226786   3.792   3.968  18.106 -0.2308 -0.0565 -0.0951
  864TIP3    H126787   3.764   3.910  18.177  0.0682  0.5294  0.5220
  864TIP3    H226788   3.887   3.957  18.103  0.0088  1.3600  0.9406
  865TIP3   OH226789   6.858   1.586  19.479 -0.0842 -0.8834  0.6740
  865TIP3    H126790   6.798   1.533  19.532 -1.6654  0.9497  0.8546
  865TIP3    H226791   6.810   1.601  19.398  1.1203 -1.2708 -0.1277
  866TIP3   OH226792   4.126   4.415  18.272  0.0011  0.2203  0.0957
  866TIP3    H126793   4.112   4.473  18.347 -1.1194  2.4136 -1.6670
  866TIP3    H226794   4.221   4.419  18.258  0.4415 -1.3740  2.1696
  867TIP3   OH226795   5.259   7.100  17.219  0.2941 -0.0735 -0.0089
  867TIP3    H126796   5.178   7.103  17.170  0.7528  1.9567 -0.7424
  867TIP3    H226797   5.328   7.109  17.153  1.0771 -0.7411  0.6912
  868TIP3   OH226798   5.005   7.078  17.096  0.0240 -0.5455 -0.2601
  868TIP3    H126799   4.986   6.998  17.145  0.3592  0.7397  2.1081
  868TIP3    H226800   4.937   7.140  17.123  0.3737  0.2976 -1.2475
  869TIP3   OH226801   1.433   7.572  18.263  0.5493 -0.0114  0.2742
  869TIP3    H126802   1.387   7.637  18.316  1.6772 -0.2490  1.6123
  869TIP3    H226803   1.477   7.622  18.195  0.2386  0.4581  0.4139
  870TIP3   OH226804   5.431   3.879  19.798  0.0819  0.5865  0.4560
  870TIP3    H126805   5.477   3.812  19.849  0.6858  0.2861 -0.4375
  870TIP3    H226806   5.494   3.951  19.790  1.9995 -1.1719 -3.7270
  871TIP3   OH226807   4.954   6.763  16.722  0.3478 -0.2980  0.4236
  871TIP3    H126808   4.881   6.793  16.775  0.3207  0.7409 -0.1698
  871TIP3    H226809   4.916   6.748  16.635  0.8476  0.3076  0.0956
  872TIP3   OH226810   3.084   0.067  18.767  0.2075  0.2025  0.5635
  872TIP3    H126811   3.132  -0.016  18.772  2.3167  1.2897 -0.3922
  872TIP3    H226812   3.058   0.086  18.857  1.3243 -0.5864  1.0652
  873TIP3   OH226813   1.976   2.958  17.195 -0.4577 -0.2236  0.3626
  873TIP3    H126814   1.955   3.052  17.198  1.6143  0.3003  0.1744
  873TIP3    H226815   2.000   2.936  17.285  0.2024 -0.2470  0.1935
  874TIP3   OH226816   6.096   0.569  17.982  0.9664  0.3069 -0.0608
  874TIP3    H126817   6.177   0.615  18.003  0.3731  1.2969  0.1200
  874TIP3    H226818   6.058   0.548  18.067  1.2354 -0.5458 -0.1400
  875TIP3   OH226819   7.220   0.334  17.998 -0.3531  0.3505  0.2050
  875TIP3    H126820   7.226   0.313  17.905 -0.0679  1.6951 -0.0961
  875TIP3    H226821   7.285   0.278  18.040  0.0649  0.2978 -0.5079
  876TIP3   OH226822   2.534   3.812  19.317 -0.0901 -0.3224 -0.2277
  876TIP3    H126823   2.528   3.784  19.226  1.6203  1.1063 -0.8454
  876TIP3    H226824   2.584   3.894  19.314  2.3531 -1.5611  2.1891
  877TIP3   OH226825   7.007   0.970  17.790  0.8287 -0.2945 -0.2078
  877TIP3    H126826   6.970   0.931  17.712  0.1235  1.3286 -0.7176
  877TIP3    H226827   7.035   1.057  17.763  0.2641  0.4356  1.4095
  878TIP3   OH226828   1.618   1.631  16.825  0.6728  0.1391  0.3514
  878TIP3    H126829   1.598   1.597  16.912  0.9857  0.1190  0.4156
  878TIP3    H226830   1.533   1.636  16.781  0.4250  0.8134  0.8918
  879TIP3   OH226831   3.889   4.404  18.080 -0.5268  0.1485  0.6976
  879TIP3    H126832   3.947   4.384  18.007  0.1366  1.8590  0.6940
  879TIP3    H226833   3.944   4.452  18.142 -1.4699  0.1111  1.5890
  880TIP3   OH226834   7.279   1.458  17.756 -0.0459 -0.0311 -0.5109
  880TIP3    H126835   7.360   1.424  17.719  0.1809 -1.6089  1.2854
  880TIP3    H226836   7.297   1.468  17.849 -1.7793  0.0118 -0.1318
  881TIP3   OH226837   5.516   6.911  17.691 -0.2194  0.2270 -0.5646
  881TIP3    H126838   5.458   6.837  17.707  3.1028 -2.0922  2.4903
  881TIP3    H226839   5.565   6.887  17.612 -0.5677  0.1718 -0.7617
  882TIP3   OH226840   7.312   5.231  17.626 -0.6766 -0.2973  0.1435
  882TIP3    H126841   7.397   5.190  17.609 -0.3744  0.0168  0.8509
  882TIP3    H226842   7.332   5.304  17.685 -1.5313 -0.7085  0.9833
  883TIP3   OH226843   4.185   1.586  19.424  0.4274 -0.3215  0.1165
  883TIP3    H126844   4.121   1.590  19.353  0.7977 -0.3227 -0.2199
  883TIP3    H226845   4.236   1.666  19.415  1.1506 -0.8143 -0.2649
  884TIP3   OH226846   4.971   4.174  17.728  0.6864 -0.1626 -0.3436
  884TIP3    H126847   4.951   4.263  17.758  0.7252 -0.6197  1.1054
  884TIP3    H226848   5.017   4.187  17.645  2.9347  1.3171  1.0177
  885TIP3   OH226849   2.497   5.115  18.712 -0.2641 -0.2167 -0.3715
  885TIP3    H126850   2.401   5.113  18.718 -0.2048 -0.0883  0.8200
  885TIP3    H226851   2.526   5.036  18.759  0.2622  0.7100  0.9134
  886TIP3   OH226852   3.708   5.352  19.160  0.1178  0.4586  0.2601
  886TIP3    H126853   3.703   5.430  19.106 -0.7569 -1.1339 -2.1123
  886TIP3    H226854   3.623   5.349  19.205  0.2755  1.0107  0.6060
  887TIP3   OH226855   0.154   1.548  17.975 -0.4831  0.0342 -0.0717
  887TIP3    H126856   0.185   1.459  17.960 -0.1262  0.2584 -0.7147
  887TIP3    H226857   0.075   1.556  17.922 -1.1704 -0.2627  0.8936
  888TIP3   OH226858   4.385   5.717  17.187  0.3099 -0.1393 -0.3343
  888TIP3    H126859   4.384   5.621  17.190  3.7904 -0.3159 -0.0120
  888TIP3    H226860   4.447   5.737  17.116  0.4551  1.8271  0.3005
  889TIP3   OH226861   4.979   0.238  18.480  0.8335  0.0801  0.1157
  889TIP3    H126862   5.060   0.189  18.470  1.1159  0.7589 -1.1466
  889TIP3    H226863   5.006   0.325  18.506  0.5540  0.4574 -0.8252
  890TIP3   OH226864   2.261   3.743  19.386 -0.5628 -0.4052  0.4232
  890TIP3    H126865   2.190   3.806  19.399  0.6288  1.2020 -0.4989
  890TIP3    H226866   2.340   3.796  19.375  0.5130 -2.0487 -0.3531
  891TIP3   OH226867   2.682   2.189  16.603 -0.0078 -0.0446 -0.8337
  891TIP3    H126868   2.667   2.195  16.509  0.3894  0.5258 -0.8634
  891TIP3    H226869   2.608   2.138  16.636  0.4010 -1.1688 -1.5918
  892TIP3   OH226870   4.595   5.745  17.982 -0.6634 -0.9269 -0.3515
  892TIP3    H126871   4.601   5.807  17.910 -1.9065 -1.3431 -0.8283
  892TIP3    H226872   4.672   5.764  18.036 -0.9889  0.9997 -0.4941
  893TIP3   OH226873   4.538   6.131  19.714 -0.0146  0.4387  0.0795
  893TIP3    H126874   4.557   6.062  19.650  0.6081  0.5772  0.1131
  893TIP3    H226875   4.603   6.118  19.783  0.6642  1.5761 -0.3205
  894TIP3   OH226876   0.504   0.828  18.676 -0.1145  0.7471 -0.2529
  894TIP3    H126877   0.594   0.799  18.663  0.0933  1.0026  0.5874
  894TIP3    H226878   0.511   0.920  18.702 -0.5434  0.4944  0.8405
  895TIP3   OH226879   4.617   6.944  18.395  0.2195  0.2666  0.5213
  895TIP3    H126880   4.621   6.973  18.486 -0.0845  0.4057  0.4905
  895TIP3    H226881   4.688   6.989  18.351  0.1353  0.4837  0.6101
  896TIP3   OH226882   4.403   3.473  18.001  0.2404  0.0331  0.4896
  896TIP3    H126883   4.437   3.563  18.008  1.8826 -0.5311  0.2114
  896TIP3    H226884   4.453   3.435  17.929 -0.8850 -0.9311  0.1981
  897TIP3   OH226885   4.883   2.033  18.179  0.3649  0.3562  0.0078
  897TIP3    H126886   4.940   2.042  18.103  0.1011  1.9073 -0.0403
  897TIP3    H226887   4.814   2.098  18.166  0.3062  0.6582  1.5515
  898TIP3   OH226888   4.440   6.757  18.544  0.1443  0.6813  0.3971
  898TIP3    H126889   4.367   6.818  18.557 -1.5286 -0.8356 -1.2338
  898TIP3    H226890   4.514   6.813  18.520 -0.4593  2.2593  1.9885
  899TIP3   OH226891   3.932   3.805  18.957  0.4266  0.4484 -0.4094
  899TIP3    H126892   3.870   3.843  18.895  0.1006  1.4398  0.5006
  899TIP3    H226893   3.950   3.875  19.019  1.3818 -0.2707  0.1554
  900TIP3   OH226894   2.561   2.003  17.349 -0.1493  0.4834 -0.5670
  900TIP3    H126895   2.584   1.911  17.358  1.0816  0.8507  0.2549
  900TIP3    H226896   2.465   2.005  17.359 -0.0772 -0.5844  0.4876
  901TIP3   OH226897   3.392   7.278  17.092 -0.4227  0.2821  0.3032
  901TIP3    H126898   3.474   7.269  17.139 -0.4440  1.6772  0.6717
  901TIP3    H226899   3.408   7.238  17.007 -0.0724 -1.3992  1.1313
  902TIP3   OH226900   0.331   7.554  18.964  0.0918 -0.0120 -0.3121
  902TIP3    H126901   0.242   7.519  18.971  0.2686 -0.2326  1.3771
  902TIP3    H226902   0.385   7.477  18.948  0.0553  0.0288 -0.6327
  903TIP3   OH226903   1.590   4.622  19.296 -0.2499  0.8017 -0.1515
  903TIP3    H126904   1.516   4.579  19.339  0.2823 -0.7394 -0.7079
  903TIP3    H226905   1.550   4.692  19.244 -1.3974 -0.3042 -0.8122
  904TIP3   OH226906   5.253   4.954  17.480  0.1226 -0.0251 -0.1955
  904TIP3    H126907   5.255   5.036  17.431  0.1325  0.4549  0.5978
  904TIP3    H226908   5.174   4.910  17.450  0.0956  0.2904 -0.5971
  905TIP3   OH226909   2.172   4.345  18.070 -0.4876  0.0302  0.4985
  905TIP3    H126910   2.226   4.287  18.124  0.4277 -0.3433 -0.7604
  905TIP3    H226911   2.132   4.406  18.132  0.4767 -0.4099  1.5927
  906TIP3   OH226912   3.204   2.878  17.744 -0.4734  0.2434  0.0617
  906TIP3    H126913   3.173   2.828  17.668  0.8046  0.1902 -0.4415
  906TIP3    H226914   3.266   2.941  17.708 -0.2031  0.5326  1.0082
  907TIP3   OH226915   5.718   7.257  18.407 -0.4847  0.3906 -0.1511
  907TIP3    H126916   5.725   7.318  18.480  0.0939 -0.0508  0.1727
  907TIP3    H226917   5.647   7.197  18.432  0.1707 -0.1823  0.3799
  908TIP3   OH226918   2.556   5.587  18.793 -0.3387  0.0305 -0.1876
  908TIP3    H126919   2.521   5.605  18.705 -0.4895 -2.9197 -0.8226
  908TIP3    H226920   2.621   5.519  18.779  1.9942  1.7014  1.6769
  909TIP3   OH226921   5.057   7.293  19.009 -0.0264 -0.1295  0.0818
  909TIP3    H126922   5.096   7.223  19.062  0.1537 -1.0800 -1.2312
  909TIP3    H226923   5.127   7.358  19.001 -0.4524  0.6231  1.9679
  910TIP3   OH226924   3.861   4.627  18.441 -0.0963 -0.5434 -0.6153
  910TIP3    H126925   3.898   4.565  18.503  0.8290 -1.1686 -1.7431
  910TIP3    H226926   3.774   4.592  18.420 -0.7956  0.1513  0.9433
  911TIP3   OH226927   1.581   7.368  18.150  0.1405  0.0768  0.2569
  911TIP3    H126928   1.629   7.371  18.067  0.7104 -0.7181  0.5496
  911TIP3    H226929   1.531   7.450  18.152  0.1950  0.1451 -0.8242
  912TIP3   OH226930   4.912   4.770  19.199 -0.0940  0.8535 -0.2899
  912TIP3    H126931   4.987   4.779  19.141  0.8545 -0.0232  0.7627
  912TIP3    H226932   4.906   4.855  19.244 -0.1368  1.1412 -0.8301
  913TIP3   OH226933   6.335   5.057  18.829  0.2860  0.2540 -0.1952
  913TIP3    H126934   6.361   5.147  18.812 -0.0359  0.3623 -0.1181
  913TIP3    H226935   6.240   5.057  18.820  0.2134  0.0820  0.5284
  914TIP3   OH226936   3.095   4.027  17.112  0.4435  0.1473  0.4507
  914TIP3    H126937   3.173   4.058  17.160  0.9536 -1.3435  0.6333
  914TIP3    H226938   3.107   3.932  17.106 -0.0873  0.1741 -1.8157
  915TIP3   OH226939   3.503   5.226  19.496 -0.1400 -0.2646 -0.4888
  915TIP3    H126940   3.527   5.136  19.475 -1.7918 -0.6271 -0.9820
  915TIP3    H226941   3.410   5.231  19.475 -0.4315  1.1336  0.9638
  916TIP3   OH226942  -0.007   7.250  19.490  0.1404 -0.5189  0.5204
  916TIP3    H126943   0.074   7.263  19.539  0.2074  0.9902  0.0556
  916TIP3    H226944  -0.077   7.259  19.555  0.2543  0.8757  0.4850
  917TIP3   OH226945   0.974   3.861  18.095 -0.1319 -0.3812 -0.1726
  917TIP3    H126946   0.891   3.887  18.136 -0.0336 -0.0054 -0.2121
  917TIP3    H226947   1.030   3.837  18.168  0.2796  0.9653 -0.0265
  918TIP3   OH226948   3.870   7.382  19.481  0.0071  0.0090 -0.0250
  918TIP3    H126949   3.828   7.386  19.395 -3.2544 -1.7213  1.2737
  918TIP3    H226950   3.851   7.467  19.521  1.6091  0.8518 -0.9633
  919TIP3   OH226951   6.742   1.938  17.458 -0.4972  0.0747 -0.0868
  919TIP3    H126952   6.781   1.873  17.516  2.2355  0.3363 -1.5193
  919TIP3    H226953   6.815   1.977  17.411 -2.5106  0.1534 -3.4844
  920TIP3   OH226954   6.955   6.835  17.927  0.1423 -0.5329  0.0755
  920TIP3    H126955   6.981   6.773  17.995  0.6117  1.2691  1.6309
  920TIP3    H226956   6.996   6.918  17.952 -1.9299  0.8929 -0.8776
  921TIP3   OH226957   2.631   4.925  18.876  0.2463  0.1538  0.2485
  921TIP3    H126958   2.636   4.982  18.953  1.3792 -0.5578  0.7136
  921TIP3    H226959   2.632   4.836  18.912  3.0420 -0.2632 -0.6110
  922TIP3   OH226960   7.662   0.929  18.151 -0.1955  0.1869 -0.1060
  922TIP3    H126961   7.595   0.973  18.203 -1.0075  0.1297 -1.0769
  922TIP3    H226962   7.712   0.878  18.215 -1.9837 -0.9226  0.4861
  923TIP3   OH226963   4.646   5.219  16.984 -0.0307  0.3421 -0.1680
  923TIP3    H126964   4.625   5.310  17.006  0.3774  0.0208  1.7199
  923TIP3    H226965   4.590   5.200  16.909  0.5930  2.4424 -1.2559
  924TIP3   OH226966   0.553   1.143  17.367 -0.7526  0.4228 -0.0225
  924TIP3    H126967   0.531   1.052  17.346 -1.1544 -0.3064  3.0431
  924TIP3    H226968   0.638   1.157  17.326 -0.8756 -1.1885 -0.9101
  925TIP3   OH226969   5.197   0.844  19.535 -0.5284 -0.3629 -0.8687
  925TIP3    H126970   5.287   0.828  19.564 -0.0172  2.8005 -0.3082
  925TIP3    H226971   5.194   0.938  19.518 -3.8158 -0.3130 -0.6382
  926TIP3   OH226972   1.192   6.963  18.363  0.2770  0.6771  0.2899
  926TIP3    H126973   1.237   6.929  18.440 -0.1139  0.9561  0.6380
  926TIP3    H226974   1.103   6.928  18.369  0.0346  1.2838  0.3511
  927TIP3   OH226975   6.718   1.528  19.255 -0.2988 -0.1993  0.2629
  927TIP3    H126976   6.667   1.448  19.268  0.0611 -0.2537  1.4194
  927TIP3    H226977   6.793   1.501  19.203 -0.6203 -0.4377 -0.0795
  928TIP3   OH226978   5.783   2.078  18.262 -0.1613 -0.4067 -0.3273
  928TIP3    H126979   5.706   2.107  18.212 -1.5445 -1.2207  1.2385
  928TIP3    H226980   5.854   2.133  18.230 -1.6669  1.3289 -0.8866
  929TIP3   OH226981   0.331   2.491  18.700  0.0580 -0.1527 -0.2410
  929TIP3    H126982   0.394   2.419  18.706  0.6162  0.4090  1.3606
  929TIP3    H226983   0.378   2.559  18.650 -0.0348 -0.4618 -0.7545
  930TIP3   OH226984   7.097   4.547  18.990 -0.6681  0.1902 -0.3886
  930TIP3    H126985   7.077   4.483  19.057 -0.4501  1.0937  0.5602
  930TIP3    H226986   7.020   4.548  18.933 -0.8089 -0.6517 -0.2159
  931TIP3   OH226987   4.596   2.912  17.167  0.4957 -0.4091 -0.0343
  931TIP3    H126988   4.596   2.834  17.110 -0.2491 -0.7585  0.4332
  931TIP3    H226989   4.645   2.884  17.244  2.3394  0.3646 -0.8740
  932TIP3   OH226990   6.568   5.955  18.409  0.2004  0.1782  0.0063
  932TIP3    H126991   6.585   5.928  18.318 -1.3675 -0.3511 -0.1653
  932TIP3    H226992   6.519   6.037  18.401 -0.6255 -0.2653  0.3169
  933TIP3   OH226993   0.047   3.389  17.231 -0.0140 -0.0784  0.0151
  933TIP3    H126994   0.088   3.303  17.222  0.2139 -0.0248  0.5129
  933TIP3    H226995  -0.017   3.377  17.301 -0.2005  0.0791 -0.1279
  934TIP3   OH226996   5.683   7.399  17.176  0.5247 -0.1931  0.1039
  934TIP3    H126997   5.724   7.457  17.241  1.7445  0.4140 -1.1482
  934TIP3    H226998   5.607   7.447  17.145  0.6880  0.0926  0.1409
  935TIP3   OH226999   6.257   4.632  16.992 -0.1106  0.5675 -0.7588
  935TIP3    H127000   6.317   4.593  16.928 -1.0506 -0.1240 -1.2394
  935TIP3    H227001   6.294   4.610  17.077  0.7770  0.8934 -1.0508
  936TIP3   OH227002   3.491   6.103  19.115 -0.2783  0.0556 -0.0403
  936TIP3    H127003   3.555   6.140  19.177  0.0320 -3.9166  2.3443
  936TIP3    H227004   3.543   6.075  19.040  0.0994  0.6517 -0.0076
  937TIP3   OH227005   6.457   7.366  18.901  0.4597 -0.1696  0.2318
  937TIP3    H127006   6.491   7.449  18.936  1.9407 -1.2380  1.4376
  937TIP3    H227007   6.364   7.368  18.923  0.8635  0.3090  2.1240
  938TIP3   OH227008   2.204   2.201  19.215  0.0148  0.0253  0.3566
  938TIP3    H127009   2.272   2.268  19.210 -0.5047  0.4974 -0.6268
  938TIP3    H227010   2.244   2.131  19.267  1.6941 -0.2212 -1.1616
  939TIP3   OH227011   0.552   2.843  18.058 -0.3274  0.1700 -0.3653
  939TIP3    H127012   0.573   2.926  18.016 -0.6499 -0.2912 -1.4557
  939TIP3    H227013   0.456   2.840  18.057 -0.3728  0.4450  1.0033
  940TIP3   OH227014   2.369   4.634  19.190 -0.2557 -0.1890  0.2831
  940TIP3    H127015   2.340   4.633  19.282 -1.0413 -1.0951  0.0417
  940TIP3    H227016   2.341   4.549  19.156 -1.4082  0.7487 -1.2345
  941TIP3   OH227017   3.825   2.869  17.175  0.1011  0.0850 -0.2686
  941TIP3    H127018   3.839   2.775  17.192 -0.7529  0.0460  0.2757
  941TIP3    H227019   3.732   2.883  17.192  0.5409  1.3629  1.3677
  942TIP3   OH227020   4.219   6.835  16.546 -0.0077 -0.1036 -0.2905
  942TIP3    H127021   4.283   6.794  16.604  0.0502  0.1717 -0.1576
  942TIP3    H227022   4.151   6.867  16.605  0.2588  0.5496 -0.3349
  943TIP3   OH227023   7.250   7.208  17.535 -0.7490 -0.1812  0.1740
  943TIP3    H127024   7.250   7.303  17.547 -2.2702 -0.0091 -0.9455
  943TIP3    H227025   7.339   7.188  17.507 -0.5121  0.9657  0.0377
  944TIP3   OH227026   1.001   0.406  17.418  0.0271 -0.4501 -0.3118
  944TIP3    H127027   0.910   0.379  17.408 -0.2743  0.6218 -0.5274
  944TIP3    H227028   1.035   0.349  17.487 -0.7388 -0.9963 -0.3682
  945TIP3   OH227029   4.124   0.875  18.650  0.0267 -0.0054  0.2277
  945TIP3    H127030   4.071   0.908  18.722 -0.8342 -1.0176  0.0911
  945TIP3    H227031   4.193   0.940  18.639  1.3150 -0.7066  3.1660
  946TIP3   OH227032   2.022   4.569  19.581 -0.2576 -0.2904 -0.4123
  946TIP3    H127033   2.092   4.504  19.589  0.2967  0.4870  1.6798
  946TIP3    H227034   2.043   4.618  19.502  1.3550 -0.3550 -0.0598
  947TIP3   OH227035   6.017   2.210  17.942 -0.2298 -0.2448  0.0678
  947TIP3    H127036   6.015   2.256  18.026  1.4550  1.1937 -0.6233
  947TIP3    H227037   6.050   2.123  17.963  0.1816  0.1038  0.8933
  948TIP3   OH227038   4.601   1.647  19.583  0.4413  0.1218  0.4504
  948TIP3    H127039   4.548   1.569  19.604 -0.9803  0.9268  0.0166
  948TIP3    H227040   4.690   1.613  19.572  0.0185 -1.3115  1.1261
  949TIP3   OH227041   0.758   4.568  18.839  0.2237 -0.7941  0.5497
  949TIP3    H127042   0.731   4.658  18.858  0.2924 -1.1518  2.4835
  949TIP3    H227043   0.854   4.569  18.848  0.1754 -1.1756  1.1920
  950TIP3   OH227044   7.676   1.871  18.226 -0.2293 -0.3285  0.4665
  950TIP3    H127045   7.760   1.825  18.219  0.3978  1.0523 -1.9518
  950TIP3    H227046   7.685   1.924  18.306  0.0092 -2.3282  1.8579
  951TIP3   OH227047   0.777   4.918  19.392 -0.5158  0.3860  0.1975
  951TIP3    H127048   0.697   4.881  19.429 -0.1088 -0.6114  0.1181
  951TIP3    H227049   0.784   4.877  19.306  0.4267 -0.0555  0.4705
  952TIP3   OH227050   6.601   4.578  19.634 -0.2692 -0.2959  1.1994
  952TIP3    H127051   6.674   4.639  19.641  0.7955 -1.3858  0.1175
  952TIP3    H227052   6.527   4.632  19.607  0.7237  0.4851 -0.0864
  953TIP3   OH227053   5.036   0.699  17.655 -0.0292 -0.1944  0.0120
  953TIP3    H127054   5.101   0.630  17.673  1.7085  1.8912  2.5084
  953TIP3    H227055   5.075   0.751  17.585  0.4277  0.3070  0.6252
  954TIP3   OH227056   0.483   1.187  18.759 -0.3522 -0.2059 -0.3590
  954TIP3    H127057   0.467   1.258  18.697  1.3084  0.2044 -0.3734
  954TIP3    H227058   0.465   1.225  18.845 -0.6862 -0.1555 -0.4511
  955TIP3   OH227059   0.101   6.768  17.138 -0.1050 -0.1751  0.2542
  955TIP3    H127060   0.036   6.829  17.103  0.9485  0.9610  0.1975
  955TIP3    H227061   0.065   6.740  17.222 -0.7917  0.2091  0.0983
  956TIP3   OH227062   0.887   7.502  18.417 -0.0166 -0.2134  0.0284
  956TIP3    H127063   0.967   7.552  18.407  1.1410 -2.0496 -0.2850
  956TIP3    H227064   0.818   7.568  18.424  1.1388  1.3980 -2.5368
  957TIP3   OH227065   1.634   6.133  18.795 -0.8784  0.0352  0.6277
  957TIP3    H127066   1.711   6.080  18.812  0.0963  1.9488  2.6729
  957TIP3    H227067   1.650   6.215  18.842 -3.6490  0.9596  0.1554
  958TIP3   OH227068   5.717   6.145  17.878 -0.2170 -0.0131  0.3732
  958TIP3    H127069   5.676   6.221  17.921 -1.0282 -0.6150  0.6970
  958TIP3    H227070   5.759   6.181  17.800 -1.2766  0.6648  0.0917
  959TIP3   OH227071   2.165   1.274  17.067 -0.7319 -0.3255  0.1151
  959TIP3    H127072   2.252   1.240  17.047 -1.0795 -1.0624 -0.1797
  959TIP3    H227073   2.112   1.196  17.086 -1.8653 -0.0865 -1.7827
  960TIP3   OH227074   1.362   5.673  17.174 -0.5264  0.1502  0.0008
  960TIP3    H127075   1.334   5.664  17.083  0.3693  1.2140 -0.4099
  960TIP3    H227076   1.332   5.761  17.199 -1.6479 -0.5142  1.0705
  961TIP3   OH227077   2.613   6.268  18.248 -0.9909 -0.5952 -0.7104
  961TIP3    H127078   2.611   6.263  18.152  1.1757  0.1430 -0.8409
  961TIP3    H227079   2.587   6.358  18.268 -0.2108 -0.3660 -0.6953
  962TIP3   OH227080   7.400   6.319  18.761 -0.2151  0.1195 -0.2521
  962TIP3    H127081   7.468   6.334  18.696  1.0778  1.0302  1.2438
  962TIP3    H227082   7.436   6.252  18.819  0.4356  2.1098  1.8162
  963TIP3   OH227083   0.253   2.473  19.888  0.5629  0.1867  0.5175
  963TIP3    H127084   0.242   2.434  19.975 -0.6501  1.0610  0.7828
  963TIP3    H227085   0.213   2.410  19.828  1.5504 -0.4988  0.5514
  964TIP3   OH227086   3.637   1.554  17.623 -0.0173 -0.0895  0.4286
  964TIP3    H127087   3.664   1.573  17.713 -1.7666 -0.8595  1.1659
  964TIP3    H227088   3.645   1.459  17.614  1.6920  0.1286 -0.8027
  965TIP3   OH227089   6.729   2.984  19.157 -0.0969 -0.2673  0.2443
  965TIP3    H127090   6.762   3.074  19.156  0.1974 -0.3775 -0.8434
  965TIP3    H227091   6.800   2.931  19.120  0.2419 -1.1618  2.0073
  966TIP3   OH227092   2.749   6.895  17.423 -0.2333 -0.2051 -0.3362
  966TIP3    H127093   2.714   6.807  17.430 -1.4798  0.4041  2.5059
  966TIP3    H227094   2.825   6.896  17.483 -0.1240  0.5851 -0.4673
  967TIP3   OH227095   3.413   0.896  18.571 -0.0342  0.0569  0.1397
  967TIP3    H127096   3.386   0.974  18.521 -3.5738  1.4791  3.7194
  967TIP3    H227097   3.387   0.822  18.516  0.5591  1.3699 -2.0275
  968TIP3   OH227098   3.118   1.057  17.272 -0.1471 -0.0309 -0.3731
  968TIP3    H127099   3.100   1.016  17.187 -0.9546  0.2335 -0.3311
  968TIP3    H227100   3.092   1.149  17.260  0.4399  0.1842 -0.0658
  969TIP3   OH227101   4.604   3.299  18.798  0.3160 -0.0137  0.2990
  969TIP3    H127102   4.583   3.221  18.747 -0.5945  0.2550  0.2421
  969TIP3    H227103   4.519   3.338  18.818  0.7350  0.6793  0.7784
  970TIP3   OH227104   7.344   2.931  16.918 -0.0987 -0.7454 -0.5216
  970TIP3    H127105   7.278   2.871  16.884 -0.1341 -0.8115 -0.3389
  970TIP3    H227106   7.374   2.979  16.841 -0.6682 -0.4112 -0.5426
  971TIP3   OH227107   3.512   7.747  17.981 -0.5017 -0.1388 -0.6398
  971TIP3    H127108   3.509   7.682  17.912 -2.5739  0.3777 -1.1030
  971TIP3    H227109   3.451   7.815  17.953  1.2480  1.8357  0.0198
  972TIP3   OH227110   5.130   6.509  18.560 -0.5264 -0.4928  0.1749
  972TIP3    H127111   5.053   6.524  18.505  0.5055  1.6310 -0.7856
  972TIP3    H227112   5.124   6.416  18.584 -2.3552 -0.8603 -1.4214
  973TIP3   OH227113   3.857   1.767  17.613 -0.0464 -0.4996 -0.4732
  973TIP3    H127114   3.793   1.696  17.622  0.9211 -1.1212  3.0843
  973TIP3    H227115   3.935   1.723  17.577  0.6341 -1.4484  1.9474
  974TIP3   OH227116   6.903   5.482  19.669  0.1592  0.0643  0.8697
  974TIP3    H127117   6.889   5.576  19.680  1.7761  0.3593  0.6289
  974TIP3    H227118   6.826   5.452  19.621  0.7605  1.7444 -1.3272
  975TIP3   OH227119   0.418   6.601  19.025 -0.8776  0.3409 -0.0613
  975TIP3    H127120   0.387   6.622  18.937 -0.4869  2.2178  0.2218
  975TIP3    H227121   0.350   6.635  19.084 -1.5764 -1.6708  0.4001
  976TIP3   OH227122   3.971   0.588  16.533  0.1624  0.6464  0.1997
  976TIP3    H127123   4.016   0.644  16.469  0.9034 -1.4399 -1.2271
  976TIP3    H227124   4.041   0.540  16.577 -0.4797 -0.5396 -0.0050
  977TIP3   OH227125   6.372   6.539  18.620  0.4447  0.1382 -0.1485
  977TIP3    H127126   6.302   6.585  18.666 -0.7294 -1.7426  0.0661
  977TIP3    H227127   6.416   6.488  18.687 -0.3472 -1.4943 -0.7980
  978TIP3   OH227128   4.597   5.148  17.811  0.3391 -0.3523 -0.1649
  978TIP3    H127129   4.569   5.181  17.726 -0.4661 -0.3368  0.1007
  978TIP3    H227130   4.559   5.208  17.874  1.4679  0.0119  0.1951
  979TIP3   OH227131   2.411   1.681  17.990 -0.2185 -0.5418  0.3255
  979TIP3    H127132   2.381   1.605  18.038  0.5486 -1.0329  0.0475
  979TIP3    H227133   2.332   1.716  17.947 -0.1713 -2.8537 -1.8748
  980TIP3   OH227134   6.306   4.684  18.057  0.0618 -0.1185  0.0770
  980TIP3    H127135   6.230   4.700  18.112  0.7347  1.5738  0.5900
  980TIP3    H227136   6.331   4.771  18.025  0.5724 -0.8838 -1.7232
  981TIP3   OH227137   7.680   1.095  19.312  0.1210 -0.4871 -0.2564
  981TIP3    H127138   7.686   1.092  19.216  2.6438  0.9405 -0.2373
  981TIP3    H227139   7.753   1.041  19.342 -0.5224 -0.7493  0.8850
  982TIP3   OH227140   7.509   2.608  17.055 -0.2496  0.0224  0.2153
  982TIP3    H127141   7.530   2.519  17.028  1.2407  0.3997  0.0318
  982TIP3    H227142   7.420   2.603  17.089 -0.0259 -1.6334  0.6419
  983TIP3   OH227143   0.173   1.631  18.304 -0.1393 -0.0198  0.0910
  983TIP3    H127144   0.248   1.688  18.285  0.2830 -0.4116  0.5410
  983TIP3    H227145   0.166   1.574  18.228 -0.3266  0.3821 -0.1947
  984TIP3   OH227146   3.574   7.192  16.735 -0.0361  0.0573 -0.1213
  984TIP3    H127147   3.479   7.200  16.728 -0.2348 -0.5479  1.4631
  984TIP3    H227148   3.606   7.282  16.734 -0.6071  0.2637 -0.7055
  985TIP3   OH227149   6.996   7.676  16.672 -0.5696  0.0426 -0.4830
  985TIP3    H127150   6.997   7.605  16.608 -2.6837  0.2986 -0.8655
  985TIP3    H227151   6.903   7.696  16.685 -0.0872  1.7833  0.6946
  986TIP3   OH227152   2.775   1.539  18.292  0.5041 -0.2139 -0.8006
  986TIP3    H127153   2.759   1.564  18.201 -0.0225  0.2640 -0.5837
  986TIP3    H227154   2.870   1.528  18.298  0.4722 -1.1161 -1.6232
  987TIP3   OH227155   7.308   0.848  17.791 -0.3695 -0.6667  0.0863
  987TIP3    H127156   7.300   0.901  17.871 -2.3353 -1.4719  0.4636
  987TIP3    H227157   7.304   0.758  17.822 -1.8751 -0.9817 -0.9682
  988TIP3   OH227158   3.054   6.149  18.901  0.0586  0.5866 -0.4886
  988TIP3    H127159   3.095   6.227  18.865 -1.8785  1.0823 -1.7680
  988TIP3    H227160   3.081   6.078  18.843  1.2355  0.3907  0.2592
  989TIP3   OH227161   7.223   3.450  18.113 -0.0744  0.0070  0.0534
  989TIP3    H127162   7.164   3.520  18.140  0.5424  0.0733  1.3206
  989TIP3    H227163   7.197   3.375  18.167  1.2023  0.1341  0.8752
  990TIP3   OH227164   7.047   2.203  19.541  0.1315  0.2714 -0.0867
  990TIP3    H127165   7.077   2.118  19.574  0.3007  0.9437  1.5740
  990TIP3    H227166   6.954   2.189  19.521  0.1589 -0.3155  0.1718
  991TIP3   OH227167   6.832   7.036  19.419  0.0423  0.6763  0.6061
  991TIP3    H127168   6.862   7.122  19.388 -0.2909  0.4876 -0.2712
  991TIP3    H227169   6.896   6.975  19.384 -0.0340  0.5132  0.7532
  992TIP3   OH227170   4.314   5.126  19.085  0.0228  0.0008 -0.1734
  992TIP3    H127171   4.297   5.064  19.014  0.2308 -1.0049  0.6276
  992TIP3    H227172   4.408   5.118  19.102  0.1026  0.7379 -0.2312
  993TIP3   OH227173   0.045   5.923  17.657  0.4709  0.2014  0.6428
  993TIP3    H127174  -0.006   5.934  17.737  2.4010  0.2715  1.9397
  993TIP3    H227175   0.079   5.834  17.663  0.4049  0.1025 -0.2765
  994TIP3   OH227176   3.005   1.163  18.709  0.3812  0.0076 -0.2238
  994TIP3    H127177   3.018   1.258  18.702  0.3567  0.0546  0.3231
  994TIP3    H227178   3.065   1.136  18.779  0.7721 -0.4627 -0.7366
  995TIP3   OH227179   3.042   1.915  18.550 -0.4333  0.2762  0.4049
  995TIP3    H127180   3.004   1.857  18.616 -1.1478 -1.0717 -1.1515
  995TIP3    H227181   3.135   1.891  18.549 -0.9362 -1.8481 -1.1425
  996TIP3   OH227182   4.738   3.366  18.068 -0.4771 -0.0566  0.2009
  996TIP3    H127183   4.788   3.386  18.147  1.3397 -0.1911 -0.8612
  996TIP3    H227184   4.768   3.430  18.004 -3.2809  1.2869  0.0561
  997TIP3   OH227185   5.697   2.369  17.102 -0.6229  0.4299 -0.5770
  997TIP3    H127186   5.762   2.408  17.044 -0.9733 -0.7468 -1.8294
  997TIP3    H227187   5.657   2.299  17.050 -1.0672 -0.5929  1.0376
  998TIP3   OH227188   4.932   7.164  18.507 -0.4096  0.4608  0.2347
  998TIP3    H127189   5.025   7.144  18.497 -0.1713  2.1147 -1.3569
  998TIP3    H227190   4.890   7.119  18.435 -0.7463  0.3601  0.4938
  999TIP3   OH227191   2.615   0.403  18.849 -0.0131 -0.0013 -0.7526
  999TIP3    H127192   2.560   0.466  18.802 -1.1424  0.9659  1.6957
  999TIP3    H227193   2.699   0.447  18.857 -0.5203  0.8358  0.1322
 1000TIP3   OH227194   2.824   4.454  17.492  0.0006 -0.5630 -0.3371
 1000TIP3    H127195   2.859   4.477  17.406  3.6977 -1.2734  0.7753
 1000TIP3    H227196   2.764   4.382  17.475 -0.4672  0.2452 -2.4230
 1001TIP3   OH227197   2.260   4.717  18.009 -0.2093 -0.8018 -0.0284
 1001TIP3    H127198   2.336   4.751  17.962 -0.6830 -0.8097 -0.8066
 1001TIP3    H227199   2.297   4.654  18.071  0.3764 -1.2063 -0.7721
 1002TIP3   OH227200   3.110   6.812  18.160  0.1525 -0.7876 -0.0498
 1002TIP3    H127201   3.121   6.902  18.130 -0.5022 -0.2352  1.2959
 1002TIP3    H227202   3.067   6.768  18.086 -3.4315  1.0535  0.6995
 1003TIP3   OH227203   0.153   4.863  18.721  0.8405 -0.0955  0.1332
 1003TIP3    H127204   0.238   4.887  18.682  0.3669  0.4176 -0.6213
 1003TIP3    H227205   0.165   4.773  18.751  2.3556  0.6910  2.1007
 1004TIP3   OH227206   0.506   3.508  17.785  0.5320 -0.1366 -0.2624
 1004TIP3    H127207   0.528   3.416  17.769  1.0045 -0.2145  0.7476
 1004TIP3    H227208   0.461   3.537  17.705 -2.1514 -2.0183  0.4178
 1005TIP3   OH227209   7.187   3.335  19.155 -0.5754  0.7872  0.6094
 1005TIP3    H127210   7.200   3.333  19.060  0.6612  0.7097  0.7664
 1005TIP3    H227211   7.227   3.417  19.184 -1.0693  0.8798  1.0546
 1006TIP3   OH227212   3.992   1.662  19.174  0.2557  0.0038  0.1012
 1006TIP3    H127213   3.966   1.697  19.089  0.7878 -0.7265 -0.3762
 1006TIP3    H227214   4.057   1.724  19.207 -0.2497  0.5048  0.1694
 1007TIP3   OH227215   0.873   5.751  17.440  0.0927 -0.2844  0.1031
 1007TIP3    H127216   0.786   5.711  17.447 -0.1056  0.2296  0.6671
 1007TIP3    H227217   0.918   5.724  17.520 -0.1940  0.9529  0.7058
 1008TIP3   OH227218   0.631   4.544  17.157  0.9763 -0.4116 -0.6123
 1008TIP3    H127219   0.650   4.553  17.251 -0.5257 -1.2252 -0.1966
 1008TIP3    H227220   0.611   4.633  17.129 -0.4818 -0.4183  0.3102
 1009TIP3   OH227221   4.656   5.982  17.446 -0.2200  0.2319 -0.3336
 1009TIP3    H127222   4.596   6.004  17.375  0.1740  0.8287 -0.4929
 1009TIP3    H227223   4.730   5.940  17.403 -1.1119 -1.7808 -0.0006
 1010TIP3   OH227224   6.532   0.363  17.807  0.4754  0.2344  0.4725
 1010TIP3    H127225   6.545   0.270  17.821 -0.9803  0.0387  0.6201
 1010TIP3    H227226   6.536   0.401  17.895  1.6371  0.4126  0.3628
 1011TIP3   OH227227   4.440   4.752  19.085 -0.1187 -0.0685  0.4496
 1011TIP3    H127228   4.378   4.718  19.020 -1.0239  0.6604  0.9076
 1011TIP3    H227229   4.526   4.740  19.044 -0.6638  0.3501 -0.8791
 1012TIP3   OH227230   3.279   6.719  19.407 -0.1636 -0.1794 -0.1327
 1012TIP3    H127231   3.260   6.655  19.339 -1.5587 -0.5859  0.5879
 1012TIP3    H227232   3.260   6.673  19.489  2.6058 -0.1098  0.6678
 1013TIP3   OH227233   4.328   7.324  17.345  0.8766  0.2142  0.0874
 1013TIP3    H127234   4.259   7.365  17.293 -0.1992 -0.6528  0.7731
 1013TIP3    H227235   4.409   7.343  17.298 -0.0449 -0.5197 -1.9197
 1014TIP3   OH227236   4.515   3.754  16.868 -0.0561 -0.1676  0.4383
 1014TIP3    H127237   4.525   3.736  16.775  3.3684  1.8769  0.2408
 1014TIP3    H227238   4.603   3.742  16.904 -0.6235  1.8979  2.8196
 1015TIP3   OH227239   5.270   5.262  17.606  0.3382  0.0215  0.3531
 1015TIP3    H127240   5.220   5.342  17.589  0.0904  0.2845  2.0729
 1015TIP3    H227241   5.355   5.277  17.565 -0.4756  0.1904 -1.3274
 1016TIP3   OH227242   0.838   6.874  18.938 -0.3254  0.2962 -0.3661
 1016TIP3    H127243   0.814   6.876  18.845 -1.2415  0.1038 -0.1466
 1016TIP3    H227244   0.807   6.789  18.969 -0.0791  0.3854  0.1341
 1017TIP3   OH227245   4.897   2.291  18.968 -0.0170 -0.0164  0.3684
 1017TIP3    H127246   4.857   2.326  18.888  0.3082  0.9411  0.6065
 1017TIP3    H227247   4.839   2.321  19.038 -0.8606 -1.7092  0.4277
 1018TIP3   OH227248   3.401   6.854  18.824 -0.4866  0.1852 -0.4338
 1018TIP3    H127249   3.323   6.857  18.880 -0.5429 -0.3221 -0.4820
 1018TIP3    H227250   3.475   6.859  18.885 -0.5539  0.6190 -0.3843
 1019TIP3   OH227251   0.006   6.082  17.269  0.6884  0.0656 -0.1844
 1019TIP3    H127252   0.060   6.146  17.221  0.8549  0.9209  1.0791
 1019TIP3    H227253   0.069   6.026  17.313  0.6488  1.5464  1.9276
 1020TIP3   OH227254   5.788   3.733  18.848  0.2925 -0.4892  0.4994
 1020TIP3    H127255   5.749   3.649  18.824  0.1725 -0.2550 -0.1529
 1020TIP3    H227256   5.715   3.784  18.884 -0.0369 -0.0375 -0.7567
 1021TIP3   OH227257   1.034   7.005  19.104  0.3937 -0.3673  0.3103
 1021TIP3    H127258   1.047   7.087  19.056  2.5545 -0.4900  0.5457
 1021TIP3    H227259   0.965   6.959  19.056  0.0356  1.0456 -0.5733
 1022TIP3   OH227260   2.035   5.990  18.683  0.1204 -0.7386  0.2658
 1022TIP3    H127261   1.970   5.960  18.747  0.1943 -0.6577  0.3797
 1022TIP3    H227262   2.063   6.075  18.716 -0.0390 -0.5747 -0.0220
 1023TIP3   OH227263   0.136   6.367  18.992 -0.2271 -0.1114  0.1012
 1023TIP3    H127264   0.137   6.446  18.937 -1.0960 -0.1648 -0.0052
 1023TIP3    H227265   0.222   6.328  18.979  0.7238  1.5181  1.1885
 1024TIP3   OH227266   5.489   0.438  18.170  0.1747  0.0445  0.0071
 1024TIP3    H127267   5.471   0.439  18.076 -1.4769  1.7794  0.2755
 1024TIP3    H227268   5.403   0.422  18.210  0.8860 -0.8599  1.2429
 1025TIP3   OH227269   6.870   6.478  17.906  0.4351  0.3675 -0.2435
 1025TIP3    H127270   6.785   6.522  17.898  0.5656  0.4960 -0.9932
 1025TIP3    H227271   6.919   6.506  17.829  1.8842  1.8328  1.1519
 1026TIP3   OH227272   6.877   1.707  18.142 -0.3546  0.3153  0.0404
 1026TIP3    H127273   6.949   1.685  18.201 -0.7265  1.4420  0.9544
 1026TIP3    H227274   6.813   1.638  18.156  0.5461 -0.7212 -0.8139
 1027TIP3   OH227275   0.343   2.413  16.879 -0.4359  0.1401  0.0717
 1027TIP3    H127276   0.254   2.378  16.879 -0.1989 -0.4849  0.3283
 1027TIP3    H227277   0.350   2.461  16.797 -0.9030 -0.0916 -0.1067
 1028TIP3   OH227278   0.226   0.789  18.034 -0.2749  0.2416 -0.0220
 1028TIP3    H127279   0.296   0.840  17.994  1.3394 -1.7670  0.0634
 1028TIP3    H227280   0.267   0.746  18.109 -1.5848 -1.0052  0.0438
 1029TIP3   OH227281   0.519   2.574  17.022 -0.2111 -0.2668  0.1850
 1029TIP3    H127282   0.468   2.520  16.962 -0.5063  0.3576 -0.1317
 1029TIP3    H227283   0.602   2.589  16.976 -0.3039 -0.0757  0.0796
 1030TIP3   OH227284   5.118   1.721  18.663 -0.3096  0.0013 -0.1067
 1030TIP3    H127285   5.036   1.769  18.655 -1.2344 -1.8125 -2.9143
 1030TIP3    H227286   5.186   1.789  18.657 -1.5535  1.1433 -3.2162
 1031TIP3   OH227287   4.850   5.505  19.341 -0.7388 -0.1893 -0.2379
 1031TIP3    H127288   4.899   5.568  19.395 -0.4563 -0.0753 -0.6290
 1031TIP3    H227289   4.774   5.555  19.310 -1.0247 -0.3192  0.2343
 1032TIP3   OH227290   1.758   1.335  17.255  0.0141 -0.2112  0.7811
 1032TIP3    H127291   1.697   1.261  17.250 -0.0327 -0.1041 -0.8032
 1032TIP3    H227292   1.708   1.404  17.298  0.0013 -1.0285  2.1246
 1033TIP3   OH227293   1.325   1.727  19.315 -0.2362  0.2137 -0.2352
 1033TIP3    H127294   1.355   1.731  19.406 -0.6858 -1.5517  0.0367
 1033TIP3    H227295   1.392   1.774  19.266  1.5169 -1.2074  0.6793
 1034TIP3   OH227296   2.900   5.294  17.427 -0.9211 -0.4946 -0.5340
 1034TIP3    H127297   2.888   5.377  17.381 -3.0216  0.0485  0.8193
 1034TIP3    H227298   2.886   5.227  17.361  0.8173  0.1887 -1.6521
 1035TIP3   OH227299   6.967   1.736  17.889  0.3357 -0.1796 -0.3022
 1035TIP3    H127300   7.040   1.792  17.911 -0.2910 -0.0197  1.5577
 1035TIP3    H227301   6.936   1.703  17.974  0.0905 -2.5720 -1.2515
 1036TIP3   OH227302   3.016   0.574  18.337 -0.2424  0.0122  0.3339
 1036TIP3    H127303   3.020   0.623  18.255  0.3797 -0.2625  0.1979
 1036TIP3    H227304   3.024   0.482  18.311 -2.4000 -0.2740  0.4866
 1037TIP3   OH227305   4.871   0.599  18.681 -0.1107  0.4958  0.4782
 1037TIP3    H127306   4.843   0.550  18.603  0.8180  0.9477 -0.1634
 1037TIP3    H227307   4.789   0.620  18.726 -1.0877  3.2576 -2.2139
 1038TIP3   OH227308   2.510   5.917  18.727 -0.1385 -0.1483 -0.4167
 1038TIP3    H127309   2.442   5.898  18.662 -0.8755 -1.6371  0.7198
 1038TIP3    H227310   2.468   5.902  18.811  1.2115  0.2685  0.3621
 1039TIP3   OH227311   5.544   3.283  19.128  0.3048 -0.1079 -0.2717
 1039TIP3    H127312   5.503   3.362  19.092  0.5614  0.8917  1.4836
 1039TIP3    H227313   5.531   3.216  19.061 -0.3486  1.2963 -1.6134
 1040TIP3   OH227314   4.227   4.362  18.562  0.2150 -0.5920  0.1699
 1040TIP3    H127315   4.279   4.313  18.626 -0.5185 -2.3176 -0.5120
 1040TIP3    H227316   4.249   4.324  18.478 -2.5864 -1.8786 -0.0998
 1041TIP3   OH227317   2.389   0.898  17.188  0.1732  0.3932 -0.2488
 1041TIP3    H127318   2.398   0.969  17.124 -1.9075  0.6902 -0.2756
 1041TIP3    H227319   2.407   0.940  17.272  1.3846  0.3503 -0.4589
 1042TIP3   OH227320   7.497   2.638  19.192  0.4554 -0.0235  0.3503
 1042TIP3    H127321   7.583   2.620  19.153  0.0462 -0.1618 -0.5115
 1042TIP3    H227322   7.453   2.554  19.193 -0.8774  0.5246 -2.2512
 1043TIP3   OH227323   0.767   1.560  17.426  0.2294 -0.2443 -0.3390
 1043TIP3    H127324   0.846   1.518  17.393  1.5908  1.4589  0.6087
 1043TIP3    H227325   0.695   1.512  17.384  1.7458 -1.5316 -1.5862
 1044TIP3   OH227326   1.635   2.063  17.548 -0.5952 -0.2412  0.7445
 1044TIP3    H127327   1.710   2.105  17.592  0.5702 -0.3609 -1.0503
 1044TIP3    H227328   1.652   2.074  17.455 -2.2628 -1.2979  0.2730
 1045TIP3   OH227329   7.586   5.177  17.580 -0.2360  0.0261  0.3632
 1045TIP3    H127330   7.586   5.082  17.581 -0.4244 -0.0479 -1.6817
 1045TIP3    H227331   7.617   5.203  17.667 -1.6777 -1.8549  1.5127
 1046TIP3   OH227332   4.788   6.639  18.652 -0.7519 -0.2839 -0.4716
 1046TIP3    H127333   4.839   6.610  18.728 -0.7498  1.3241  0.1835
 1046TIP3    H227334   4.853   6.675  18.592 -0.8736 -0.4748 -0.7182
 1047TIP3   OH227335   1.787   2.922  18.792 -0.3512  0.1443  0.7412
 1047TIP3    H127336   1.845   2.849  18.816 -1.4586 -0.8038  0.6135
 1047TIP3    H227337   1.719   2.922  18.860 -1.8726 -0.6867 -0.7036
 1048TIP3   OH227338   1.090   4.449  19.600 -0.3188  0.1330 -0.0933
 1048TIP3    H127339   1.036   4.504  19.658 -1.4072  0.4525 -1.3506
 1048TIP3    H227340   1.120   4.509  19.532 -1.3560 -0.7543 -1.3795
 1049TIP3   OH227341   1.941   3.553  19.128 -0.0392 -0.1209  0.0767
 1049TIP3    H127342   1.955   3.511  19.043  0.3571 -0.9320  0.5256
 1049TIP3    H227343   1.953   3.483  19.192  0.8659  0.7248  0.8717
 1050TIP3   OH227344   0.841   2.614  17.624  0.5654 -0.0310 -0.0787
 1050TIP3    H127345   0.773   2.549  17.641  1.5434 -1.2780 -0.7399
 1050TIP3    H227346   0.823   2.647  17.536  2.1582 -2.1825 -1.3006
 1051TIP3   OH227347   6.846   4.798  17.669 -0.1215 -0.1734  0.5156
 1051TIP3    H127348   6.861   4.889  17.645 -0.2522  0.1073  1.4529
 1051TIP3    H227349   6.912   4.781  17.737 -1.1604 -0.2660  1.5292
 1052TIP3   OH227350   5.179   2.159  17.673  0.1793 -0.0556  0.0721
 1052TIP3    H127351   5.139   2.241  17.701  0.2611 -0.0093  0.0574
 1052TIP3    H227352   5.233   2.132  17.747  1.1426  0.5611 -0.3793
 1053TIP3   OH227353   2.185   0.387  17.803 -0.4505  0.0278  0.4593
 1053TIP3    H127354   2.249   0.454  17.779  0.3318 -1.2473 -1.1745
 1053TIP3    H227355   2.235   0.324  17.854 -0.4442 -0.8380 -0.5944
 1054TIP3   OH227356   5.577   2.956  19.318 -0.8057 -0.0130 -0.4181
 1054TIP3    H127357   5.552   3.046  19.296 -0.3452 -0.0839 -1.2973
 1054TIP3    H227358   5.668   2.948  19.287 -0.6353 -0.5953  0.2082
 1055TIP3   OH227359   7.609   2.433  17.602  0.4092 -0.5404  0.0648
 1055TIP3    H127360   7.592   2.497  17.671  0.3562  0.6311 -0.9917
 1055TIP3    H227361   7.680   2.472  17.550  1.5128 -2.1103  0.3315
 1056TIP3   OH227362   2.963   5.553  18.987  0.1413  0.2273  0.5504
 1056TIP3    H127363   3.031   5.490  19.009  0.3248  0.2429  0.0342
 1056TIP3    H227364   2.976   5.625  19.050  1.1692  0.6369 -0.1011
 1057TIP3   OH227365   2.704   6.657  19.076  0.6244  0.4578  0.1935
 1057TIP3    H127366   2.612   6.673  19.054 -0.7704  0.4225  4.9892
 1057TIP3    H227367   2.704   6.573  19.121  3.1731  0.1277 -0.2783
 1058TIP3   OH227368   0.219   6.872  17.518 -0.0676 -0.2439  0.2725
 1058TIP3    H127369   0.141   6.844  17.566 -0.8445  1.4251  0.0610
 1058TIP3    H227370   0.261   6.937  17.574 -0.6836  1.3201 -1.0008
 1059TIP3   OH227371   7.633   6.325  19.199  0.0139  0.3327  0.2613
 1059TIP3    H127372   7.684   6.252  19.234 -1.2244 -0.3008  0.8023
 1059TIP3    H227373   7.695   6.374  19.145  1.2645 -0.2380  1.1343
 1060TIP3   OH227374   4.795   6.856  16.912 -0.3117 -0.1308  0.6070
 1060TIP3    H127375   4.701   6.844  16.922 -0.5142  0.2881 -0.6249
 1060TIP3    H227376   4.832   6.833  16.997 -1.4196 -1.4067  0.7724
 1061TIP3   OH227377   3.973   7.066  18.561 -0.2950 -0.0583 -0.2891
 1061TIP3    H127378   3.951   7.115  18.482 -1.3604  0.9536  0.5819
 1061TIP3    H227379   3.977   7.133  18.630 -1.1703 -1.1143  0.8436
 1062TIP3   OH227380   1.589   2.686  19.233 -0.2136 -0.3346  0.0844
 1062TIP3    H127381   1.653   2.707  19.301  0.7764  1.7222 -1.3762
 1062TIP3    H227382   1.504   2.699  19.275  0.3673  0.7787  0.9828
 1063TIP3   OH227383   6.926   6.736  17.535 -0.3596 -0.5410  0.0329
 1063TIP3    H127384   6.867   6.678  17.487  1.9209 -1.7046 -1.5776
 1063TIP3    H227385   6.902   6.824  17.506 -1.0804 -1.0142 -0.8570
 1064TIP3   OH227386   1.342   5.726  18.616  0.3947 -0.2720  0.1359
 1064TIP3    H127387   1.287   5.798  18.647  0.1506 -0.3224 -0.1758
 1064TIP3    H227388   1.282   5.651  18.608  0.0974  0.1029 -1.8816
 1065TIP3   OH227389   2.675   5.553  17.276 -0.3612 -0.1821  0.4345
 1065TIP3    H127390   2.739   5.623  17.288  1.9397 -2.4927  3.4205
 1065TIP3    H227391   2.716   5.495  17.212  0.2788 -1.2525  1.7468
 1066TIP3   OH227392   2.046   1.790  18.758 -0.4033  0.3916  0.7057
 1066TIP3    H127393   2.073   1.765  18.847  0.0133  4.0365  1.7594
 1066TIP3    H227394   1.956   1.820  18.767  0.3579  2.9719  0.4872
 1067TIP3   OH227395   7.289   5.094  19.096 -0.1184 -0.5110 -0.2270
 1067TIP3    H127396   7.348   5.023  19.122 -0.5094 -0.6913  0.1913
 1067TIP3    H227397   7.207   5.073  19.140 -0.0445  0.5797  0.4637
 1068TIP3   OH227398   0.823   1.641  18.574 -0.3490 -0.0124 -0.7813
 1068TIP3    H127399   0.898   1.700  18.565 -0.7731  0.6450 -0.0821
 1068TIP3    H227400   0.747   1.697  18.560 -0.9272  0.3005  2.7024
 1069TIP3   OH227401   4.447   2.460  18.182 -0.1459 -0.4156  0.1023
 1069TIP3    H127402   4.358   2.427  18.197 -0.8543  1.4862  0.3877
 1069TIP3    H227403   4.449   2.480  18.088 -0.4474  0.5890  0.2893
 1070TIP3   OH227404   0.330   0.143  18.300  0.3904  0.3196  0.8456
 1070TIP3    H127405   0.347   0.055  18.332  0.4744  0.4296  1.1116
 1070TIP3    H227406   0.415   0.173  18.266  0.1913  0.0252  0.0668
 1071TIP3   OH227407   3.471   1.015  18.317 -0.8310 -0.1284  0.1336
 1071TIP3    H127408   3.535   1.059  18.261 -0.4019  0.3220  0.9716
 1071TIP3    H227409   3.387   1.031  18.274 -0.6588  1.2860  0.2800
 1072TIP3   OH227410   1.849   6.337  18.495  0.5270 -0.3243  0.3821
 1072TIP3    H127411   1.872   6.244  18.486  2.4599 -0.2356  2.9869
 1072TIP3    H227412   1.908   6.382  18.435 -0.0787 -0.7464 -0.5383
 1073TIP3   OH227413   2.024   1.245  17.342 -0.7438 -0.8343 -0.0690
 1073TIP3    H127414   2.008   1.279  17.429  2.5747 -0.3387  0.4727
 1073TIP3    H227415   1.961   1.290  17.286 -0.9907  1.0864  1.6482
 1074TIP3   OH227416   0.376   0.722  19.453  0.4499  0.0400  0.5698
 1074TIP3    H127417   0.366   0.630  19.478 -0.1416  0.2629  1.1954
 1074TIP3    H227418   0.436   0.757  19.519 -0.7505  0.5210  1.4445
 1075TIP3   OH227419   1.543   0.753  17.636  0.2648 -0.4646  0.3827
 1075TIP3    H127420   1.623   0.704  17.656  0.2186 -0.7020  0.0093
 1075TIP3    H227421   1.519   0.724  17.548  0.2251  0.2189  0.1587
 1076TIP3   OH227422   4.437   7.299  18.250 -0.2207 -0.1084 -0.4160
 1076TIP3    H127423   4.512   7.280  18.307 -0.6441  0.7242  0.4387
 1076TIP3    H227424   4.418   7.392  18.265 -0.7171 -0.0331 -1.4694
 1077TIP3   OH227425   6.032   4.950  18.772  0.3870  0.5289 -0.3585
 1077TIP3    H127426   5.965   4.950  18.704  1.6282  1.3517 -1.6202
 1077TIP3    H227427   5.995   5.003  18.843  0.1345  1.9335 -1.5007
 1078TIP3   OH227428   0.893   4.007  19.091 -0.3095 -0.2223  0.6176
 1078TIP3    H127429   0.874   3.914  19.097 -1.0050  0.0034  3.0303
 1078TIP3    H227430   0.840   4.047  19.160  2.0759  1.6039  1.5458
 1079TIP3   OH227431   1.344   6.324  19.316  0.0713 -0.0175 -0.2717
 1079TIP3    H127432   1.413   6.260  19.337  0.7556  0.4851 -0.9375
 1079TIP3    H227433   1.388   6.409  19.322 -0.6996  0.3573  0.0845
 1080TIP3   OH227434   4.621   0.818  18.666  0.0034  0.5098  0.1065
 1080TIP3    H127435   4.568   0.883  18.621  1.3798  0.4573 -1.6938
 1080TIP3    H227436   4.602   0.736  18.621  0.9178  0.3319  0.0231
 1081TIP3   OH227437   5.080   3.880  16.733  0.4114 -0.3449  0.5497
 1081TIP3    H127438   5.067   3.797  16.778 -1.6972  0.8220  2.2692
 1081TIP3    H227439   5.032   3.871  16.651  0.5261 -0.9311  0.5486
 1082TIP3   OH227440   0.268   7.259  18.656 -0.6577 -0.9534  0.2954
 1082TIP3    H127441   0.363   7.266  18.643 -0.6348 -1.7355 -0.0333
 1082TIP3    H227442   0.247   7.169  18.631 -1.5607 -0.6619 -0.0321
 1083TIP3   OH227443   4.942   7.053  18.861 -0.2253 -0.1292 -0.2924
 1083TIP3    H127444   5.019   7.016  18.817 -0.3378  0.3947 -0.9366
 1083TIP3    H227445   4.927   7.137  18.818 -0.1700  0.5371  0.9486
 1084TIP3   OH227446   6.888   5.149  18.302 -0.1982 -0.1549  0.2368
 1084TIP3    H127447   6.875   5.117  18.213  0.7684 -1.0428  0.3940
 1084TIP3    H227448   6.911   5.071  18.352  0.7329  0.5567  0.9548
 1085TIP3   OH227449   1.469   6.389  18.650  0.2272 -0.2189  0.0325
 1085TIP3    H127450   1.555   6.381  18.692  0.6349 -0.1512 -0.7673
 1085TIP3    H227451   1.462   6.482  18.628  0.0327 -0.2601 -0.0803
 1086TIP3   OH227452   5.825   6.002  16.793  0.4047 -0.3226 -0.1576
 1086TIP3    H127453   5.870   6.085  16.810  0.4193 -0.3120 -0.2478
 1086TIP3    H227454   5.866   5.940  16.853 -0.0331 -0.1212  0.3485
 1087TIP3   OH227455   3.459   5.958  18.256 -0.3187 -0.2501 -0.1329
 1087TIP3    H127456   3.419   5.989  18.337 -0.9345  0.3667 -0.6567
 1087TIP3    H227457   3.553   5.953  18.276 -0.6520 -1.9921  1.1891
 1088TIP3   OH227458   5.575   2.232  18.483 -0.5006 -0.1045 -0.2248
 1088TIP3    H127459   5.526   2.273  18.412  1.1755  0.0682 -1.3300
 1088TIP3    H227460   5.627   2.164  18.440  1.4205  0.7654  0.6412
 1089TIP3   OH227461   3.922   2.967  18.152 -0.4786  0.6669 -0.3205
 1089TIP3    H127462   3.910   3.054  18.115 -1.0772  0.4877 -0.5626
 1089TIP3    H227463   3.834   2.938  18.173 -0.3342 -0.0817 -0.7148
 1090TIP3   OH227464   6.229   4.301  18.386  0.7440  0.3371 -0.1015
 1090TIP3    H127465   6.168   4.373  18.367  0.2501  0.0182  0.2801
 1090TIP3    H227466   6.185   4.248  18.451  0.9915 -0.4791 -0.5859
 1091TIP3   OH227467   2.268   7.379  17.813  0.0716 -0.0393 -0.0740
 1091TIP3    H127468   2.231   7.456  17.769 -0.3057  1.0326  1.9838
 1091TIP3    H227469   2.306   7.327  17.743 -0.3928  1.6261 -1.6326
 1092TIP3   OH227470   1.306   1.898  18.878  0.4281 -0.0864 -0.2429
 1092TIP3    H127471   1.236   1.865  18.821  0.5408 -2.2810  0.7484
 1092TIP3    H227472   1.313   1.991  18.857 -0.9979 -0.3554 -2.2155
 1093TIP3   OH227473   3.831   5.913  18.613 -0.4417 -0.8431 -0.1884
 1093TIP3    H127474   3.837   5.994  18.663  0.3229 -0.0682 -1.4797
 1093TIP3    H227475   3.781   5.937  18.535  0.6626 -1.3362 -1.0750
 1094TIP3   OH227476   2.515   5.664  18.504  0.1366 -0.0592  0.0229
 1094TIP3    H127477   2.552   5.747  18.476 -0.3906 -0.5588 -2.3350
 1094TIP3    H227478   2.421   5.672  18.488 -0.0096 -0.8614  0.4031
 1095TIP3   OH227479   3.432   2.738  17.919  0.1697 -0.0023  0.0768
 1095TIP3    H127480   3.438   2.665  17.980  0.6360  0.1221  0.1828
 1095TIP3    H227481   3.384   2.806  17.967 -0.1991 -0.2064  0.0042
 1096TIP3   OH227482   3.657   5.095  18.877  0.2491 -0.1324 -0.0440
 1096TIP3    H127483   3.633   5.113  18.968 -0.3945  0.8638 -0.3898
 1096TIP3    H227484   3.753   5.104  18.876  0.2442  0.0567  0.4916
 1097TIP3   OH227485   5.343   4.426  18.863 -0.3063 -0.0887  0.2529
 1097TIP3    H127486   5.270   4.400  18.919 -2.0222 -1.2125 -2.3103
 1097TIP3    H227487   5.323   4.387  18.778  2.5182  0.8984 -0.9894
 1098TIP3   OH227488   5.197   5.244  16.961  0.4598 -0.1348 -0.4856
 1098TIP3    H127489   5.181   5.329  16.919  0.4190  1.0730  1.8398
 1098TIP3    H227490   5.288   5.249  16.990  0.0239 -0.2869  0.9475
 1099TIP3   OH227491   5.313   1.060  17.625 -0.1308  0.5698 -0.8802
 1099TIP3    H127492   5.332   1.123  17.695 -1.0770 -0.9356  0.8219
 1099TIP3    H227493   5.398   1.040  17.585  0.6556  0.3529  0.8389
 1100TIP3   OH227494   4.404   3.172  16.572  0.3647  0.7567 -0.6379
 1100TIP3    H127495   4.317   3.178  16.532  0.1674 -0.2549 -0.3937
 1100TIP3    H227496   4.395   3.103  16.638  1.8476 -0.8154 -1.9875
 1101TIP3   OH227497   5.038   6.186  16.852 -0.1958  0.1246 -0.4124
 1101TIP3    H127498   5.022   6.178  16.758 -0.5055  0.1675 -0.3632
 1101TIP3    H227499   5.011   6.102  16.888 -0.3400  0.2093 -0.3255
 1102TIP3   OH227500   1.359   1.927  19.582 -0.6205  0.4316  0.6786
 1102TIP3    H127501   1.411   1.933  19.662  1.8528  2.9530 -0.9126
 1102TIP3    H227502   1.411   1.973  19.516 -4.0328  1.4200 -1.6178
 1103TIP3   OH227503   0.737   3.176  18.812 -0.3447  0.2428 -0.2372
 1103TIP3    H127504   0.823   3.156  18.775 -1.2116 -1.2834 -1.5386
 1103TIP3    H227505   0.701   3.243  18.753 -1.2602 -1.3674 -1.6040
 1104TIP3   OH227506   6.094   2.796  17.388 -0.4104 -0.0463 -0.5982
 1104TIP3    H127507   6.116   2.716  17.436 -2.0640 -0.1718 -0.0012
 1104TIP3    H227508   6.136   2.784  17.302  0.7440 -0.7984  0.0376
 1105TIP3   OH227509   6.904   1.088  18.738 -0.5150  0.1980 -0.3173
 1105TIP3    H127510   6.993   1.057  18.719 -0.7606 -1.4753  0.9922
 1105TIP3    H227511   6.871   1.118  18.653 -0.0344 -2.7751 -1.6874
 1106TIP3   OH227512   1.304   6.634  18.103  0.1156 -0.0037 -0.1319
 1106TIP3    H127513   1.339   6.597  18.184 -1.0787 -1.9338 -0.4250
 1106TIP3    H227514   1.365   6.606  18.035 -0.1530 -0.4212 -0.2013
 1107TIP3   OH227515   5.593   4.793  19.149 -0.2381 -0.2535 -0.6246
 1107TIP3    H127516   5.524   4.744  19.104  1.0195 -0.2217 -2.7074
 1107TIP3    H227517   5.550   4.827  19.228 -2.5839 -0.2944 -1.7822
 1108TIP3   OH227518   6.887   6.987  18.293 -0.2824 -0.0627 -0.2142
 1108TIP3    H127519   6.802   6.945  18.309  1.0607 -2.3433  1.5137
 1108TIP3    H227520   6.950   6.930  18.336  2.0143  2.3417 -0.1789
 1109TIP3   OH227521   3.970   7.339  19.052 -0.1824  0.1139  0.3671
 1109TIP3    H127522   4.000   7.341  18.961  1.5785 -1.8362  0.8116
 1109TIP3    H227523   3.910   7.413  19.059  2.0291  2.2922 -1.5516
 1110TIP3   OH227524   3.898   4.671  17.580 -0.3154  0.6618 -0.0299
 1110TIP3    H127525   3.947   4.751  17.562 -0.0883  1.1411  2.4195
 1110TIP3    H227526   3.934   4.607  17.518  1.7704  1.6258  0.0954
 1111TIP3   OH227527   0.908   6.339  19.055  0.0540  0.4042 -0.4341
 1111TIP3    H127528   0.837   6.305  19.110 -0.0512  1.4509  0.0993
 1111TIP3    H227529   0.896   6.295  18.971 -1.0146  0.2999 -0.2419
 1112TIP3   OH227530   6.002   7.596  17.887  0.4878 -0.4749 -0.0778
 1112TIP3    H127531   5.912   7.617  17.911  1.1057  1.3871  0.8782
 1112TIP3    H227532   6.025   7.662  17.820  0.8294 -1.5921 -1.1069
 1113TIP3   OH227533   3.856   2.288  18.186 -0.1638 -0.1570 -0.2746
 1113TIP3    H127534   3.901   2.372  18.185  0.6525 -0.5227  1.4178
 1113TIP3    H227535   3.768   2.307  18.219 -0.1774  0.1164 -0.4721
 1114TIP3   OH227536   6.855   6.317  19.244 -0.0403 -0.1425 -0.1653
 1114TIP3    H127537   6.790   6.386  19.253  0.5348  0.2945  0.8183
 1114TIP3    H227538   6.870   6.310  19.149  0.1458  1.3251 -0.2700
 1115TIP3   OH227539   3.842   6.360  18.133 -0.0895  0.0305 -0.2308
 1115TIP3    H127540   3.902   6.417  18.182 -0.3483  0.5779 -0.5446
 1115TIP3    H227541   3.783   6.325  18.200  0.5369 -0.4613  0.0737
 1116TIP3   OH227542   1.823   3.178  16.888 -0.1815  0.1368 -0.0222
 1116TIP3    H127543   1.912   3.152  16.863 -0.8790 -2.3843 -0.1446
 1116TIP3    H227544   1.772   3.168  16.808 -0.6521  1.3044  0.1179
 1117TIP3   OH227545   1.106   4.617  17.960 -0.3943 -0.6484 -0.0350
 1117TIP3    H127546   1.105   4.639  17.867 -2.1772 -1.4430 -0.2562
 1117TIP3    H227547   1.198   4.601  17.980  0.0026 -0.7432 -1.7373
 1118TIP3   OH227548   1.894   2.123  18.153  0.3183 -0.1276  0.3916
 1118TIP3    H127549   1.834   2.179  18.203 -0.8919 -0.1405 -0.9769
 1118TIP3    H227550   1.925   2.058  18.216 -0.0082  0.7296  1.4668
 1119TIP3   OH227551   6.872   2.018  18.939 -0.5831 -0.2287 -0.0588
 1119TIP3    H127552   6.789   1.973  18.925 -1.9422  2.1350 -0.1233
 1119TIP3    H227553   6.867   2.052  19.028  1.2169 -1.6805  0.6746
 1120TIP3   OH227554   3.011   0.117  17.651  0.0340 -0.2957 -0.3953
 1120TIP3    H127555   2.924   0.152  17.671  0.1650 -0.2217  0.0509
 1120TIP3    H227556   3.051   0.102  17.736  1.4006  1.9734 -0.5837
 1121TIP3   OH227557   4.134   1.314  18.322  0.0807 -0.3947  0.4328
 1121TIP3    H127558   4.166   1.243  18.267  0.4417 -1.2842  1.7521
 1121TIP3    H227559   4.208   1.335  18.379 -0.6876 -0.3850  1.4527
 1122TIP3   OH227560   5.419   5.099  19.270  0.5462 -0.0259  0.1076
 1122TIP3    H127561   5.339   5.048  19.284 -0.6983  1.4798 -1.1805
 1122TIP3    H227562   5.388   5.188  19.256  2.3273  0.3439 -1.8446
 1123TIP3   OH227563   1.444   5.140  17.877 -0.8080  0.2965  0.5156
 1123TIP3    H127564   1.519   5.190  17.847 -1.1777  0.5650  0.0137
 1123TIP3    H227565   1.380   5.206  17.903 -1.1366  0.0828  0.2624
 1124TIP3   OH227566   1.486   0.522  16.750 -0.2923 -0.0126  0.4193
 1124TIP3    H127567   1.456   0.440  16.790 -0.0402  0.7190  2.1900
 1124TIP3    H227568   1.432   0.590  16.791  1.0964  0.9323  0.7355
 1125TIP3   OH227569   0.237   0.447  19.106 -0.1471 -0.2740  0.1664
 1125TIP3    H127570   0.253   0.381  19.038 -0.1505 -0.9727  0.8403
 1125TIP3    H227571   0.321   0.458  19.149 -0.1375  0.1994  0.0295
 1126TIP3   OH227572   4.077   2.522  19.031  0.5456 -0.2012 -0.0167
 1126TIP3    H127573   4.045   2.579  18.961  1.3392 -1.0857 -1.1369
 1126TIP3    H227574   4.170   2.510  19.012  1.6472  2.1160  3.0098
 1127TIP3   OH227575   0.125   4.335  18.572 -0.0062  0.0946  0.1903
 1127TIP3    H127576   0.037   4.326  18.608  0.4911 -0.8699  1.2277
 1127TIP3    H227577   0.181   4.286  18.633  1.3377  1.2004 -0.1074
 1128TIP3   OH227578   0.237   1.697  17.733  0.6534 -0.1752  0.4129
 1128TIP3    H127579   0.160   1.677  17.680  1.8886  0.1034 -1.6207
 1128TIP3    H227580   0.206   1.695  17.823 -1.3219 -1.8310 -0.2336
 1129TIP3   OH227581   0.714   0.016  18.489 -0.6082  0.5014  0.3477
 1129TIP3    H127582   0.637  -0.002  18.543 -1.1204  1.0377 -0.1904
 1129TIP3    H227583   0.713   0.110  18.475 -0.9101  0.2892 -1.2187
 1130TIP3   OH227584   6.811   5.105  17.670  0.1016  0.7352 -0.3443
 1130TIP3    H127585   6.801   5.198  17.689  1.0371  0.5861  1.0395
 1130TIP3    H227586   6.905   5.090  17.668  0.0307 -0.5945  1.9722
 1131TIP3   OH227587  -0.093   1.736  19.090 -0.9707 -0.3462 -0.1163
 1131TIP3    H127588  -0.091   1.660  19.148 -1.4352  0.5390  1.1237
 1131TIP3    H227589  -0.076   1.701  19.003 -0.2635 -1.7344  0.5477
 1132TIP3   OH227590   2.565   3.911  17.259  0.3880 -0.0148  0.7972
 1132TIP3    H127591   2.528   3.828  17.228  0.8488  0.0707 -0.0104
 1132TIP3    H227592   2.620   3.886  17.334 -0.2013 -0.3149  1.1385
 1133TIP3   OH227593   3.280   7.438  17.745 -0.0642 -0.0117 -0.1420
 1133TIP3    H127594   3.189   7.421  17.722 -0.0144 -0.3593 -0.0903
 1133TIP3    H227595   3.330   7.380  17.687  0.1618  0.8179 -0.7910
 1134TIP3   OH227596   2.217   3.485  16.657  0.0388 -0.5134  0.7208
 1134TIP3    H127597   2.180   3.439  16.732 -1.3135 -0.5135  0.0911
 1134TIP3    H227598   2.222   3.419  16.588 -0.8510  0.0007  0.1477
 1135TIP3   OH227599   3.097   2.968  19.569  0.5860 -0.0569 -0.3312
 1135TIP3    H127600   3.181   2.930  19.544  0.0551 -1.5949  0.0702
 1135TIP3    H227601   3.114   3.062  19.579  1.9202 -0.1315 -1.6085
 1136TIP3   OH227602   5.977   4.113  18.211  0.0739 -0.2834  0.0356
 1136TIP3    H127603   5.954   4.192  18.261  0.2512 -0.5418  0.5228
 1136TIP3    H227604   5.937   4.041  18.259  0.0114 -0.5085 -0.3479
 1137TIP3   OH227605   3.547   2.016  19.640  0.1071  0.1773 -0.3223
 1137TIP3    H127606   3.553   2.050  19.729 -0.4910 -0.3830 -0.0551
 1137TIP3    H227607   3.476   2.066  19.600  0.8572  0.9410 -0.7389
 1138TIP3   OH227608   6.263   2.294  19.446  0.5398  0.0195 -0.7430
 1138TIP3    H127609   6.217   2.211  19.437 -0.0200  0.3630 -1.1804
 1138TIP3    H227610   6.210   2.356  19.395 -0.1608  1.0669  1.1714
 1139TIP3   OH227611   7.401   5.250  18.170  0.3141 -0.2257  0.3634
 1139TIP3    H127612   7.400   5.339  18.203 -0.3387 -0.6368  1.4999
 1139TIP3    H227613   7.493   5.234  18.145  1.1033 -0.2521  3.0183
 1140TIP3   OH227614   4.991   7.351  18.748 -0.1274 -0.2631 -0.1511
 1140TIP3    H127615   5.019   7.326  18.836  0.3208  0.8285  0.0350
 1140TIP3    H227616   5.072   7.351  18.696 -0.4817 -1.5853 -0.7630
 1141TIP3   OH227617   1.429   6.182  18.188  0.2919  0.1616 -0.6662
 1141TIP3    H127618   1.501   6.200  18.248  0.6286 -1.6707 -0.4550
 1141TIP3    H227619   1.464   6.117  18.127 -0.5004  0.9135 -1.9681
 1142TIP3   OH227620   5.697   5.170  19.281 -0.1747 -0.7807  0.7132
 1142TIP3    H127621   5.602   5.169  19.271 -0.3949 -1.5167  2.4387
 1142TIP3    H227622   5.726   5.083  19.254  0.3094  0.0894 -1.7988
 1143TIP3   OH227623   5.609   4.479  19.492 -0.0103  0.1028  0.1601
 1143TIP3    H127624   5.519   4.476  19.524  0.6090 -1.1427  1.9754
 1143TIP3    H227625   5.630   4.387  19.472  0.2794  0.5958 -2.1077
 1144TIP3   OH227626   7.495   6.997  19.060  0.5574  0.3043 -0.3964
 1144TIP3    H127627   7.511   6.971  19.151 -2.1911  0.9058  0.3558
 1144TIP3    H227628   7.400   6.986  19.048  0.5410  2.0975 -2.5752
 1145TIP3   OH227629   4.261   1.801  17.928 -0.3732  0.3108 -0.4975
 1145TIP3    H127630   4.184   1.844  17.964 -1.1177 -0.3120 -1.2763
 1145TIP3    H227631   4.289   1.739  17.995 -1.1227 -0.1144 -0.5699
 1146TIP3   OH227632   1.104   0.835  18.490 -0.3113  0.5935 -0.0147
 1146TIP3    H127633   1.111   0.785  18.409 -0.6105  0.4868  0.0241
 1146TIP3    H227634   1.194   0.861  18.510 -0.0172 -0.7184  0.4596
 1147TIP3   OH227635   5.419   2.798  17.883  0.2891 -0.0061  0.9366
 1147TIP3    H127636   5.436   2.851  17.805  1.3671  0.8213  1.7163
 1147TIP3    H227637   5.482   2.726  17.878 -0.5466 -0.7246  0.3673
 1148TIP3   OH227638   4.992   0.871  18.591 -0.1811 -0.1888 -0.2631
 1148TIP3    H127639   4.955   0.784  18.586 -0.2165 -0.1957  0.0992
 1148TIP3    H227640   4.957   0.917  18.514 -0.1636 -0.4885 -0.4511
 1149TIP3   OH227641   6.752   4.513  17.500 -0.0638  0.1900 -0.0509
 1149TIP3    H127642   6.742   4.557  17.416 -0.0368 -0.6139 -0.4802
 1149TIP3    H227643   6.692   4.559  17.558 -0.9432  0.0102 -0.7983
 1150TIP3   OH227644   3.295   7.215  17.940  0.3631  0.3752  0.1894
 1150TIP3    H127645   3.285   7.307  17.915  1.6596  0.3808 -0.3429
 1150TIP3    H227646   3.374   7.186  17.896  1.1851 -0.4031  2.0747
 1151TIP3   OH227647   2.516   5.382  19.161  0.2897 -0.2824 -0.0294
 1151TIP3    H127648   2.428   5.400  19.129  0.8706  0.9946 -0.9899
 1151TIP3    H227649   2.573   5.435  19.106  1.4912  0.7828  2.0930
 1152TIP3   OH227650   1.045   2.460  17.161  0.1454 -0.7278  0.4197
 1152TIP3    H127651   0.972   2.521  17.159  1.3581  0.8684 -3.1190
 1152TIP3    H227652   1.017   2.387  17.106  0.2455 -1.4113  1.2611
 1153TIP3   OH227653   4.801   7.467  17.678 -0.1135  0.3697 -1.0052
 1153TIP3    H127654   4.786   7.459  17.584 -0.2181  0.6220 -1.0119
 1153TIP3    H227655   4.755   7.547  17.703 -1.2850 -0.4295 -0.4809
 1154TIP3   OH227656   5.702   0.672  18.876  0.0005 -0.4634  0.5245
 1154TIP3    H127657   5.607   0.680  18.886 -0.0796 -0.3089 -0.3378
 1154TIP3    H227658   5.716   0.581  18.853  0.3051 -1.1837  3.1545
 1155TIP3   OH227659   7.220   7.025  18.953  0.3149  0.0546 -0.1816
 1155TIP3    H127660   7.142   6.972  18.934  0.3884 -0.8091  1.7189
 1155TIP3    H227661   7.273   7.018  18.873  0.3805 -2.8898  0.0047
 1156TIP3   OH227662   5.482   3.656  19.210 -0.0788  0.6542  0.6718
 1156TIP3    H127663   5.487   3.623  19.300  1.7377 -0.0492  0.3753
 1156TIP3    H227664   5.546   3.728  19.208  0.8469 -0.1581 -0.3370
 1157TIP3   OH227665   1.896   6.975  18.481  0.1278 -0.0305 -0.0150
 1157TIP3    H127666   1.906   7.065  18.451 -1.4810  0.3183  0.4150
 1157TIP3    H227667   1.804   6.967  18.505  0.7569 -1.0330  2.4136
 1158TIP3   OH227668   4.391   2.648  18.526 -0.5667  0.1791  0.0263
 1158TIP3    H127669   4.376   2.674  18.435 -1.1644  1.9702  0.6099
 1158TIP3    H227670   4.472   2.693  18.551  0.2857 -1.2878  0.0446
 1159TIP3   OH227671   5.761   3.194  17.553 -0.1561 -0.0783 -0.0063
 1159TIP3    H127672   5.773   3.260  17.485 -0.4531  0.8338  0.7949
 1159TIP3    H227673   5.789   3.238  17.634 -0.2304 -0.9827  0.5257
 1160TIP3   OH227674   0.623   4.578  17.959  0.3900  0.9661  0.5135
 1160TIP3    H127675   0.712   4.583  17.993  0.0280  1.2857  1.4478
 1160TIP3    H227676   0.571   4.632  18.018 -0.2069  1.9025 -0.8147
 1161TIP3   OH227677   1.338   7.348  18.403  0.6430 -0.7297 -0.0406
 1161TIP3    H127678   1.335   7.286  18.330  0.3784  0.0756 -0.7249
 1161TIP3    H227679   1.391   7.421  18.371  1.3254 -0.7802  0.9147
 1162TIP3   OH227680   6.216   2.011  19.432  0.4744 -0.1987 -0.1961
 1162TIP3    H127681   6.180   1.969  19.354  3.6524  0.5029 -2.2153
 1162TIP3    H227682   6.289   1.956  19.459  0.0714  0.1234  1.7199
 1163TIP3   OH227683   2.495   5.404  17.426  0.1065  0.1341  0.0426
 1163TIP3    H127684   2.412   5.449  17.411 -0.4389 -0.6818  0.5175
 1163TIP3    H227685   2.562   5.467  17.398 -0.6666  0.7589 -0.4576
 1164TIP3   OH227686   4.093   2.266  16.892 -0.3511 -0.0124  0.5357
 1164TIP3    H127687   4.036   2.297  16.962 -0.7584 -0.0038  0.2000
 1164TIP3    H227688   4.084   2.171  16.894  0.9990 -0.1487  1.6475
 1165TIP3   OH227689   0.653   2.475  17.263 -0.0443  0.6059  0.0257
 1165TIP3    H127690   0.698   2.391  17.261  2.7618  1.9986 -0.2935
 1165TIP3    H227691   0.628   2.491  17.172 -0.0102  0.4247 -0.0158
 1166TIP3   OH227692   5.879   1.727  18.238 -0.1371  0.5706 -0.4396
 1166TIP3    H127693   5.852   1.640  18.268 -0.3691  0.5402 -0.7353
 1166TIP3    H227694   5.817   1.749  18.168  0.3943  0.6367 -0.9025
 1167TIP3   OH227695   0.604   6.570  18.758 -0.4317  0.3248 -0.6076
 1167TIP3    H127696   0.544   6.619  18.702 -0.8839  1.5644  0.9121
 1167TIP3    H227697   0.643   6.636  18.816 -1.0857 -1.0717  1.5408
 1168TIP3   OH227698   7.369   6.378  19.189  0.1294 -0.4248  0.2672
 1168TIP3    H127699   7.456   6.341  19.178 -0.4133 -1.6784  0.0862
 1168TIP3    H227700   7.363   6.400  19.282  1.0739  0.8411  0.0546
 1169TIP3   OH227701   4.881   4.868  18.860  0.3399  0.8416  0.0521
 1169TIP3    H127702   4.880   4.860  18.765  0.8711  1.2747  0.0068
 1169TIP3    H227703   4.917   4.955  18.877  1.2874  0.3434  0.6698
 1170TIP3   OH227704   2.258   1.921  19.324  0.1429  0.0921 -0.2448
 1170TIP3    H127705   2.199   1.893  19.394 -2.6540 -1.6955 -3.0506
 1170TIP3    H227706   2.314   1.845  19.308  0.4837  0.3399 -0.2374
 1171TIP3   OH227707   5.419   4.126  17.464 -0.3545  0.2820  0.5613
 1171TIP3    H127708   5.437   4.045  17.511 -0.7169 -0.4406 -0.5240
 1171TIP3    H227709   5.388   4.186  17.532  2.3289  0.3642  1.8146
 1172TIP3   OH227710   2.565   0.220  18.347  0.0106 -0.2032  0.6809
 1172TIP3    H127711   2.594   0.302  18.307  1.1233 -1.1292 -0.5161
 1172TIP3    H227712   2.532   0.167  18.274 -1.6808 -0.4494  1.5795
 1173TIP3   OH227713   3.075   2.686  18.323  0.2827 -0.1314 -0.5700
 1173TIP3    H127714   3.124   2.623  18.377 -0.8517 -0.7464 -0.2364
 1173TIP3    H227715   3.086   2.770  18.368 -1.2383 -0.7546  1.0594
 1174TIP3   OH227716   3.735   3.363  18.945  0.0164  0.7481 -0.1065
 1174TIP3    H127717   3.780   3.408  19.016  0.0084 -1.1867  1.2003
 1174TIP3    H227718   3.756   3.270  18.958 -2.8017 -0.0436 -0.5515
 1175TIP3   OH227719   5.667   5.679  19.292 -0.3620 -0.2561 -0.2757
 1175TIP3    H127720   5.676   5.584  19.281 -0.1196 -0.1665 -0.9236
 1175TIP3    H227721   5.645   5.711  19.204 -0.2415  0.3106 -0.1021
 1176TIP3   OH227722   7.024   6.946  17.372 -0.1510 -0.0055 -0.2203
 1176TIP3    H127723   7.045   6.857  17.399 -0.2917  0.5119  1.7606
 1176TIP3    H227724   7.006   6.939  17.278  1.0993 -1.8134 -0.3727
 1177TIP3   OH227725   2.326   1.273  18.777 -0.2204 -0.0389  0.1682
 1177TIP3    H127726   2.339   1.309  18.690 -1.5644  0.6502  0.2258
 1177TIP3    H227727   2.392   1.204  18.785 -1.3358 -1.5146 -2.1921
 1178TIP3   OH227728   7.243   1.265  18.383  0.1687 -0.3240 -0.1444
 1178TIP3    H127729   7.169   1.227  18.335  0.0653 -0.1999 -0.0842
 1178TIP3    H227730   7.206   1.286  18.469  0.9197 -2.7128  0.8362
 1179TIP3   OH227731   4.994   6.114  16.590  0.4883  0.3449  0.1587
 1179TIP3    H127732   4.915   6.077  16.550  1.2991 -1.6568  0.3314
 1179TIP3    H227733   5.049   6.140  16.516  0.2523  0.4678  0.0256
 1180TIP3   OH227734   7.382   5.421  17.810  0.1744 -0.1704  0.1719
 1180TIP3    H127735   7.330   5.433  17.890 -2.0226  2.2771 -1.4573
 1180TIP3    H227736   7.470   5.451  17.834 -0.8504  2.2307  1.3084
 1181TIP3   OH227737   0.863   5.855  18.813  0.9212  0.7142 -0.0173
 1181TIP3    H127738   0.885   5.873  18.722  2.2326  1.0593  0.3559
 1181TIP3    H227739   0.794   5.788  18.809  1.8758 -0.2182 -1.2170
 1182TIP3   OH227740   6.965   6.126  18.974  0.8579 -0.6420  0.0659
 1182TIP3    H127741   6.999   6.058  18.916 -0.6819  0.8656 -2.8663
 1182TIP3    H227742   6.974   6.207  18.924 -0.5816  0.8002  1.9635
 1183TIP3   OH227743   6.291   2.789  18.011 -0.2062  0.7259 -0.5230
 1183TIP3    H127744   6.225   2.734  17.968 -0.3376  1.4430 -1.2690
 1183TIP3    H227745   6.240   2.855  18.058 -0.1089 -0.7593  1.7995
 1184TIP3   OH227746   0.672   0.733  17.192  0.4525 -0.1460  0.3918
 1184TIP3    H127747   0.617   0.805  17.224  1.0613  0.3286  0.3720
 1184TIP3    H227748   0.699   0.760  17.105 -0.4772 -1.0450 -0.1957
 1185TIP3   OH227749   7.296   4.185  19.058  0.5953  0.6642 -0.1095
 1185TIP3    H127750   7.376   4.237  19.060  0.6297  0.6153 -0.1931
 1185TIP3    H227751   7.297   4.142  18.972  0.2710  0.9912 -0.2826
 1186TIP3   OH227752   2.582   2.982  18.648  0.4100  0.4219  0.6669
 1186TIP3    H127753   2.605   2.889  18.654 -0.8179  0.1050  0.5331
 1186TIP3    H227754   2.616   3.010  18.563 -0.0159 -0.1261  0.3198
 1187TIP3   OH227755   7.329   7.021  19.541  0.1021 -0.0371  0.2225
 1187TIP3    H127756   7.313   7.107  19.502 -3.5115 -1.2758 -1.4298
 1187TIP3    H227757   7.299   7.029  19.632  0.1160  0.5369  0.1772
 1188TIP3   OH227758   3.587   0.640  18.457  0.3663  0.0598 -0.2889
 1188TIP3    H127759   3.493   0.646  18.437  0.5121 -3.1738 -2.5385
 1188TIP3    H227760   3.590   0.626  18.552 -1.4494 -0.2412 -0.2366
 1189TIP3   OH227761   6.746   0.081  17.212 -0.0696 -0.4643 -0.2148
 1189TIP3    H127762   6.710   0.153  17.160  1.6809 -0.4070 -1.4399
 1189TIP3    H227763   6.728   0.002  17.160  0.1693 -0.6179 -0.0667
 1190TIP3   OH227764   1.894   7.370  17.636  0.0289 -0.2494  0.0082
 1190TIP3    H127765   1.813   7.420  17.630  0.3571  0.2252 -0.6254
 1190TIP3    H227766   1.869   7.288  17.677 -0.6666  0.1217  0.3330
 1191TIP3   OH227767   6.270   2.290  17.882 -0.5380 -0.1304 -0.0845
 1191TIP3    H127768   6.313   2.232  17.945 -0.6417 -1.7311 -1.4236
 1191TIP3    H227769   6.178   2.263  17.884 -1.4144  2.5613  1.9823
 1192TIP3   OH227770   0.881   3.491  17.760  0.3369  0.3464  0.1340
 1192TIP3    H127771   0.907   3.547  17.686  1.1949 -1.0507 -0.6653
 1192TIP3    H227772   0.867   3.552  17.832 -0.1825  1.7182 -1.0863
 1193TIP3   OH227773   0.201   7.346  19.677 -0.1775 -0.1460  0.3664
 1193TIP3    H127774   0.293   7.367  19.691 -0.3093  1.6141 -1.0973
 1193TIP3    H227775   0.166   7.332  19.765  1.0719  1.0421  1.0740
 1194TIP3   OH227776   6.130   4.819  17.731  0.1366  0.1580 -0.3193
 1194TIP3    H127777   6.140   4.853  17.642 -1.0738 -1.4504 -1.1244
 1194TIP3    H227778   6.103   4.896  17.782 -1.0709  0.7549 -1.7542
 1195TIP3   OH227779   1.180   7.275  17.899 -0.5568 -0.9105  0.2764
 1195TIP3    H127780   1.181   7.248  17.807  1.6812 -1.0866  0.2833
 1195TIP3    H227781   1.247   7.343  17.904 -1.0885 -0.4603  1.6607
 1196TIP3   OH227782   1.244   4.772  18.975  0.1257  0.5437  0.3131
 1196TIP3    H127783   1.265   4.771  18.881 -0.5724 -0.4640  0.1477
 1196TIP3    H227784   1.190   4.851  18.986 -1.2610 -0.2461 -0.5080
 1197TIP3   OH227785   0.907   6.591  17.664  0.4360  0.0274 -0.0291
 1197TIP3    H127786   0.861   6.586  17.747  0.7731 -1.6570  0.1022
 1197TIP3    H227787   0.840   6.573  17.598  0.2122  1.1551 -0.1349
 1198TIP3   OH227788   7.296   4.889  17.761  0.5404  0.0733 -0.4084
 1198TIP3    H127789   7.361   4.828  17.728  0.4859  0.1825 -0.7140
 1198TIP3    H227790   7.347   4.954  17.811  0.7233  0.4600 -1.0884
 1199TIP3   OH227791   5.886   2.495  18.829 -0.0214  0.6119 -0.8985
 1199TIP3    H127792   5.805   2.470  18.786 -0.5923  0.0386  0.4455
 1199TIP3    H227793   5.934   2.412  18.838  1.4212  1.1279 -2.9808
 1200TIP3   OH227794   1.862   6.831  17.827 -0.3219 -0.9794  0.2669
 1200TIP3    H127795   1.768   6.841  17.844  0.1450  0.5555  2.4234
 1200TIP3    H227796   1.885   6.906  17.773 -0.2876 -1.2597 -0.1138
 1201TIP3   OH227797   7.179   7.289  18.242  0.4092 -0.0853  0.1695
 1201TIP3    H127798   7.091   7.265  18.271  0.9088 -2.0397  0.2101
 1201TIP3    H227799   7.196   7.372  18.285 -1.1675  0.0069  0.6890
 1202TIP3   OH227800   5.681   0.487  17.867 -0.2252 -0.4646 -0.6347
 1202TIP3    H127801   5.725   0.569  17.888  0.0931 -0.7218 -0.2597
 1202TIP3    H227802   5.594   0.512  17.837  0.1246  0.0436 -1.2191
 1203TIP3   OH227803   4.751   5.067  18.439 -0.1833  0.2333  0.3192
 1203TIP3    H127804   4.836   5.107  18.459 -0.3827  0.1380  1.4019
 1203TIP3    H227805   4.687   5.122  18.485 -0.4946 -1.0761  1.5446
 1204TIP3   OH227806   6.658   0.642  18.008 -0.0545  0.0484 -0.2077
 1204TIP3    H127807   6.618   0.572  18.058  1.0359 -1.0987 -0.8983
 1204TIP3    H227808   6.740   0.662  18.054  0.0510  0.2671 -0.4844
 1205TIP3   OH227809   7.713   4.628  19.534  0.2879 -0.5450 -0.6123
 1205TIP3    H127810   7.774   4.615  19.461 -0.3539 -2.2822 -0.8902
 1205TIP3    H227811   7.631   4.588  19.504 -0.5077  0.2871  0.3927
 1206TIP3   OH227812   6.567   5.469  19.235  0.4315 -0.0033 -0.3768
 1206TIP3    H127813   6.554   5.375  19.248  0.9137  0.0455  0.5606
 1206TIP3    H227814   6.501   5.494  19.170 -1.2407 -0.5639  1.0284
 1207TIP3   OH227815   1.982   3.495  17.663 -0.1106 -0.1643 -0.0234
 1207TIP3    H127816   2.048   3.490  17.733  0.0247  0.1061 -0.1316
 1207TIP3    H227817   1.937   3.578  17.678  1.0161  0.7133 -1.2197
 1208TIP3   OH227818   2.505   6.801  17.933 -0.2477  0.2239 -0.1181
 1208TIP3    H127819   2.546   6.717  17.911 -1.4475 -0.3952 -0.0616
 1208TIP3    H227820   2.576   6.852  17.972  0.4379 -0.8619  0.1122
 1209TIP3   OH227821   3.315   6.917  18.378  0.0919  0.0518  0.0172
 1209TIP3    H127822   3.349   6.970  18.306 -1.5096  2.4389  0.8932
 1209TIP3    H227823   3.267   6.846  18.336  0.5017  0.5118 -1.2544
 1210TIP3   OH227824   6.177   0.956  19.363 -0.1990  0.2515 -0.2311
 1210TIP3    H127825   6.101   0.973  19.307  0.8913  0.2711 -1.7559
 1210TIP3    H227826   6.241   1.023  19.338  0.8066 -0.5688  0.1050
 1211TIP3   OH227827   6.042   0.182  17.725  0.1600 -0.1391 -0.4361
 1211TIP3    H127828   6.109   0.242  17.690 -0.4899  1.1030  0.3563
 1211TIP3    H227829   5.996   0.235  17.791 -0.0224 -1.7292  0.7704
 1212TIP3   OH227830   0.897   1.440  19.389  0.0988 -0.0537  0.1607
 1212TIP3    H127831   0.967   1.375  19.392 -0.6005 -0.7999  0.6131
 1212TIP3    H227832   0.918   1.502  19.459 -0.5077 -1.1374  1.3266
 1213TIP3   OH227833   0.708   0.652  18.608 -0.3335 -0.1755 -0.0847
 1213TIP3    H127834   0.715   0.637  18.514 -1.2814 -1.2515 -0.0051
 1213TIP3    H227835   0.660   0.576  18.641  0.3389 -0.0172  1.3346
 1214TIP3   OH227836   1.164   4.278  18.749  0.5082  0.2469 -0.1885
 1214TIP3    H127837   1.204   4.313  18.828  0.1903 -0.1721  0.1629
 1214TIP3    H227838   1.153   4.354  18.692  1.9638  0.3440 -0.3681
 1215TIP3   OH227839   1.889   1.657  18.437  0.4491  0.1708 -0.2673
 1215TIP3    H127840   1.844   1.671  18.353  0.5136  0.1079 -0.3131
 1215TIP3    H227841   1.889   1.562  18.448 -0.3905  0.2244  0.2606
 1216TIP3   OH227842   5.764   7.317  17.940  0.4790 -0.9380  0.6772
 1216TIP3    H127843   5.731   7.227  17.940  1.2293 -1.2451  1.9146
 1216TIP3    H227844   5.736   7.352  18.025  0.0735  0.0520  0.1521
 1217TIP3   OH227845   0.239   2.737  19.899  0.3745  0.3191 -0.2179
 1217TIP3    H127846   0.226   2.647  19.870  1.1115 -0.7892  2.5762
 1217TIP3    H227847   0.194   2.742  19.983  0.7360  2.4490 -0.0904
 1218TIP3   OH227848   4.492   1.376  16.979  0.3890  0.2450 -0.4552
 1218TIP3    H127849   4.520   1.304  16.922  1.4031 -0.5281  0.9483
 1218TIP3    H227850   4.571   1.426  16.997  0.5435 -0.6474  1.7464
 1219TIP3   OH227851   2.738   0.331  19.115 -0.0573  0.4134  0.2393
 1219TIP3    H127852   2.662   0.346  19.060 -0.4544 -0.1000  0.6342
 1219TIP3    H227853   2.733   0.399  19.182 -0.7503 -0.2321  0.8656
 1220TIP3   OH227854   7.095   2.572  19.137  0.7154 -0.0034  0.2970
 1220TIP3    H127855   7.163   2.571  19.069 -1.0827  1.9694 -1.6887
 1220TIP3    H227856   7.117   2.648  19.192  0.7945 -0.0925  0.3880
 1221TIP3   OH227857   2.015   5.413  18.961  0.6741 -0.2999 -0.8874
 1221TIP3    H127858   1.921   5.416  18.941  1.0750 -1.0974 -3.3273
 1221TIP3    H227859   2.026   5.471  19.036 -1.6918  0.2262 -0.8647
 1222TIP3   OH227860   2.604   2.660  18.383 -0.7742 -0.1658 -0.2014
 1222TIP3    H127861   2.689   2.616  18.387  0.1038  1.5311  1.0179
 1222TIP3    H227862   2.610   2.717  18.307 -0.6587  0.2444  0.1119
 1223TIP3   OH227863   3.664   2.440  19.019 -0.3793 -0.4948  0.2396
 1223TIP3    H127864   3.705   2.372  19.074 -0.3914  1.0966  2.3420
 1223TIP3    H227865   3.575   2.408  19.005 -1.1965  0.0607  3.2885
 1224TIP3   OH227866   7.229   2.627  17.205 -0.1619 -0.1062  0.0360
 1224TIP3    H127867   7.215   2.656  17.295  0.4148  2.2944 -0.5857
 1224TIP3    H227868   7.153   2.661  17.157  0.7619  0.8027 -0.8153
 1225TIP3   OH227869   1.117   1.901  19.086  0.1633  0.7312 -0.1009
 1225TIP3    H127870   1.194   1.858  19.049  1.3457  1.5011  1.3362
 1225TIP3    H227871   1.124   1.884  19.180 -0.9344  1.5974  0.1480
 1226TIP3   OH227872   0.985   4.058  19.475  0.2027 -0.2013  0.0639
 1226TIP3    H127873   1.011   4.070  19.384  0.1686  0.4933  0.1411
 1226TIP3    H227874   1.051   4.106  19.526 -0.3450  0.2699  0.3432
 1227TIP3   OH227875   3.919   6.591  18.812 -0.0080 -0.6476  0.2407
 1227TIP3    H127876   3.865   6.670  18.805 -1.3763 -1.4104  1.5657
 1227TIP3    H227877   3.985   6.613  18.878  0.8140  0.0038 -0.7701
 1228TIP3   OH227878   4.471   6.250  19.304 -0.8303 -0.8197  0.3018
 1228TIP3    H127879   4.493   6.283  19.217 -0.6908 -1.1463  0.2165
 1228TIP3    H227880   4.427   6.324  19.347  2.1486  0.5503  1.2016
 1229TIP3   OH227881   3.027   3.041  18.924  0.2683  0.1901  0.1224
 1229TIP3    H127882   3.119   3.032  18.897  0.4642  1.7315  0.1831
 1229TIP3    H227883   2.977   2.997  18.856  1.0274 -0.2603 -0.1530
 1230TIP3   OH227884   0.106   2.805  18.447 -0.1034 -0.2494  0.2304
 1230TIP3    H127885   0.046   2.879  18.452 -1.6002 -1.3453 -0.7718
 1230TIP3    H227886   0.145   2.801  18.535 -1.7585  0.2838  1.0377
 1231TIP3   OH227887   1.484   3.368  17.813  0.2460 -0.1433  0.1958
 1231TIP3    H127888   1.543   3.295  17.833 -2.2318 -2.3653 -0.1294
 1231TIP3    H227889   1.427   3.376  17.889  0.2578  1.3053  0.0939
 1232TIP3   OH227890   3.451   0.128  18.847 -0.0026  0.0895  0.2685
 1232TIP3    H127891   3.411   0.083  18.922 -1.7747 -0.0741 -0.7060
 1232TIP3    H227892   3.388   0.195  18.823  0.8658  0.6037 -0.6496
 1233TIP3   OH227893   4.589   7.111  17.759 -0.4546  0.1819 -0.3303
 1233TIP3    H127894   4.591   7.117  17.664 -2.8718  1.1169 -0.4121
 1233TIP3    H227895   4.605   7.019  17.778  1.1164  0.1646 -1.5409
 1234TIP3   OH227896   1.220   4.519  18.583 -0.3037  0.0780  0.7102
 1234TIP3    H127897   1.274   4.454  18.538 -0.1221  1.0240 -0.4771
 1234TIP3    H227898   1.202   4.586  18.517 -0.8049  1.0481  1.7940
 1235TIP3   OH227899   2.130   5.786  18.933 -0.4715 -0.2901  0.1057
 1235TIP3    H127900   2.143   5.860  18.991  1.2289  1.3748 -2.1950
 1235TIP3    H227901   2.215   5.744  18.928 -0.6550 -0.5693 -0.9062
 1236TIP3   OH227902   1.223   7.283  17.404 -0.0229 -0.8134  0.7750
 1236TIP3    H127903   1.128   7.294  17.402  0.0473 -0.2499 -0.5066
 1236TIP3    H227904   1.250   7.323  17.487 -0.7852  0.0229  0.6292
 1237TIP3   OH227905   6.078   4.791  18.154  0.1481  0.6778  0.6876
 1237TIP3    H127906   6.011   4.776  18.087 -0.6686  0.5911  1.4936
 1237TIP3    H227907   6.041   4.861  18.208  1.1222  1.2603  0.6225
 1238TIP3   OH227908   4.425   7.488  17.641  0.4090  0.0054  0.5420
 1238TIP3    H127909   4.477   7.547  17.586 -0.8339  0.3056 -0.3596
 1238TIP3    H227910   4.487   7.420  17.668  1.2545  0.3104 -0.5450
 1239TIP3   OH227911   1.999   6.534  16.567  0.5452  0.4738  0.0962
 1239TIP3    H127912   1.939   6.498  16.502 -0.5851  0.7230  0.9690
 1239TIP3    H227913   1.944   6.588  16.624  1.4229 -0.0158  1.4746
 1240TIP3   OH227914   2.138   2.473  18.863  0.0631  0.0804 -0.3738
 1240TIP3    H127915   2.218   2.422  18.880 -0.7508 -1.0878  0.0246
 1240TIP3    H227916   2.154   2.556  18.907  2.5205  1.2865 -3.2257
 1241TIP3   OH227917   6.672   2.126  16.968 -0.7439  0.2528 -0.0853
 1241TIP3    H127918   6.746   2.123  16.908 -0.2296 -0.8729  0.5805
 1241TIP3    H227919   6.711   2.137  17.054 -1.4889  2.2978  0.0619
 1242TIP3   OH227920   3.005   7.216  16.902 -0.5658  0.2319  0.1593
 1242TIP3    H127921   2.935   7.278  16.881 -1.1066 -0.1469  0.7983
 1242TIP3    H227922   3.021   7.170  16.820 -2.4032 -0.9752  0.4113
 1243TIP3   OH227923   5.685   1.623  19.168  0.1709 -0.1081  0.3399
 1243TIP3    H127924   5.596   1.660  19.172  0.5535  0.7856  1.0620
 1243TIP3    H227925   5.730   1.677  19.103 -0.2600 -1.6293 -1.2842
 1244TIP3   OH227926   2.912   3.169  17.220  0.7113 -0.0387  0.0091
 1244TIP3    H127927   2.847   3.200  17.157  0.2709 -1.8120 -0.4858
 1244TIP3    H227928   2.979   3.128  17.167  2.0813  1.4159  0.5460
 1245TIP3   OH227929   6.263   0.506  18.723 -0.5069 -0.6000  0.3815
 1245TIP3    H127930   6.180   0.458  18.728  0.9727 -3.6955 -1.6428
 1245TIP3    H227931   6.327   0.448  18.763  0.9101  1.1843  0.8196
 1246TIP3   OH227932   0.311   4.680  17.291  0.0159 -0.2032 -0.3923
 1246TIP3    H127933   0.357   4.634  17.361  0.6268  1.3461  0.2790
 1246TIP3    H227934   0.375   4.743  17.258 -1.0271  0.7215 -0.7099
 1247TIP3   OH227935   5.144   7.052  19.139  0.4462 -0.4111 -0.0960
 1247TIP3    H127936   5.236   7.038  19.159  0.0434 -1.2427  1.2875
 1247TIP3    H227937   5.118   6.974  19.090  1.1440  1.1133 -3.1656
 1248TIP3   OH227938   1.127   4.687  18.392  0.1663  0.6160 -0.2561
 1248TIP3    H127939   1.045   4.732  18.372 -0.4965  0.1277  1.1899
 1248TIP3    H227940   1.192   4.757  18.401 -0.1057  1.0111 -1.3295
 1249TIP3   OH227941   7.698   2.073  18.421  1.2638 -0.2796 -0.0535
 1249TIP3    H127942   7.604   2.088  18.425  1.3780  0.8426 -0.8564
 1249TIP3    H227943   7.724   2.053  18.511  0.5654  1.4398  0.5633
 1250TIP3   OH227944   3.063   0.364  17.870 -0.6386 -0.3546 -0.6889
 1250TIP3    H127945   2.970   0.365  17.891 -0.7133 -0.8851 -0.9655
 1250TIP3    H227946   3.086   0.456  17.857 -0.9042 -0.1433  0.2997
 1251TIP3   OH227947   4.561   7.557  19.077  0.0909  0.0052  0.0979
 1251TIP3    H127948   4.595   7.586  19.161 -0.7475 -1.3458  0.9495
 1251TIP3    H227949   4.575   7.631  19.018  0.5848  1.0287  1.4497
 1252TIP3   OH227950   6.028   0.844  18.844  0.8218  0.2976  0.5220
 1252TIP3    H127951   6.121   0.823  18.850  1.0592  0.7686 -0.9155
 1252TIP3    H227952   6.002   0.814  18.757 -0.6494 -0.7784  1.2886
 1253TIP3   OH227953   1.297   0.989  17.885  0.2136 -0.0761 -0.0382
 1253TIP3    H127954   1.276   0.913  17.832  0.4355 -0.2058  0.0586
 1253TIP3    H227955   1.258   1.063  17.838  1.0755 -0.0934 -0.7892
 1254TIP3   OH227956   3.705   5.463  17.525 -0.2292 -0.0520  0.5512
 1254TIP3    H127957   3.660   5.418  17.453 -1.6740  2.0116  0.0547
 1254TIP3    H227958   3.681   5.414  17.603 -2.7642  0.4362  0.1861
 1255TIP3   OH227959   2.137   0.123  17.481  0.2205  0.0818  0.2854
 1255TIP3    H127960   2.069   0.117  17.415 -0.7334  4.6046  0.5171
 1255TIP3    H227961   2.212   0.162  17.435  1.3627 -1.3288  0.8691
 1256TIP3   OH227962   5.342   4.374  17.856 -0.4559  0.5631 -0.4965
 1256TIP3    H127963   5.374   4.287  17.879 -1.2554  0.0072 -1.3993
 1256TIP3    H227964   5.341   4.375  17.760 -0.7360  1.4598 -0.4972
 1257TIP3   OH227965   2.146   4.376  17.783  0.2915 -0.3142  0.4782
 1257TIP3    H127966   2.149   4.396  17.876  0.4949 -0.8036  0.5817
 1257TIP3    H227967   2.128   4.282  17.779 -4.0199  0.3093  0.0280
 1258TIP3   OH227968   7.528   1.509  17.203  0.1900  0.5411 -0.1838
 1258TIP3    H127969   7.529   1.589  17.256 -0.0846  1.0978 -1.0076
 1258TIP3    H227970   7.466   1.527  17.133  0.4054 -0.2612 -0.5899
 1259TIP3   OH227971   0.467   5.616  17.860  0.1417  0.4605 -0.2232
 1259TIP3    H127972   0.466   5.614  17.955 -2.9100  0.9711 -0.1549
 1259TIP3    H227973   0.459   5.524  17.834  0.9985  0.3188 -0.0029
 1260TIP3   OH227974   5.169   5.586  17.158  0.6495 -0.1778  0.1562
 1260TIP3    H127975   5.175   5.550  17.070 -1.4194  0.9615 -0.5171
 1260TIP3    H227976   5.248   5.555  17.203  0.9636 -2.0747 -1.6002
 1261TIP3   OH227977   1.990   3.782  17.632  0.6360  0.1958 -0.1682
 1261TIP3    H127978   1.920   3.801  17.694  1.5424 -1.3149  1.3955
 1261TIP3    H227979   1.958   3.816  17.548 -1.3959  0.6651  0.7481
 1262TIP3   OH227980   5.560   4.923  18.490 -0.0429  0.1777 -0.9124
 1262TIP3    H127981   5.498   4.947  18.559  2.0123 -1.6349  1.7495
 1262TIP3    H227982   5.512   4.862  18.434 -0.4989 -1.8828  1.5803
 1263TIP3   OH227983   5.861   7.670  18.219 -1.1653  0.4847  0.2887
 1263TIP3    H127984   5.912   7.738  18.174 -0.0638 -0.4404  0.0784
 1263TIP3    H227985   5.914   7.590  18.209 -1.7274 -0.1093  1.7607
 1264TIP3   OH227986   4.247   1.305  19.480 -0.4534  0.2750 -0.1300
 1264TIP3    H127987   4.219   1.387  19.520 -0.7963 -0.7559  1.8661
 1264TIP3    H227988   4.186   1.291  19.407 -0.5323  1.6454 -0.3375
 1265TIP3   OH227989   2.096   5.610  19.183 -0.4932  0.5195  0.0289
 1265TIP3    H127990   2.104   5.564  19.267 -0.0470  1.1941  0.3732
 1265TIP3    H227991   2.167   5.674  19.185  1.0930 -1.0424 -1.9126
 1266TIP3   OH227992   7.218   1.501  17.443  0.1566  0.1280 -0.2168
 1266TIP3    H127993   7.139   1.541  17.408 -1.2063 -1.7984  0.5068
 1266TIP3    H227994   7.247   1.561  17.512 -1.8203 -0.0918  0.8498
 1267TIP3   OH227995   0.859   4.874  17.578  0.2800  0.0594 -0.3981
 1267TIP3    H127996   0.805   4.877  17.500  0.0124  1.6102 -0.1819
 1267TIP3    H227997   0.946   4.848  17.547 -0.1629 -0.7292 -0.9908
 1268TIP3   OH227998   2.156   1.752  17.534  0.2083 -0.6283 -0.0891
 1268TIP3    H127999   2.075   1.730  17.581  0.6392  0.4550  1.2277
 1268TIP3    H228000   2.126   1.787  17.450 -0.7467  0.4207  0.6580
 1269TIP3   OH228001   4.032   4.158  18.248  0.1248  0.2456  0.0235
 1269TIP3    H128002   4.065   4.248  18.241 -0.5084  0.4538 -0.3405
 1269TIP3    H228003   3.948   4.166  18.293 -0.1898 -0.0984 -0.4927
 1270TIP3   OH228004   2.266   7.021  17.779 -0.1517 -0.0852 -0.2328
 1270TIP3    H128005   2.254   7.013  17.873 -0.9551 -0.1392 -0.3368
 1270TIP3    H228006   2.320   6.946  17.755  1.9474  1.0998  0.4955
 1271TIP3   OH228007   1.492   2.676  18.159 -0.0866 -0.3748  0.8200
 1271TIP3    H128008   1.568   2.691  18.216 -0.6088  0.8637  1.2379
 1271TIP3    H228009   1.529   2.674  18.071  0.2369  2.7405  0.7598
 1272TIP3   OH228010   2.502   6.442  18.056  0.0360 -0.1258 -0.1380
 1272TIP3    H128011   2.494   6.499  17.979 -0.9735  0.2637  0.2392
 1272TIP3    H228012   2.450   6.486  18.123 -0.0578 -1.0674  0.4134
 1273TIP3   OH228013   3.450   1.216  18.558  0.0020  0.1323 -0.4311
 1273TIP3    H128014   3.449   1.180  18.469 -1.7519 -0.7285 -0.1052
 1273TIP3    H228015   3.381   1.282  18.558 -0.3119 -0.1781  0.3995
 1274TIP3   OH228016   5.089   1.345  19.181  0.4786  0.0464 -0.1226
 1274TIP3    H128017   5.111   1.341  19.088  2.7086  0.3844  0.3308
 1274TIP3    H228018   5.105   1.437  19.205 -1.4413  0.3105  0.3299
 1275TIP3   OH228019   2.876   5.706  18.349 -0.3863 -0.8191 -0.1612
 1275TIP3    H128020   2.884   5.678  18.258 -0.5189  2.3876 -1.2984
 1275TIP3    H228021   2.965   5.731  18.374 -0.5839 -0.3538  0.0860
 1276TIP3   OH228022   1.475   5.977  18.988 -0.2644  0.1875  0.7806
 1276TIP3    H128023   1.506   5.889  19.009  2.6497  0.9025 -0.0917
 1276TIP3    H228024   1.496   5.988  18.895 -0.3768  1.8810  0.9363
 1277TIP3   OH228025   6.391   1.031  18.267 -0.0643  0.0670  0.2095
 1277TIP3    H128026   6.350   0.951  18.301 -0.1955  0.1338  0.2065
 1277TIP3    H228027   6.484   1.020  18.287  0.1867 -0.8850 -1.3371
 1278TIP3   OH228028   6.154   2.264  17.159 -0.6401 -0.6883 -0.0989
 1278TIP3    H128029   6.105   2.276  17.077 -1.2400 -0.6070  0.2597
 1278TIP3    H228030   6.212   2.340  17.163 -0.3095 -0.9107 -0.6537
 1279TIP3   OH228031   0.857   7.295  17.652  0.1622  0.2828 -0.4382
 1279TIP3    H128032   0.912   7.269  17.578 -1.3181 -0.9525 -1.1536
 1279TIP3    H228033   0.783   7.339  17.612  1.0572  2.9098  0.5753
 1280TIP3   OH228034   1.341   4.735  18.722  0.0774  0.7601  0.1449
 1280TIP3    H128035   1.435   4.721  18.731 -0.0123  0.1826  0.2466
 1280TIP3    H228036   1.310   4.656  18.677 -0.4243  0.7463  0.5128
 1281TIP3   OH228037   2.621   1.255  17.342 -0.0255 -0.4048  0.3577
 1281TIP3    H128038   2.714   1.237  17.329 -0.1014  0.3981 -1.8047
 1281TIP3    H228039   2.609   1.253  17.437  2.4156  0.4905  0.7625
 1282TIP3   OH228040   3.759   0.046  17.532  0.0826  0.8880 -0.1155
 1282TIP3    H128041   3.805   0.130  17.525 -0.3390  1.3214  1.6554
 1282TIP3    H228042   3.828  -0.019  17.539  0.4199  1.0264 -1.7494
 1283TIP3   OH228043   7.716   2.110  17.295 -0.1132 -0.5530  0.3310
 1283TIP3    H128044   7.734   2.026  17.336  3.3409 -0.3195 -0.3780
 1283TIP3    H228045   7.740   2.097  17.203 -1.1263  0.7762 -0.1518
 1284TIP3   OH228046   3.641   1.790  19.076  0.0380  0.5272  0.4132
 1284TIP3    H128047   3.660   1.884  19.074  0.6601  0.4235  0.9328
 1284TIP3    H228048   3.693   1.753  19.005  0.4046  0.4816  0.6987
 1285TIP3   OH228049   7.414   6.290  16.918  0.0865 -0.3704  0.4782
 1285TIP3    H128050   7.430   6.218  16.858  0.0915 -0.8263  1.0104
 1285TIP3    H228051   7.467   6.362  16.885 -1.0603 -0.1231 -0.9221
 1286TIP3   OH228052   1.656   1.806  17.428  0.0198  0.2144  0.2166
 1286TIP3    H128053   1.702   1.860  17.492 -0.1881 -0.7603  1.2147
 1286TIP3    H228054   1.676   1.847  17.343 -1.7826  3.1114  1.0431
 1287TIP3   OH228055   5.550   2.829  18.827 -0.1603 -0.3549 -0.8489
 1287TIP3    H128056   5.483   2.789  18.883 -1.3281  1.0045 -1.2175
 1287TIP3    H228057   5.537   2.788  18.742 -0.0232 -0.6327 -0.7388
 1288TIP3   OH228058   6.406   0.840  17.017  0.5408 -0.1911 -0.3166
 1288TIP3    H128059   6.423   0.753  16.980  0.1311  1.2044 -4.2619
 1288TIP3    H228060   6.490   0.885  17.012  0.2989  0.2792 -0.2008
 1289TIP3   OH228061   4.061   5.368  17.917  0.3152 -0.4609  0.1769
 1289TIP3    H128062   3.976   5.327  17.936  0.5664 -1.5286 -0.8713
 1289TIP3    H228063   4.045   5.462  17.926 -0.4748 -0.7299  1.9169
 1290TIP3   OH228064   6.445   3.083  19.233  0.2751  0.2133  0.1070
 1290TIP3    H128065   6.443   3.075  19.138 -0.4120  0.6622  0.0714
 1290TIP3    H228066   6.522   3.033  19.260  2.4259  2.6892 -0.9576
 1291TIP3   OH228067   5.017   0.392  17.375  0.0538  0.3584  0.0091
 1291TIP3    H128068   5.023   0.300  17.349  2.8334 -0.1441  1.9863
 1291TIP3    H228069   5.059   0.440  17.304  3.0532 -0.4877  1.0762
 1292TIP3   OH228070   6.979   5.693  18.982  0.2535 -0.2199  0.4710
 1292TIP3    H128071   6.934   5.654  19.057  0.5123  1.2568  1.4602
 1292TIP3    H228072   7.027   5.768  19.020  2.7978 -1.1554 -0.6786
 1293TIP3   OH228073   1.131   3.711  18.793  0.1009  0.4661  0.4032
 1293TIP3    H128074   1.066   3.661  18.843 -0.3954  0.4244 -0.2720
 1293TIP3    H228075   1.107   3.803  18.808  0.5868  0.4948  1.0740
 1294TIP3   OH228076   2.448   3.355  19.457  0.2601 -0.2539  0.1930
 1294TIP3    H128077   2.373   3.314  19.500 -0.0062 -0.2110 -0.2228
 1294TIP3    H228078   2.422   3.362  19.365  1.0684 -0.9500 -0.1060
 1295TIP3   OH228079   3.654   3.693  19.228 -0.0310  0.8800 -0.1141
 1295TIP3    H128080   3.624   3.761  19.168  1.0758  0.3569 -1.2906
 1295TIP3    H228081   3.606   3.711  19.309 -0.3533  2.5809 -0.6317
 1296TIP3   OH228082   0.162   5.894  19.056 -0.1725  0.9858 -0.0133
 1296TIP3    H128083   0.237   5.921  19.109 -0.2330  0.7143  0.2147
 1296TIP3    H228084   0.155   5.800  19.071 -0.7140  1.0519  0.1786
 1297TIP3   OH228085   3.636   4.727  17.990 -0.1630 -0.6072 -0.1833
 1297TIP3    H128086   3.545   4.698  17.981 -0.5278  0.5390 -0.4611
 1297TIP3    H228087   3.688   4.649  17.975 -1.0846 -1.0887 -0.9875
 1298TIP3   OH228088   5.592   2.548  17.816  0.0547 -0.4387 -0.1969
 1298TIP3    H128089   5.653   2.621  17.827 -2.2416  1.5142  0.6097
 1298TIP3    H228090   5.569   2.549  17.723  0.0842 -0.1637 -0.2017
 1299TIP3   OH228091   5.039   2.083  19.065  0.0512 -0.0259  0.3097
 1299TIP3    H128092   5.006   2.172  19.055 -0.3247 -0.3139 -1.2857
 1299TIP3    H228093   4.975   2.028  19.020  1.5516 -0.8199 -0.9589
 1300TIP3   OH228094   5.969   5.926  17.114  0.0457 -0.2160 -0.7698
 1300TIP3    H128095   5.941   5.862  17.048 -2.3814  0.8126 -0.8246
 1300TIP3    H228096   5.908   5.914  17.187  0.1737  1.3335 -0.3698
 1301TIP3   OH228097   1.904   0.801  16.501 -0.8871  0.2601 -0.4639
 1301TIP3    H128098   1.957   0.723  16.487 -2.3092 -0.2685 -3.5527
 1301TIP3    H228099   1.819   0.769  16.530 -0.9778  0.8101 -0.0862
 1302TIP3   OH228100   6.308   4.634  17.786 -0.3746 -0.2292  0.8515
 1302TIP3    H128101   6.321   4.641  17.881 -1.0367 -1.1651  1.0267
 1302TIP3    H228102   6.251   4.708  17.765 -1.2541 -0.7345  1.4045
 1303TIP3   OH228103   6.322   4.357  17.823 -0.4688  0.0398 -0.3247
 1303TIP3    H128104   6.347   4.447  17.802 -0.3277  0.1103  0.1178
 1303TIP3    H228105   6.303   4.359  17.917  2.3879 -0.9954  0.3851
 1304TIP3   OH228106   2.632   1.872  18.084  0.7232 -0.2252  0.3596
 1304TIP3    H128107   2.555   1.823  18.056  1.1542 -0.0026 -1.3095
 1304TIP3    H228108   2.654   1.834  18.170 -1.1366 -0.3740  0.8245
 1305TIP3   OH228109   1.106   1.631  19.470 -0.4379  0.8825 -0.3537
 1305TIP3    H128110   1.117   1.692  19.543 -0.4527  2.3733 -1.5596
 1305TIP3    H228111   1.148   1.674  19.395  1.7540 -1.6474 -0.7634
 1306TIP3   OH228112   5.675   3.646  18.392 -0.5338  0.1745  0.0390
 1306TIP3    H128113   5.626   3.570  18.422 -1.3652  0.8901  0.5522
 1306TIP3    H228114   5.637   3.719  18.440  0.2166  0.9195 -0.4780
 1307TIP3   OH228115   5.110   4.811  18.049 -0.1812  0.0286 -0.1837
 1307TIP3    H128116   5.175   4.745  18.071  0.3549  1.1298  1.8625
 1307TIP3    H228117   5.080   4.844  18.134  1.2030  3.9499 -1.0036
 1308TIP3   OH228118   5.263   5.451  18.261  0.5912  0.4235 -0.3001
 1308TIP3    H128119   5.307   5.366  18.266 -0.9855 -0.4121  0.0767
 1308TIP3    H228120   5.178   5.432  18.223  0.6169  2.0337 -1.2691
 1309TIP3   OH228121   6.825   6.110  19.447  0.0031 -0.2753 -0.3357
 1309TIP3    H128122   6.848   6.190  19.399  0.9935 -1.2608 -1.5678
 1309TIP3    H228123   6.733   6.122  19.469 -0.5158  0.2527 -2.5136
 1310TIP3   OH228124   3.800   7.148  19.132  0.4067 -0.1021  0.0891
 1310TIP3    H128125   3.854   7.199  19.072 -0.4811 -0.2652 -0.8700
 1310TIP3    H228126   3.861   7.086  19.172  0.8972 -0.4570 -1.1662
 1311TIP3   OH228127   4.947   6.414  17.162 -0.7248 -0.2927 -0.1257
 1311TIP3    H128128   4.993   6.350  17.217 -1.4708 -0.0672  0.7836
 1311TIP3    H228129   4.870   6.439  17.214  0.1387  2.2315  0.0958
 1312TIP3   OH228130   4.125   4.412  19.040 -0.5430  0.6044 -0.5570
 1312TIP3    H128131   4.175   4.332  19.057  1.1633  1.9685  1.3958
 1312TIP3    H228132   4.085   4.397  18.954  0.3100 -2.0084 -0.6057
 1313TIP3   OH228133   1.107   3.304  19.044  0.2140 -0.0178  0.0504
 1313TIP3    H128134   1.027   3.253  19.061 -1.4002  2.6834  1.2946
 1313TIP3    H228135   1.132   3.338  19.129  0.1201  2.6504 -0.8820
 1314TIP3   OH228136   2.050   6.385  19.265 -0.3690 -1.1022  0.6085
 1314TIP3    H128137   2.076   6.294  19.282 -2.4506 -2.2043 -1.5028
 1314TIP3    H228138   1.979   6.401  19.328 -0.1135 -1.0017  0.8702
 1315TIP3   OH228139   3.874   3.563  19.062  0.4090  0.0188  0.4227
 1315TIP3    H128140   3.821   3.561  19.142 -3.0029 -1.6649 -1.6378
 1315TIP3    H228141   3.879   3.656  19.040 -0.3999  0.3568  1.5218
 1316TIP3   OH228142   3.033   4.388  17.035  0.5574  0.1965  0.3186
 1316TIP3    H128143   2.946   4.414  17.067  0.5820  0.9993 -0.2405
 1316TIP3    H228144   3.053   4.451  16.966  1.3363 -0.3449  0.0387
 1317TIP3   OH228145   4.986   5.172  18.527  0.1285 -0.3955 -0.4134
 1317TIP3    H128146   5.033   5.202  18.604  0.9406 -2.7678  0.0920
 1317TIP3    H228147   5.055   5.151  18.464 -0.2411 -2.7372 -0.1104
 1318TIP3   OH228148   7.504   2.011  19.380 -0.1433 -0.6076 -0.0538
 1318TIP3    H128149   7.442   1.940  19.395  1.0086 -1.4086  1.1211
 1318TIP3    H228150   7.535   2.034  19.467  0.5622  0.3751 -0.5526
 1319TIP3   OH228151   2.159   1.296  19.003  0.3646  0.4367 -0.0375
 1319TIP3    H128152   2.082   1.240  18.990 -0.6490  1.6898  0.4339
 1319TIP3    H228153   2.213   1.280  18.926 -0.0797 -0.8880 -0.1043
 1320TIP3   OH228154   3.540   4.464  18.942  0.0648 -0.7375 -0.1041
 1320TIP3    H128155   3.495   4.516  18.877 -0.4624 -1.1689 -0.0925
 1320TIP3    H228156   3.487   4.384  18.950  0.5422 -1.0226  0.2885
 1321TIP3   OH228157   3.175   5.929  18.736  0.1737  0.6305  0.0599
 1321TIP3    H128158   3.176   5.873  18.658 -0.4474 -2.0841  1.8748
 1321TIP3    H228159   3.264   5.922  18.771 -0.0253  0.4195  0.5292
 1322TIP3   OH228160   1.367   2.540  18.969  0.5075 -0.4446  0.8266
 1322TIP3    H128161   1.286   2.531  19.018 -0.8127 -0.0003 -1.1656
 1322TIP3    H228162   1.436   2.527  19.035 -1.1133  0.7787  2.9121
 1323TIP3   OH228163   2.408   7.107  16.738  0.6978 -0.5980  0.4607
 1323TIP3    H128164   2.359   7.024  16.741 -0.3770  0.0550  2.1454
 1323TIP3    H228165   2.479   7.090  16.676 -0.9682 -1.9624 -1.2053
 1324TIP3   OH228166   7.478   4.681  17.724  0.3799  0.0819 -0.2686
 1324TIP3    H128167   7.433   4.624  17.786  0.2315  1.0980  0.6001
 1324TIP3    H228168   7.559   4.634  17.702  0.0403 -0.6668  0.0490
 1325TIP3   OH228169   7.188   6.889  17.681 -0.0457  0.5443 -0.0882
 1325TIP3    H128170   7.243   6.823  17.638 -2.1964 -0.4969 -1.4222
 1325TIP3    H228171   7.127   6.838  17.735  0.4653  1.6738  1.6382
 1326TIP3   OH228172   0.858   3.202  19.068  0.1593  0.3410 -0.4658
 1326TIP3    H128173   0.823   3.285  19.101 -0.8124 -0.1682 -0.1702
 1326TIP3    H228174   0.801   3.180  18.994 -0.4894 -0.7507  0.3285
 1327TIP3   OH228175   0.452   3.974  18.764  0.0415 -0.3468 -0.1687
 1327TIP3    H128176   0.518   4.018  18.817  1.1364 -0.6541 -1.2366
 1327TIP3    H228177   0.416   3.906  18.821  1.2421 -0.7209  0.1627
 1328TIP3   OH228178   0.167   1.261  17.705 -0.0079  0.2089 -0.0839
 1328TIP3    H128179   0.177   1.177  17.752 -1.5961 -0.5088 -0.9521
 1328TIP3    H228180   0.253   1.277  17.667  0.1783 -1.3820 -0.4244
 1329TIP3   OH228181   3.475   1.366  18.973  0.0095  0.2623  0.0477
 1329TIP3    H128182   3.508   1.431  19.034 -1.1215 -1.2259  2.3931
 1329TIP3    H228183   3.444   1.417  18.898 -0.2799  2.3853  1.5163
 1330TIP3   OH228184   2.158   3.258  18.362 -0.2089 -0.1203 -0.5082
 1330TIP3    H128185   2.075   3.231  18.401  0.1378 -0.9250 -0.3213
 1330TIP3    H228186   2.188   3.329  18.419 -0.2537 -0.5402  0.0516
 1331TIP3   OH228187   3.680   6.026  18.934 -0.7590 -0.9180  0.2528
 1331TIP3    H128188   3.713   6.073  18.858 -2.0305 -1.2570 -0.5490
 1331TIP3    H228189   3.752   6.026  18.997  0.2633 -0.5202 -0.9008
 1332TIP3   OH228190   3.144   5.948  17.897 -0.1251  0.1489  0.0330
 1332TIP3    H128191   3.203   6.001  17.951  0.9264 -0.0370 -0.8941
 1332TIP3    H228192   3.190   5.939  17.813 -0.6181 -1.5776 -0.0918
 1333TIP3   OH228193   3.517   0.165  17.175 -0.0097  0.0575 -0.1083
 1333TIP3    H128194   3.486   0.173  17.265 -0.5593  1.5068 -0.4077
 1333TIP3    H228195   3.439   0.140  17.125 -0.0518  0.8163 -0.4214
 1334TIP3   OH228196   0.110   0.286  17.353  0.2936 -0.4631 -0.5759
 1334TIP3    H128197   0.097   0.197  17.387 -1.3472 -0.3828 -0.9293
 1334TIP3    H228198   0.099   0.343  17.429 -0.4688 -0.4665 -0.6731
 1335TIP3   OH228199   1.190   1.245  19.015  0.4696  0.1101 -0.0311
 1335TIP3    H128200   1.109   1.195  19.025  1.3484 -1.1425  1.4124
 1335TIP3    H228201   1.224   1.220  18.929 -0.5982  0.5659 -0.6008
 1336TIP3   OH228202   4.837   1.900  17.179 -0.9003  0.0972 -0.2555
 1336TIP3    H128203   4.883   1.984  17.172  0.5170 -0.7741 -2.3870
 1336TIP3    H228204   4.761   1.910  17.122 -0.8665  0.0341 -0.3118
 1337TIP3   OH228205   6.272   5.323  18.384  0.2641  0.5206  0.0930
 1337TIP3    H128206   6.338   5.302  18.318 -1.0671  1.2067 -1.5258
 1337TIP3    H228207   6.320   5.373  18.450  2.0273 -1.6985  0.6506
 1338TIP3   OH228208   6.039   4.979  19.078  0.3338 -0.3635  0.3060
 1338TIP3    H128209   6.061   4.919  19.150  2.1417 -0.9802 -0.6859
 1338TIP3    H228210   6.072   5.064  19.108 -0.9528 -0.1374  1.1247
 1339TIP3   OH228211   3.430   7.231  19.447 -0.0197  0.1067 -0.2405
 1339TIP3    H128212   3.386   7.160  19.402  2.9308 -1.9749 -0.1467
 1339TIP3    H228213   3.403   7.223  19.538 -3.3740  2.2370 -0.8702
 1340TIP3   OH228214   0.954   2.511  18.975  0.2727 -0.2548  0.1049
 1340TIP3    H128215   1.015   2.527  18.902 -0.3205  0.9698 -0.1381
 1340TIP3    H228216   0.946   2.415  18.978  0.9996 -0.3639 -0.8635
 1341TIP3   OH228217   2.668   7.216  18.992 -0.6426 -0.1874 -0.7022
 1341TIP3    H128218   2.683   7.215  19.087  1.2618  1.0415 -0.9328
 1341TIP3    H228219   2.606   7.288  18.978  2.1313  2.3951 -0.6617
 1342TIP3   OH228220   4.059   5.707  18.557 -0.1782 -0.3492  0.3043
 1342TIP3    H128221   4.015   5.655  18.489 -0.8507  1.4987 -0.7490
 1342TIP3    H228222   3.995   5.774  18.581  0.7774  0.2230  1.3365
 1343TIP3   OH228223   4.044   4.171  18.810 -0.7576 -0.0128 -0.5567
 1343TIP3    H128224   4.030   4.146  18.719  0.6729 -0.1701 -0.7527
 1343TIP3    H228225   3.966   4.140  18.856 -1.3140 -0.2756 -1.6547
 1344TIP3   OH228226   0.236   5.721  17.735 -0.3843  0.1229 -0.3947
 1344TIP3    H128227   0.322   5.692  17.765 -0.6975 -0.7851 -0.3375
 1344TIP3    H228228   0.189   5.640  17.716 -1.2439  0.6071 -0.3764
 1345TIP3   OH228229   3.847   5.249  18.089  0.0162  0.4371  0.2365
 1345TIP3    H128230   3.810   5.161  18.079  1.4102 -0.1351 -0.2515
 1345TIP3    H228231   3.772   5.308  18.085 -0.6413 -0.3231 -4.6707
 1346TIP3   OH228232   3.240   6.800  17.812 -0.2044 -0.2466 -0.9648
 1346TIP3    H128233   3.271   6.725  17.761 -1.5235 -2.3031  1.0757
 1346TIP3    H228234   3.298   6.803  17.888  0.3749  1.4028 -1.4418
 1347TIP3   OH228235   4.555   3.614  19.021 -0.4779  0.5555  0.5544
 1347TIP3    H128236   4.621   3.626  18.953  0.4113 -1.2567  1.0385
 1347TIP3    H228237   4.606   3.595  19.100 -1.5599 -0.2056  1.0879
 1348TIP3   OH228238   5.825   7.532  16.737  0.3204  0.3621 -0.1430
 1348TIP3    H128239   5.785   7.445  16.733  0.8789  0.1485 -1.3273
 1348TIP3    H228240   5.884   7.536  16.662  0.2612  1.7915 -0.1507
 1349TIP3   OH228241   2.453   6.643  19.279  0.6656  0.2698 -0.7547
 1349TIP3    H128242   2.422   6.553  19.289 -0.7456  0.8315  0.1322
 1349TIP3    H228243   2.428   6.668  19.190  1.9584 -0.5197 -1.3696
 1350TIP3   OH228244   5.237   2.633  17.190  0.6569 -0.3939  0.2942
 1350TIP3    H128245   5.307   2.649  17.127  0.1373 -0.2035 -0.2467
 1350TIP3    H228246   5.158   2.627  17.137  0.3761 -1.4679  0.8154
 1351TIP3   OH228247   1.517   7.540  17.779 -0.3021 -0.3135  0.6549
 1351TIP3    H128248   1.490   7.629  17.802 -1.8643 -0.9537  1.4975
 1351TIP3    H228249   1.577   7.514  17.849 -0.0396 -0.0110  0.5430
 1352TIP3   OH228250   2.954   3.002  17.544 -0.0816  0.0105 -0.0346
 1352TIP3    H128251   2.925   2.968  17.459 -0.6986 -2.7787  1.2025
 1352TIP3    H228252   3.031   3.055  17.523  0.0980 -1.0123 -2.2725
 1353TIP3   OH228253   7.047   3.267  17.116 -0.6964 -0.5780  0.8131
 1353TIP3    H128254   7.058   3.360  17.135  1.8411 -1.0337  2.1195
 1353TIP3    H228255   6.961   3.245  17.153 -0.0151  0.6466  3.3487
 1354TIP3   OH228256   0.614   3.992  18.044 -0.1547 -0.0422  0.2032
 1354TIP3    H128257   0.628   3.915  17.989  0.2563 -0.2708  0.6238
 1354TIP3    H228258   0.679   4.055  18.014 -0.4371  0.1182 -0.0855
 1355TIP3   OH228259   2.805   1.850  19.400  0.2432 -0.1237  0.7657
 1355TIP3    H128260   2.746   1.808  19.462 -1.1119 -0.4388 -0.6710
 1355TIP3    H228261   2.884   1.797  19.403 -0.7187 -1.6596  0.4153
 1356TIP3   OH228262   4.777   4.583  19.328 -0.2942  0.5713 -0.1069
 1356TIP3    H128263   4.723   4.628  19.394 -0.8164 -1.2910  0.8193
 1356TIP3    H228264   4.819   4.653  19.279 -0.2277  2.0599  1.9382
 1357TIP3   OH228265   3.049   1.241  19.236  0.5138  0.0470  0.2033
 1357TIP3    H128266   3.138   1.213  19.218 -0.4798 -2.3003 -1.7241
 1357TIP3    H228267   3.020   1.284  19.156 -0.7604 -1.3143 -0.1203
 1358TIP3   OH228268   6.266   4.711  18.511 -0.2642 -0.0064 -0.3204
 1358TIP3    H128269   6.303   4.799  18.499 -1.2561  0.4511 -0.1603
 1358TIP3    H228270   6.337   4.651  18.487 -0.2247  0.8448 -2.5698
 1359TIP3   OH228271   4.359   2.454  19.741 -0.0177  0.0528 -0.2232
 1359TIP3    H128272   4.344   2.549  19.741 -0.3438  0.0035 -0.3227
 1359TIP3    H228273   4.320   2.424  19.823  2.9507  0.4228  1.4861
 1360TIP3   OH228274   1.109   3.544  17.310 -0.0964  0.1331 -0.1351
 1360TIP3    H128275   1.152   3.467  17.347 -2.4007 -0.5280  1.4135
 1360TIP3    H228276   1.016   3.519  17.305 -0.9084  2.7523  0.3382
 1361TIP3   OH228277   5.620   2.636  19.282 -0.3308 -0.4566 -0.0533
 1361TIP3    H128278   5.637   2.581  19.205  0.6406 -1.3002  0.7260
 1361TIP3    H228279   5.645   2.724  19.255  0.1288 -0.7636 -0.6662
 1362TIP3   OH228280   4.252   0.214  17.285  0.5500 -0.3662 -0.5067
 1362TIP3    H128281   4.251   0.177  17.197 -2.0855 -2.2569  0.2056
 1362TIP3    H228282   4.288   0.144  17.340 -2.5675 -1.3169  0.5532
 1363TIP3   OH228283   6.462   5.820  18.995 -0.3906  0.3474  0.2942
 1363TIP3    H128284   6.391   5.869  18.954  0.7743  2.5039  0.7027
 1363TIP3    H228285   6.502   5.882  19.056  1.9830 -0.6924 -0.0729
 1364TIP3   OH228286   0.920   6.867  18.359 -0.4499  0.3762  0.0587
 1364TIP3    H128287   0.838   6.904  18.390 -0.0963 -0.0817  1.6063
 1364TIP3    H228288   0.903   6.845  18.267 -1.8591  0.8185  0.1924
 1365TIP3   OH228289   2.782   7.112  17.147  0.2642  0.1917  0.3367
 1365TIP3    H128290   2.736   7.029  17.135  0.6861  0.0487 -0.3561
 1365TIP3    H228291   2.746   7.170  17.079 -0.3958  0.7502  1.1388
 1366TIP3   OH228292   5.282   3.410  18.221  0.4094 -0.2478 -0.2276
 1366TIP3    H128293   5.253   3.447  18.138  2.7803 -1.1489 -1.5481
 1366TIP3    H228294   5.334   3.480  18.261 -0.3260  0.0104  0.3046
 1367TIP3   OH228295   4.887   4.610  18.175  0.1071  0.2889 -0.3763
 1367TIP3    H128296   4.797   4.582  18.186 -0.2560  1.3910 -0.4544
 1367TIP3    H228297   4.897   4.627  18.081  0.9064 -1.4427 -0.6529
 1368TIP3   OH228298   0.838   1.901  19.011  0.1409 -0.4174 -0.3104
 1368TIP3    H128299   0.921   1.919  18.966 -0.7217 -0.9498 -2.2150
 1368TIP3    H228300   0.800   1.988  19.025  0.1249 -0.2694 -1.2256
 1369TIP3   OH228301   2.633   4.243  17.429  0.1587 -0.2095 -0.2924
 1369TIP3    H128302   2.571   4.185  17.385 -0.6620  0.1317  0.3850
 1369TIP3    H228303   2.592   4.330  17.424  0.0680 -0.1510  1.0779
 1370TIP3   OH228304   6.270   2.983  18.467  0.0927  0.0618 -0.3535
 1370TIP3    H128305   6.362   2.980  18.495 -0.2321  0.3047  0.7801
 1370TIP3    H228306   6.221   2.944  18.539 -0.6872 -0.2432 -1.0338
 1371TIP3   OH228307   5.520   6.460  18.798  0.3330  0.1713  0.0760
 1371TIP3    H128308   5.555   6.517  18.867 -0.6110  0.7273  0.1124
 1371TIP3    H228309   5.594   6.444  18.740  1.4141 -1.0682  1.6948
 1372TIP3   OH228310   6.251   3.207  18.706 -0.2490 -0.5101  0.0244
 1372TIP3    H128311   6.269   3.126  18.660  0.9794 -0.6247  0.6777
 1372TIP3    H228312   6.234   3.181  18.797 -0.9569 -0.1309  0.0118
 1373TIP3   OH228313   1.573   6.828  19.448  0.0270 -0.4011  0.0333
 1373TIP3    H128314   1.482   6.835  19.420  0.0859 -0.0755 -0.0743
 1373TIP3    H228315   1.611   6.914  19.432  0.0973 -0.2445  1.0153
 1374TIP3   OH228316   1.836   0.586  19.035 -0.2687  0.1088 -0.0222
 1374TIP3    H128317   1.830   0.682  19.032  1.6288  0.2383 -1.3847
 1374TIP3    H228318   1.893   0.568  19.109  0.1030  0.0990 -0.3068
 1375TIP3   OH228319   5.734   6.635  17.159  0.4296  0.1696  0.1969
 1375TIP3    H128320   5.720   6.570  17.089 -0.2009  0.1401  0.3400
 1375TIP3    H228321   5.657   6.692  17.153  1.0130  0.9505  0.0315
 1376TIP3   OH228322   1.641   1.547  17.376  0.2337 -0.2784  0.0306
 1376TIP3    H128323   1.666   1.517  17.464  0.4465 -0.7073 -0.1727
 1376TIP3    H228324   1.638   1.642  17.384  1.4174 -0.2358  0.2034
 1377TIP3   OH228325   6.074   1.134  18.440 -0.5395  0.0610 -0.4060
 1377TIP3    H128326   5.997   1.191  18.442 -0.2513  0.4335  0.5059
 1377TIP3    H228327   6.044   1.052  18.481  0.0982  0.9504  1.9854
 1378TIP3   OH228328   7.465   4.395  19.012 -0.3906 -0.8083  0.0841
 1378TIP3    H128329   7.433   4.426  19.097 -0.0850 -1.7161  0.5565
 1378TIP3    H228330   7.401   4.426  18.949 -1.2061 -1.0155  0.7826
 1379TIP3   OH228331   6.002   1.389  19.298  0.1744 -0.1448 -0.1580
 1379TIP3    H128332   5.922   1.382  19.247  0.9471  0.7353 -1.5618
 1379TIP3    H228333   5.973   1.408  19.387 -1.1937 -1.2241 -0.3501
 1380TIP3   OH228334   2.282   0.261  18.858  0.3838 -0.3090 -0.0603
 1380TIP3    H128335   2.273   0.190  18.922  1.1783  0.9652  1.5359
 1380TIP3    H228336   2.376   0.269  18.844  0.3758  1.0864  0.5779
 1381TIP3   OH228337   7.649   6.664  18.921 -0.0393  0.2312 -0.0732
 1381TIP3    H128338   7.611   6.748  18.897  0.3716  0.8756  1.4249
 1381TIP3    H228339   7.581   6.621  18.973 -0.6383 -0.8308 -1.6464
 1382TIP3   OH228340   3.905   7.382  17.701  0.4612 -0.0698  0.3607
 1382TIP3    H128341   3.846   7.412  17.632  1.1377 -1.6226 -0.9780
 1382TIP3    H228342   3.991   7.378  17.659  0.9056 -1.0227  1.3052
 1383TIP3   OH228343   5.490   6.798  18.706 -0.5487  0.3331  0.1261
 1383TIP3    H128344   5.511   6.891  18.706 -0.0752  0.2311 -0.3935
 1383TIP3    H228345   5.394   6.795  18.704 -0.5888  0.8016  0.9084
 1384TIP3   OH228346   6.380  -0.035  18.230 -0.4433 -0.4777  0.0711
 1384TIP3    H128347   6.429  -0.053  18.150  0.6274 -1.4084  0.8948
 1384TIP3    H228348   6.351  -0.121  18.260 -0.5590 -0.1766  0.8496
 1385TIP3   OH228349   1.305   6.217  17.090 -0.1846  0.1863 -0.4372
 1385TIP3    H128350   1.268   6.151  17.031 -1.6580  0.7004 -0.1247
 1385TIP3    H228351   1.308   6.297  17.038 -3.1140  1.0933  0.5597
 1386TIP3   OH228352   3.358   7.638  18.414  0.2722 -0.5691  0.4598
 1386TIP3    H128353   3.273   7.597  18.397  0.2178 -0.3384  0.1779
 1386TIP3    H228354   3.363   7.645  18.509 -0.5335  0.4834  0.4378
 1387TIP3   OH228355   3.674   4.885  18.534  0.1595  0.2250 -0.2538
 1387TIP3    H128356   3.744   4.912  18.474 -1.0232  0.1783 -1.7157
 1387TIP3    H228357   3.677   4.789  18.532  1.2621  0.1806  1.2146
 1388TIP3   OH228358   0.649   4.155  17.709  0.1846 -0.1613 -0.0937
 1388TIP3    H128359   0.588   4.212  17.756  0.5465  0.8551 -0.8074
 1388TIP3    H228360   0.719   4.139  17.772 -0.0774 -0.0781  0.2238
 1389TIP3   OH228361   0.305   5.213  18.854 -0.0932 -0.2322 -0.2827
 1389TIP3    H128362   0.277   5.149  18.919 -0.3792  1.8511  1.7893
 1389TIP3    H228363   0.330   5.290  18.906  0.7284  1.1549 -2.6011
 1390TIP3   OH228364   5.903   4.339  18.394  0.0746 -0.0708 -0.2647
 1390TIP3    H128365   5.932   4.427  18.369 -1.0459  0.2179 -0.5974
 1390TIP3    H228366   5.938   4.327  18.483 -1.8327  1.7324  0.8182
 1391TIP3   OH228367   7.645   3.811  18.984  0.5914 -0.3722 -0.3526
 1391TIP3    H128368   7.624   3.762  18.905 -0.2925 -0.1164 -0.2867
 1391TIP3    H228369   7.567   3.865  19.000 -0.5005 -2.5293  2.3311
 1392TIP3   OH228370   5.325   6.948  18.456  0.2849  0.1289 -0.2533
 1392TIP3    H128371   5.274   6.902  18.389 -1.3818  3.1294 -1.2572
 1392TIP3    H228372   5.317   6.894  18.534 -1.5075 -1.2779 -1.3345
 1393TIP3   OH228373   7.296   3.742  18.559 -0.1082  0.4184  0.1472
 1393TIP3    H128374   7.205   3.712  18.552 -0.3665  1.4441 -1.8969
 1393TIP3    H228375   7.348   3.663  18.548 -0.7762  0.0788 -0.7764
 1394TIP3   OH228376   5.088   1.129  19.486 -0.2494  0.1403  0.0061
 1394TIP3    H128377   5.011   1.179  19.458  0.4160  1.5368  0.5471
 1394TIP3    H228378   5.152   1.196  19.512  0.5840 -1.0113  1.0661
 1395TIP3   OH228379   6.491   4.060  18.704  0.2554 -0.0714 -0.3061
 1395TIP3    H128380   6.566   4.057  18.645  0.5457 -0.4369  0.0713
 1395TIP3    H228381   6.523   4.109  18.781 -0.8404  2.6243 -1.4192
 1396TIP3   OH228382   3.432   1.744  18.123  0.6977 -0.2161 -0.2863
 1396TIP3    H128383   3.387   1.793  18.192 -0.3350 -1.8999  0.3000
 1396TIP3    H228384   3.524   1.762  18.137  0.4671 -0.0266  1.1732
 1397TIP3   OH228385   2.172   2.375  17.888  0.1745 -0.0368  0.1750
 1397TIP3    H128386   2.163   2.437  17.959  1.0085 -1.3964  1.5259
 1397TIP3    H228387   2.258   2.336  17.901 -0.2421 -1.3323 -0.7342
 1398TIP3   OH228388   4.953   6.524  16.342  0.2143  0.4296  0.0373
 1398TIP3    H128389   4.983   6.610  16.374  2.1674 -0.0826 -0.2726
 1398TIP3    H228390   5.028   6.489  16.293 -0.5787 -1.4022  0.0489
 1399TIP3   OH228391   3.582   1.771  19.452 -0.0788  0.5090 -0.2648
 1399TIP3    H128392   3.612   1.806  19.368  0.5613  0.9173  0.1247
 1399TIP3    H228393   3.560   1.848  19.504 -2.1594  0.2215 -0.6407
 1400TIP3   OH228394   1.058   3.003  19.118  0.0134 -0.7818 -0.3154
 1400TIP3    H128395   1.040   2.923  19.069 -0.0568  0.1299 -1.8384
 1400TIP3    H228396   0.985   3.061  19.097  1.9696  1.1140 -2.4839
 1401TIP3   OH228397   7.087   2.950  18.230  0.2449  0.2638  0.3769
 1401TIP3    H128398   7.163   3.007  18.236 -1.0893  2.0431  1.2238
 1401TIP3    H228399   7.040   2.979  18.152 -1.2876  1.5207  1.6905
 1402TIP3   OH228400   5.031   2.019  19.356  0.4902 -0.4806 -0.3885
 1402TIP3    H128401   5.012   2.039  19.264  0.5120  0.4138 -0.2020
 1402TIP3    H228402   4.997   2.094  19.405  2.1041 -0.0905  0.1825
 1403TIP3   OH228403   3.954   7.300  17.305  0.5104  0.4628 -0.4376
 1403TIP3    H128404   3.910   7.218  17.327 -1.0279  1.5488  0.7657
 1403TIP3    H228405   4.003   7.280  17.225  0.8693 -1.8313  0.2657
 1404TIP3   OH228406   7.569   7.622  17.293  0.6595 -0.1064  0.4396
 1404TIP3    H128407   7.610   7.647  17.375  0.2845  1.1672  0.2472
 1404TIP3    H228408   7.475   7.624  17.311  0.5990 -0.8757  0.2660
 1405TIP3   OH228409   6.732   4.164  17.719  0.1804 -0.3496  0.1261
 1405TIP3    H128410   6.761   4.079  17.683 -0.1431 -1.1490  1.6846
 1405TIP3    H228411   6.652   4.144  17.766 -1.5507  1.3684 -1.8635
 1406TIP3   OH228412   0.763   0.325  19.110  0.2853 -0.0638 -0.1681
 1406TIP3    H128413   0.788   0.235  19.091  2.9263  0.9339 -1.9905
 1406TIP3    H228414   0.804   0.345  19.194 -1.4943 -0.9001  0.9660
 1407TIP3   OH228415   2.741   2.873  17.391 -0.0001 -0.5232  0.2386
 1407TIP3    H128416   2.679   2.809  17.355 -0.5271  0.2704 -0.2798
 1407TIP3    H228417   2.824   2.851  17.348 -0.0348 -1.2208  0.5025
 1408TIP3   OH228418   6.469   5.673  19.390  0.4730 -0.3898  0.3188
 1408TIP3    H128419   6.560   5.695  19.371  0.3852 -0.7040 -0.5087
 1408TIP3    H228420   6.460   5.581  19.365  0.0884 -0.5519  1.0046
 1409TIP3   OH228421   6.286   4.501  19.641  0.2691  0.0439  0.4479
 1409TIP3    H128422   6.329   4.484  19.725  1.9123 -0.0617 -0.3742
 1409TIP3    H228423   6.322   4.585  19.613 -2.3175  1.4714  1.0715
 1410TIP3   OH228424   3.696   4.100  17.597 -0.2253 -0.9036 -0.0415
 1410TIP3    H128425   3.723   4.132  17.683 -1.8574 -1.2803  0.6498
 1410TIP3    H228426   3.776   4.063  17.558  0.6259 -0.3329  1.1221
 1411TIP3   OH228427   5.216   1.150  18.960 -0.9418  0.3531 -0.2077
 1411TIP3    H128428   5.156   1.077  18.977 -1.5157  1.3094  2.2565
 1411TIP3    H228429   5.289   1.134  19.019  0.2827  0.3389 -1.6668
 1412TIP3   OH228430   2.168   3.442  17.881  0.2065  0.1302  0.9649
 1412TIP3    H128431   2.206   3.480  17.960  2.4668 -0.1144  0.0787
 1412TIP3    H228432   2.244   3.409  17.832 -1.3294 -2.3451  0.0440
 1413TIP3   OH228433   1.628   6.792  18.771  0.0976  0.1027 -0.0524
 1413TIP3    H128434   1.698   6.855  18.755  2.2026 -1.8778  0.9382
 1413TIP3    H228435   1.653   6.748  18.853 -0.8207 -2.6054 -1.1244
 1414TIP3   OH228436   0.558   6.384  18.341  1.1051  0.1381  0.0802
 1414TIP3    H128437   0.521   6.386  18.253 -0.3290  2.1164  0.6525
 1414TIP3    H228438   0.649   6.411  18.330  0.4083  2.4873 -0.6651
 1415TIP3   OH228439   5.059   4.147  18.742  0.1689  0.4763 -0.5085
 1415TIP3    H128440   4.993   4.090  18.782  1.8540 -0.8540  0.5366
 1415TIP3    H228441   5.019   4.234  18.744 -1.3645 -0.1881  0.5139
 1416TIP3   OH228442   7.498   3.167  18.233 -0.4034 -0.0432 -0.0403
 1416TIP3    H128443   7.423   3.165  18.291 -0.4537 -4.0406  0.0104
 1416TIP3    H228444   7.570   3.200  18.287 -0.6244 -2.8684  2.1698
 1417TIP3   OH228445   1.638   6.263  18.326  0.3507  0.0708  0.1189
 1417TIP3    H128446   1.690   6.339  18.353  0.0452  1.0883 -1.9351
 1417TIP3    H228447   1.659   6.195  18.391  0.6754  1.8626  2.0017
 1418TIP3   OH228448   3.507   3.199  19.115  0.8101  0.4396 -0.3542
 1418TIP3    H128449   3.579   3.159  19.163 -0.1922 -1.3030 -0.2043
 1418TIP3    H228450   3.486   3.278  19.165 -0.7113 -1.6886  2.6793
 1419TIP3   OH228451   0.656   7.126  18.982 -0.4743  0.5362  0.0088
 1419TIP3    H128452   0.717   7.052  18.982 -1.8454 -0.6462 -0.7511
 1419TIP3    H228453   0.668   7.167  19.068  0.4772 -0.4279  0.3563
 1420TIP3   OH228454   0.450   7.577  19.218 -0.4871  0.3628 -0.4344
 1420TIP3    H128455   0.364   7.548  19.250 -1.0409  2.6916  0.3639
 1420TIP3    H228456   0.443   7.575  19.123 -1.2867  0.1373 -0.3728
 1421TIP3   OH228457   1.865   6.716  18.428  0.2416 -0.7295  0.0510
 1421TIP3    H128458   1.820   6.693  18.346 -2.3952 -1.9342  1.7003
 1421TIP3    H228459   1.875   6.811  18.423  0.2784 -0.7785 -1.7105
 1422TIP3   OH228460   0.082   1.377  17.477 -0.2715  0.0306 -0.6381
 1422TIP3    H128461   0.074   1.470  17.497  3.6257  0.1337  1.5464
 1422TIP3    H228462   0.106   1.337  17.561 -0.6804 -2.7613 -1.7692
 1423TIP3   OH228463   1.199   6.029  18.105  0.0585 -0.6638 -0.8540
 1423TIP3    H128464   1.151   5.995  18.181 -0.5179 -1.2381 -1.4637
 1423TIP3    H228465   1.280   6.064  18.142 -0.1660 -1.0269  0.0141
 1424TIP3   OH228466   2.302   4.552  17.642  0.4002  0.1878  0.1913
 1424TIP3    H128467   2.226   4.494  17.641  0.5037  0.0152  0.9681
 1424TIP3    H228468   2.365   4.507  17.698  0.6732  0.8146  0.3982
 1425TIP3   OH228469   4.936   5.634  17.319 -0.2652  1.0647 -0.3883
 1425TIP3    H128470   5.001   5.598  17.259  0.4164 -1.2541  1.5892
 1425TIP3    H228471   4.857   5.583  17.302  0.0134  0.1937  0.8084
 1426TIP3   OH228472   4.727   2.492  19.044  0.7632  0.1390  0.4630
 1426TIP3    H128473   4.712   2.503  19.137  2.3196  0.2238  0.7353
 1426TIP3    H228474   4.646   2.455  19.010  0.1970  0.0758  1.8488
 1427TIP3   OH228475   7.009   1.864  17.585  0.0995 -0.2216  0.5124
 1427TIP3    H128476   6.982   1.776  17.612 -2.0691  0.4522  0.7057
 1427TIP3    H228477   7.030   1.855  17.492  0.6600 -1.0800  0.7074
 1428TIP3   OH228478   5.708   4.908  18.171 -0.2678 -0.2063 -0.0412
 1428TIP3    H128479   5.703   4.892  18.266 -2.9169  2.5040  0.4192
 1428TIP3    H228480   5.799   4.934  18.156 -0.0178  0.2334  1.9614
 1429TIP3   OH228481   3.651   7.626  18.455 -0.5664 -0.1219 -0.3266
 1429TIP3    H128482   3.555   7.634  18.457 -0.5140  1.0045 -1.1423
 1429TIP3    H228483   3.672   7.626  18.362  0.2291 -0.3764 -0.1479
 1430TIP3   OH228484   3.543   7.461  18.878 -0.3782  0.8080  0.5796
 1430TIP3    H128485   3.585   7.436  18.796 -1.5575  0.5825  0.0361
 1430TIP3    H228486   3.615   7.461  18.942 -0.0293 -2.6760  0.3578
 1431TIP3   OH228487   6.356   0.713  18.070  0.0767  0.3694  0.4538
 1431TIP3    H128488   6.371   0.807  18.061  0.7920  0.3348  1.2077
 1431TIP3    H228489   6.443   0.674  18.066  0.0915 -0.0122  2.8294
 1432TIP3   OH228490   1.788   1.394  18.464 -0.0403  0.0029  0.3610
 1432TIP3    H128491   1.802   1.305  18.495  3.0378  0.6084  1.0945
 1432TIP3    H228492   1.801   1.389  18.370  1.7735 -0.1337  0.5814
 1433TIP3   OH228493   5.412   6.273  17.213 -0.0153  0.4539 -0.3666
 1433TIP3    H128494   5.498   6.316  17.217  0.6971 -0.8504 -0.9291
 1433TIP3    H228495   5.376   6.301  17.128  0.3128  0.1823 -0.5968
 1434TIP3   OH228496   5.407   2.626  18.961 -0.0441  0.6059  0.4222
 1434TIP3    H128497   5.385   2.544  18.918 -0.6081  0.8721  0.1961
 1434TIP3    H228498   5.324   2.656  18.999  0.0664  1.2695  0.1506
 1435TIP3   OH228499   6.022   4.835  16.983  0.1249  0.2163  0.6766
 1435TIP3    H128500   6.105   4.789  16.975  0.2715  0.3550  1.2976
 1435TIP3    H228501   5.956   4.765  16.985  0.3019  0.0537  1.0592
 1436TIP3   OH228502   5.356   4.552  19.952  0.2614  0.1078  0.4322
 1436TIP3    H128503   5.336   4.459  19.938 -0.0583  0.3080 -0.5300
 1436TIP3    H228504   5.270   4.595  19.952  0.3887  0.3683  1.1643
 1437TIP3   OH228505   5.337   6.313  18.235  0.1708  0.1966 -0.0956
 1437TIP3    H128506   5.424   6.335  18.268  0.6131 -1.2075 -0.2650
 1437TIP3    H228507   5.281   6.311  18.313  0.7164 -0.8103  0.2941
 1438TIP3   OH228508   3.635   5.174  16.964  0.1880 -0.0262 -0.2534
 1438TIP3    H128509   3.621   5.181  17.058  0.7965  2.7217 -0.2861
 1438TIP3    H228510   3.730   5.163  16.955  0.1804  0.1271 -0.5342
 1439TIP3   OH228511   6.093   1.790  18.894 -0.1348  0.3218  0.1896
 1439TIP3    H128512   6.155   1.720  18.915 -1.9909 -1.4432  0.1039
 1439TIP3    H228513   6.146   1.857  18.850  1.5609 -1.3978 -0.5163
 1440TIP3   OH228514   5.296   6.376  16.635  0.0398 -0.0265  0.6015
 1440TIP3    H128515   5.367   6.413  16.687 -0.2592  0.8493  0.4110
 1440TIP3    H228516   5.227   6.443  16.637 -0.4601 -0.5124  0.1192
 1441TIP3   OH228517   4.724   2.442  16.531  0.3205 -0.1889 -0.3097
 1441TIP3    H128518   4.680   2.365  16.565  0.2025 -0.2848 -0.6807
 1441TIP3    H228519   4.706   2.441  16.437 -1.8730  1.6864  0.0039
 1442TIP3   OH228520   1.409   4.220  17.958 -0.0671 -0.1013  0.3884
 1442TIP3    H128521   1.359   4.247  17.881  1.0664 -0.9435 -0.6963
 1442TIP3    H228522   1.432   4.302  18.002  0.1699  0.4706 -0.7649
 1443TIP3   OH228523   5.211   4.377  18.612 -0.1934 -0.0084 -0.2428
 1443TIP3    H128524   5.216   4.283  18.591  0.1286 -0.0579  0.0437
 1443TIP3    H228525   5.140   4.410  18.557 -2.9880 -1.1729  2.3954
 1444TIP3   OH228526   5.261   3.289  16.971 -0.3607 -0.6392 -0.0550
 1444TIP3    H128527   5.256   3.223  16.903 -1.2389 -0.6040 -0.0357
 1444TIP3    H228528   5.345   3.334  16.955  0.1247 -1.5795 -0.2133
 1445TIP3   OH228529   5.571   2.622  18.201  0.1384 -0.5091 -0.1956
 1445TIP3    H128530   5.603   2.711  18.214 -0.9402 -0.2472  0.7315
 1445TIP3    H228531   5.647   2.574  18.168  0.7617  0.7170 -0.5924
 1446TIP3   OH228532   1.189   5.506  17.697  0.1477 -0.1092  0.1846
 1446TIP3    H128533   1.151   5.589  17.665  0.3766 -0.5970 -1.4662
 1446TIP3    H228534   1.272   5.499  17.650  0.2647 -1.1358  0.5257
 1447TIP3   OH228535   3.526   1.296  17.667 -0.0732  0.1067  0.0150
 1447TIP3    H128536   3.497   1.303  17.758  0.8778 -1.6688  0.4922
 1447TIP3    H228537   3.557   1.206  17.659 -0.5338  0.1041 -2.1953
 1448TIP3   OH228538   5.865   2.918  18.477 -0.1823 -0.3942 -0.6672
 1448TIP3    H128539   5.910   2.836  18.455 -0.9004 -1.4411  1.4974
 1448TIP3    H228540   5.774   2.904  18.450 -0.6387 -0.9480  1.0201
 1449TIP3   OH228541   6.871   4.710  17.214  0.2688  0.2444  0.2777
 1449TIP3    H128542   6.919   4.674  17.290  0.0349  0.9164  0.7529
 1449TIP3    H228543   6.780   4.687  17.231  0.4927 -2.2341 -1.2892
 1450TIP3   OH228544   0.292   2.043  18.636  0.1827  0.3298 -0.1366
 1450TIP3    H128545   0.341   2.085  18.707 -0.6436  0.2068  0.5212
 1450TIP3    H228546   0.221   1.996  18.681 -1.7155  2.0468 -1.1656
 1451TIP3   OH228547   1.784   4.261  19.319 -0.2146 -0.1659  0.3484
 1451TIP3    H128548   1.701   4.303  19.341  0.2245  0.4877  0.8003
 1451TIP3    H228549   1.828   4.247  19.403  1.4000  2.2011  0.0089
 1452TIP3   OH228550   1.962   0.566  17.892  1.1048 -0.2345  0.6572
 1452TIP3    H128551   1.991   0.656  17.902  3.5499 -0.9547  0.7000
 1452TIP3    H228552   2.042   0.517  17.872 -0.0872 -2.4553  1.0116
 1453TIP3   OH228553   0.499   6.672  16.747  0.1962 -0.2168 -0.2114
 1453TIP3    H128554   0.584   6.647  16.785  0.0326  0.1038  0.3753
 1453TIP3    H228555   0.437   6.660  16.818  0.0464  1.4563 -0.0207
 1454TIP3   OH228556   7.364   1.689  18.159  0.1858  0.2746 -0.2122
 1454TIP3    H128557   7.397   1.610  18.203  1.4024  1.4681  1.1417
 1454TIP3    H228558   7.440   1.747  18.154 -0.2288  0.7016 -2.8510
 1455TIP3   OH228559   1.273   5.965  19.235 -0.0102  0.3334  0.6292
 1455TIP3    H128560   1.220   6.039  19.205  0.4545  1.3247  2.1423
 1455TIP3    H228561   1.313   5.930  19.155 -0.4136  1.5825 -0.1457
 1456TIP3   OH228562   5.799   3.830  17.384  0.2409  0.2515 -0.3327
 1456TIP3    H128563   5.846   3.861  17.307  0.9566  1.2588  0.4790
 1456TIP3    H228564   5.771   3.910  17.428 -0.8674 -0.3223  0.0312
 1457TIP3   OH228565   4.259   5.850  17.399 -0.1769 -0.5384 -0.5252
 1457TIP3    H128566   4.285   5.797  17.324 -0.1410 -0.4076 -0.6069
 1457TIP3    H228567   4.319   5.824  17.469  1.2663  0.8809 -1.1538
 1458TIP3   OH228568   1.917   7.517  17.000  0.1753  0.2032 -0.2385
 1458TIP3    H128569   1.837   7.494  17.046 -0.1651  0.9129 -0.4614
 1458TIP3    H228570   1.896   7.506  16.907  0.6612 -0.6082 -0.2644
 1459TIP3   OH228571   5.449   5.053  19.793  0.0489  0.1927  1.1101
 1459TIP3    H128572   5.428   4.960  19.783  0.3609  0.2917 -0.7443
 1459TIP3    H228573   5.537   5.054  19.829  1.6352 -0.3311 -2.4103
 1460TIP3   OH228574   5.732   4.663  19.704  0.2223  0.0348  0.1887
 1460TIP3    H128575   5.814   4.623  19.734  0.0751 -0.2306  0.2485
 1460TIP3    H228576   5.695   4.599  19.643 -0.0523  0.0466  0.3374
 1461TIP3   OH228577   2.142   4.158  18.782  0.2571  0.0890  0.0421
 1461TIP3    H128578   2.183   4.212  18.714  0.8275 -1.4213 -0.8642
 1461TIP3    H228579   2.117   4.078  18.737 -1.3843 -0.0700  1.1595
 1462TIP3   OH228580   3.452   0.735  16.727 -0.1599  0.1397 -0.1218
 1462TIP3    H128581   3.362   0.704  16.740 -0.2690 -0.4075 -1.9470
 1462TIP3    H228582   3.476   0.703  16.641  1.0841  2.0084 -0.5256
 1463TIP3   OH228583   5.011   0.110  17.310  0.2534 -0.2508 -0.3984
 1463TIP3    H128584   4.940   0.079  17.254 -1.0023  0.4764  0.7088
 1463TIP3    H228585   5.083   0.049  17.295 -0.9092 -1.5541 -0.9092
 1464TIP3   OH228586   3.502   5.984  17.366  0.7712  0.2963  0.3701
 1464TIP3    H128587   3.550   5.915  17.321  0.1371  0.1120 -0.0434
 1464TIP3    H228588   3.526   5.974  17.458 -0.4347 -1.4539  0.5614
 1465TIP3   OH228589   4.657   5.658  18.538 -0.1834 -0.1051  0.1240
 1465TIP3    H128590   4.566   5.630  18.549 -1.0835  2.2785 -0.6017
 1465TIP3    H228591   4.671   5.724  18.606  1.1916 -0.7596  0.5229
 1466TIP3   OH228592   0.765   1.692  18.118 -0.0553  0.1981 -0.3030
 1466TIP3    H128593   0.850   1.683  18.075  1.4754 -0.8349  2.6628
 1466TIP3    H228594   0.704   1.713  18.047  2.5696  0.5653 -2.6072
 1467TIP3   OH228595   5.501   7.206  18.112  0.0515 -0.1841  0.0312
 1467TIP3    H128596   5.554   7.286  18.108 -0.3134  0.0275 -0.5649
 1467TIP3    H228597   5.478   7.198  18.205  0.7236 -0.0184  0.2229
 1468TIP3   OH228598   6.212   6.829  18.098 -0.1762 -0.0318  0.0776
 1468TIP3    H128599   6.223   6.880  18.178 -0.6600 -0.8470  0.6834
 1468TIP3    H228600   6.293   6.778  18.091 -0.9304 -1.4796  1.1967
 1469TIP3   OH228601   4.262   2.170  17.674 -0.6403  0.2630  0.2808
 1469TIP3    H128602   4.254   2.075  17.663  0.0131  0.3970 -1.6578
 1469TIP3    H228603   4.317   2.198  17.601 -0.9426  2.1690  0.7395
 1470TIP3   OH228604   7.436   7.309  19.652 -0.1343 -0.1510  0.6710
 1470TIP3    H128605   7.371   7.292  19.720 -0.9086  4.8307  1.6004
 1470TIP3    H228606   7.386   7.316  19.572 -0.1784 -0.0478  0.7070
 1471TIP3   OH228607   4.279   5.122  17.248  0.3593  0.1893  0.4529
 1471TIP3    H128608   4.246   5.205  17.215 -0.2391  0.7228  2.2529
 1471TIP3    H228609   4.200   5.071  17.267  0.5631  0.6192  2.7139
 1472TIP3   OH228610   0.449   0.448  18.018  0.3184 -0.0691 -0.0670
 1472TIP3    H128611   0.377   0.393  17.987 -0.0876 -0.5309  1.5846
 1472TIP3    H228612   0.497   0.472  17.939 -1.3532 -0.1716 -1.1469
 1473TIP3   OH228613   2.606   6.829  18.832  0.4836  0.3518  0.0727
 1473TIP3    H128614   2.691   6.867  18.854  0.2861 -0.1708  1.8923
 1473TIP3    H228615   2.620   6.788  18.747  1.6828  1.3738 -0.2623
 1474TIP3   OH228616   0.957   6.614  19.016 -0.4859  0.2179  0.0433
 1474TIP3    H128617   0.942   6.520  19.008 -1.1756  0.4072 -1.2098
 1474TIP3    H228618   0.875   6.649  19.048 -0.5476  0.4924 -0.4052
 1475TIP3   OH228619   5.981   6.535  17.827  0.9391 -0.4740  0.0940
 1475TIP3    H128620   5.965   6.490  17.910  0.3733 -1.1292 -0.3640
 1475TIP3    H228621   5.991   6.627  17.851  0.6410 -0.6389  0.8696
 1476TIP3   OH228622   5.098   5.485  17.663  0.3190  0.5405 -0.0822
 1476TIP3    H128623   5.074   5.565  17.616 -2.5151  0.0346  0.3340
 1476TIP3    H228624   5.112   5.513  17.753  2.3304  0.9810 -0.4983
 1477TIP3   OH228625   1.575   7.700  18.057  0.3058  0.4427  0.1964
 1477TIP3    H128626   1.671   7.705  18.050  0.8935  0.2533  4.7102
 1477TIP3    H228627   1.547   7.790  18.070 -0.2673  0.5434 -1.5065
 1478TIP3   OH228628   5.827   2.499  18.161 -0.4289 -0.6045  0.4150
 1478TIP3    H128629   5.801   2.466  18.075 -0.3337 -1.4705  0.7039
 1478TIP3    H228630   5.883   2.430  18.197 -2.2450 -1.3001  2.0863
 1479TIP3   OH228631   4.633   0.958  19.518 -0.2051  1.0975  0.0362
 1479TIP3    H128632   4.653   0.885  19.578 -0.1830  1.0952  0.0254
 1479TIP3    H228633   4.537   0.960  19.516 -0.3183 -0.9796 -2.4189
 1480TIP3   OH228634   2.525   7.137  17.827  0.0341  0.3289  0.6063
 1480TIP3    H128635   2.431   7.146  17.845 -0.0930 -0.7432  0.5041
 1480TIP3    H228636   2.565   7.209  17.877 -0.6704 -0.2834  2.1347
 1481TIP3   OH228637   4.993   1.576  18.402  0.1923  0.1748  0.1189
 1481TIP3    H128638   5.076   1.602  18.441  0.5183  0.2078 -0.5817
 1481TIP3    H228639   4.970   1.650  18.345  1.7334 -1.4537 -2.8641
 1482TIP3   OH228640   5.889   7.501  18.513  0.2649 -0.1996 -0.1666
 1482TIP3    H128641   5.869   7.544  18.430 -0.1299 -0.0128  0.0202
 1482TIP3    H228642   5.811   7.516  18.567  1.2267  1.3214  0.8923
 1483TIP3   OH228643   7.151   0.781  19.132  0.1272  0.4573  0.6247
 1483TIP3    H128644   7.097   0.731  19.194  0.7099  0.0075  0.7808
 1483TIP3    H228645   7.098   0.787  19.053 -0.5172  0.8039  1.0701
 1484TIP3   OH228646   5.805   7.188  19.063  0.0069  0.5430 -0.0910
 1484TIP3    H128647   5.876   7.142  19.108  0.3295 -0.3735 -1.4791
 1484TIP3    H228648   5.791   7.267  19.115  0.8708 -0.0906  1.1733
 1485TIP3   OH228649   5.441   3.202  18.626  0.8606 -0.3572  0.2164
 1485TIP3    H128650   5.430   3.178  18.534 -1.2232 -1.7251  0.7522
 1485TIP3    H228651   5.427   3.297  18.629 -0.3523 -0.4960 -0.7049
 1486TIP3   OH228652   2.449   2.197  18.021 -0.6612  0.0954 -0.1441
 1486TIP3    H128653   2.483   2.190  18.110  0.2389  0.0615 -0.4746
 1486TIP3    H228654   2.392   2.121  18.011  0.6867 -0.9562 -0.1916
 1487TIP3   OH228655   6.826   2.084  19.214 -0.4592 -0.2213  0.0027
 1487TIP3    H128656   6.733   2.078  19.190 -0.7499  0.0062  1.0244
 1487TIP3    H228657   6.825   2.113  19.305  0.6020 -1.1243  0.3183
 1488TIP3   OH228658   6.695   0.510  18.332 -0.1040  0.1790  0.2291
 1488TIP3    H128659   6.724   0.421  18.354 -0.7910  0.0507  0.6451
 1488TIP3    H228660   6.604   0.513  18.362 -0.9309  0.1704 -2.1105
 1489TIP3   OH228661   4.763   2.566  19.439  0.3169  0.0084 -0.6364
 1489TIP3    H128662   4.715   2.649  19.436  0.1084  0.0887  2.1903
 1489TIP3    H228663   4.852   2.588  19.412 -0.7258  0.1760 -4.3621
 1490TIP3   OH228664   4.161   5.409  17.486 -0.4183 -0.1437 -0.2519
 1490TIP3    H128665   4.089   5.347  17.472 -0.6284 -0.2618  1.2118
 1490TIP3    H228666   4.203   5.380  17.567  1.8768 -0.6112 -1.5320
 1491TIP3   OH228667   6.891   3.549  19.155 -0.0205 -0.5236  0.3883
 1491TIP3    H128668   6.958   3.616  19.148  0.2962 -0.7975  0.7769
 1491TIP3    H228669   6.884   3.513  19.066 -1.0727  0.8448 -0.1365
 1492TIP3   OH228670   3.352   4.574  18.745 -0.3082  0.0190  0.2872
 1492TIP3    H128671   3.404   4.654  18.740  0.8409 -0.7372 -0.1478
 1492TIP3    H228672   3.265   4.600  18.715 -0.0776  1.2041  0.6028
 1493TIP3   OH228673   1.429   6.178  17.406  0.7087 -0.1652 -0.1011
 1493TIP3    H128674   1.372   6.248  17.375 -1.0023 -2.1635 -1.8240
 1493TIP3    H228675   1.392   6.151  17.489  0.3235 -0.1711 -0.2761
 1494TIP3   OH228676   4.185   1.914  18.574 -0.2184 -0.0160 -0.1062
 1494TIP3    H128677   4.246   1.914  18.647  0.1837  0.3377 -0.4353
 1494TIP3    H228678   4.138   1.831  18.582  0.2186 -0.2367  0.2233
 1495TIP3   OH228679   3.999   5.296  18.293  0.1274  0.2203 -0.2455
 1495TIP3    H128680   3.948   5.271  18.216  0.1236 -0.0398 -0.1627
 1495TIP3    H228681   3.974   5.387  18.311 -0.4998  0.0167 -0.0608
 1496TIP3   OH228682   5.905   7.048  17.837 -0.1771 -0.1690 -0.0648
 1496TIP3    H128683   5.916   7.119  17.773 -0.7630 -0.2425 -0.2586
 1496TIP3    H228684   5.812   7.051  17.859  0.0656 -0.0069  0.9626
 1497TIP3   OH228685   3.162   3.116  19.286  0.4052 -0.1850 -0.2130
 1497TIP3    H128686   3.165   3.194  19.341  0.0029  0.4029 -0.9954
 1497TIP3    H228687   3.073   3.083  19.296  1.0817 -1.6291  1.5367
 1498TIP3   OH228688   3.582   5.943  16.697  0.4690 -0.1137  0.0833
 1498TIP3    H128689   3.614   6.026  16.663 -0.8576  0.5099  0.3295
 1498TIP3    H228690   3.557   5.961  16.787 -3.0712  0.1681 -0.8138
 1499TIP3   OH228691   0.751   7.286  18.565  0.3053 -0.4841 -0.1732
 1499TIP3    H128692   0.786   7.358  18.513  0.0475 -0.3122 -0.1093
 1499TIP3    H228693   0.662   7.314  18.588  0.5471 -0.3971  0.6710
 1500TIP3   OH228694   5.425   6.217  16.405 -0.3657  0.1691 -0.3266
 1500TIP3    H128695   5.518   6.200  16.389 -0.2734 -0.5850  0.8454
 1500TIP3    H228696   5.419   6.311  16.417  0.4958  0.0815  0.9587
 1501TIP3   OH228697   1.072   5.158  19.225  0.2485  0.3307  0.2874
 1501TIP3    H128698   0.990   5.207  19.223 -3.1604 -4.5483  1.1239
 1501TIP3    H228699   1.113   5.183  19.307 -1.3098  1.6430  0.7211
 1502TIP3   OH228700   3.401   2.389  19.238 -0.0027  0.0455  0.1443
 1502TIP3    H128701   3.343   2.364  19.166  0.2790 -0.0104 -0.0646
 1502TIP3    H228702   3.384   2.483  19.250  0.6174  0.2675 -0.6182
 1503TIP3   OH228703   6.277   3.391  17.799 -0.2854 -0.5060 -0.0063
 1503TIP3    H128704   6.330   3.398  17.719  0.5390  0.1758  0.5820
 1503TIP3    H228705   6.190   3.421  17.772 -0.2274 -1.0255 -0.8318
 1504TIP3   OH228706   3.646   1.147  18.173 -0.3833 -0.9044 -0.2200
 1504TIP3    H128707   3.736   1.122  18.193 -0.1480  0.5933  0.8158
 1504TIP3    H228708   3.653   1.239  18.145 -1.5971 -0.6980  0.1049
 1505TIP3   OH228709   7.625   0.145  17.106  0.1387 -0.0469  0.2194
 1505TIP3    H128710   7.597   0.072  17.162 -1.6683 -0.1082 -0.6844
 1505TIP3    H228711   7.719   0.132  17.095  0.0842 -1.4966  1.1416
 1506TIP3   OH228712   5.513   3.007  17.053 -0.3613 -0.0439  0.5176
 1506TIP3    H128713   5.450   2.962  16.997  1.5375 -1.7968 -0.3149
 1506TIP3    H228714   5.564   3.061  16.993 -0.2896  0.4531  1.0176
 1507TIP3   OH228715   3.276   5.202  18.564 -0.0202 -0.4100  0.2064
 1507TIP3    H128716   3.261   5.169  18.652  2.8995  0.4077  1.0999
 1507TIP3    H228717   3.353   5.155  18.533 -0.6315 -0.2416 -1.7373
 1508TIP3   OH228718   2.700   3.478  18.493  0.0540  0.0911 -0.2022
 1508TIP3    H128719   2.764   3.550  18.489 -0.5427  0.6242 -0.2273
 1508TIP3    H228720   2.666   3.472  18.404  2.0022 -1.9948 -0.9012
 1509TIP3   OH228721   2.201   5.519  19.424  0.9010 -0.1417  0.0973
 1509TIP3    H128722   2.162   5.526  19.511  0.9531  0.6733  0.0589
 1509TIP3    H228723   2.294   5.502  19.440  0.7672 -0.8624  0.1845
 1510TIP3   OH228724   2.100   6.636  19.205 -0.1231 -0.0056  0.7943
 1510TIP3    H128725   2.178   6.658  19.255  1.6315 -0.2763 -1.6529
 1510TIP3    H228726   2.102   6.541  19.196 -0.8263 -0.0344  0.8347
 1511TIP3   OH228727   3.858   2.883  19.337  0.0315  0.1098 -0.2207
 1511TIP3    H128728   3.830   2.794  19.314 -0.7756  1.0699 -3.4646
 1511TIP3    H228729   3.953   2.877  19.344  0.0188 -0.9352 -0.7269
 1512TIP3   OH228730   6.729   7.217  18.064  0.5322 -0.1178  0.7295
 1512TIP3    H128731   6.804   7.239  18.119  0.1076  1.8349  0.5720
 1512TIP3    H228732   6.751   7.252  17.977  0.2448 -1.2410  0.1740
 1513TIP3   OH228733   1.136   4.702  19.502 -0.4383  0.2058  0.6257
 1513TIP3    H128734   1.144   4.767  19.432  0.7614  1.2264  1.6602
 1513TIP3    H228735   1.045   4.711  19.532 -1.7627 -1.9044 -2.2611
 1514TIP3   OH228736   1.310   3.028  17.590  0.1148  0.5220 -0.2244
 1514TIP3    H128737   1.384   3.086  17.568 -1.2650  1.8339 -1.6548
 1514TIP3    H228738   1.254   3.082  17.646 -0.3569 -0.0620 -0.1255
 1515TIP3   OH228739   4.480   1.555  18.911 -0.4502 -0.3871 -0.2783
 1515TIP3    H128740   4.462   1.592  18.998  1.6106 -0.3767  0.2015
 1515TIP3    H228741   4.485   1.461  18.926 -0.8957 -0.4561 -0.5531
 1516TIP3   OH228742   0.022   5.025  18.521 -0.3309  0.3673 -0.1094
 1516TIP3    H128743  -0.072   5.017  18.501 -0.0298 -1.4657 -0.9388
 1516TIP3    H228744   0.029   4.995  18.611 -0.5241  0.4528 -0.0635
 1517TIP3   OH228745   6.884   6.180  18.438 -0.2879  0.3616  0.1305
 1517TIP3    H128746   6.965   6.141  18.472  2.0003  3.1892 -1.5784
 1517TIP3    H228747   6.876   6.145  18.349 -2.2072 -1.4597  0.9396
 1518TIP3   OH228748   2.489   1.471  19.226 -0.2818  0.0926  0.3072
 1518TIP3    H128749   2.571   1.422  19.220 -0.8734 -0.9603  0.5201
 1518TIP3    H228750   2.423   1.405  19.249 -1.2612  0.8449 -0.2318
 1519TIP3   OH228751   1.858   7.374  18.442 -0.5489 -0.4565  0.0656
 1519TIP3    H128752   1.883   7.328  18.362 -1.6690  0.3843 -0.7984
 1519TIP3    H228753   1.842   7.464  18.414  2.1266  0.6733  1.8001
 1520TIP3   OH228754   6.682   1.828  16.826 -0.0587 -0.8414  0.4879
 1520TIP3    H128755   6.629   1.861  16.754  0.2080 -1.2620  0.0907
 1520TIP3    H228756   6.761   1.883  16.825  0.8361 -2.0651 -0.8008
 1521TIP3   OH228757   2.399   1.235  19.403  0.2084 -0.1786  0.1602
 1521TIP3    H128758   2.412   1.174  19.330 -0.2812 -1.2584  0.9392
 1521TIP3    H228759   2.305   1.252  19.405  0.2332 -0.0545  0.4574
 1522TIP3   OH228760   3.408   0.729  18.785  0.0397  0.2394  0.3237
 1522TIP3    H128761   3.337   0.683  18.742 -0.2473 -0.6066  1.6616
 1522TIP3    H228762   3.429   0.802  18.726 -0.3273 -0.8675 -1.2205
 1523TIP3   OH228763   6.675   1.904  17.145 -0.1579  0.3659  0.2650
 1523TIP3    H128764   6.651   1.914  17.053 -0.9385  0.5153  0.4828
 1523TIP3    H228765   6.767   1.932  17.148 -0.4458  1.4191 -0.2754
 1524TIP3   OH228766   0.217   0.849  18.974 -0.4479  0.0680 -0.1037
 1524TIP3    H128767   0.284   0.858  19.042  0.4364 -1.3048 -0.7437
 1524TIP3    H228768   0.139   0.819  19.020 -0.2609  0.4747  0.4877
 1525TIP3   OH228769   3.649   2.175  18.535 -0.4255  0.0924 -0.2830
 1525TIP3    H128770   3.740   2.144  18.535 -0.2251  0.6592 -0.0234
 1525TIP3    H228771   3.641   2.226  18.454 -0.2275  0.8223  0.1433
 1526TIP3   OH228772   2.898   4.319  17.951 -0.6364 -0.1120 -0.0484
 1526TIP3    H128773   2.855   4.262  17.887 -0.5691 -0.1619 -0.0504
 1526TIP3    H228774   2.835   4.330  18.021 -0.6552 -0.1762 -0.0563
 1527TIP3   OH228775   4.750   4.382  17.469  0.3071 -0.9428 -0.0273
 1527TIP3    H128776   4.819   4.434  17.510 -0.4478 -0.6434  0.8935
 1527TIP3    H228777   4.697   4.350  17.542 -0.4689 -1.2665 -0.7084
 1528TIP3   OH228778   4.480   5.180  16.751  0.9061 -0.1046 -0.5054
 1528TIP3    H128779   4.559   5.211  16.706 -0.6314  2.5427 -1.5651
 1528TIP3    H228780   4.438   5.259  16.785  0.0283 -1.6800  2.4064
 1529TIP3   OH228781   6.403   1.224  18.638  0.3288 -0.5710  0.8013
 1529TIP3    H128782   6.460   1.232  18.714 -0.2531  0.3186  1.1536
 1529TIP3    H228783   6.318   1.199  18.674  0.3256 -1.2657  0.3363
 1530TIP3   OH228784   5.347   4.044  19.212  0.3553  0.0369 -0.4763
 1530TIP3    H128785   5.406   3.990  19.159  0.7976  0.3659 -0.3294
 1530TIP3    H228786   5.403   4.115  19.245 -0.3747  0.9969 -1.2575
 1531TIP3   OH228787   2.139   1.310  19.292  0.7068  0.5478 -0.9726
 1531TIP3    H128788   2.065   1.365  19.317  2.1568  2.3146 -0.4190
 1531TIP3    H228789   2.151   1.327  19.198 -0.7155 -1.2113 -1.5422
 1532TIP3   OH228790   2.018   4.693  17.548  0.4284  1.0203 -0.1306
 1532TIP3    H128791   2.051   4.770  17.596 -0.8228  2.4476 -1.4582
 1532TIP3    H228792   1.929   4.717  17.522 -0.8758 -1.8047  1.3200
 1533TIP3   OH228793   0.311   1.878  18.273  0.6934 -0.3369 -0.9583
 1533TIP3    H128794   0.382   1.820  18.248  0.7258  0.0881 -1.9223
 1533TIP3    H228795   0.325   1.957  18.221  1.1103  0.8688  0.8850
 1534TIP3   OH228796   5.306   4.696  18.520 -0.2782 -0.6573  0.1604
 1534TIP3    H128797   5.302   4.609  18.561  0.9887 -1.0491 -0.4866
 1534TIP3    H228798   5.341   4.753  18.589 -2.7174 -0.2461  1.1515
 1535TIP3   OH228799  -0.048   3.591  17.469  0.2703 -0.3188  0.3244
 1535TIP3    H128800  -0.075   3.503  17.443 -0.9214 -0.2013  1.1205
 1535TIP3    H228801  -0.025   3.582  17.561  0.2742  0.1761  0.3715
 1536TIP3   OH228802   6.754   5.743  18.119  0.3167 -0.4457 -0.3131
 1536TIP3    H128803   6.737   5.686  18.194 -0.1639  0.1388  0.0258
 1536TIP3    H228804   6.682   5.806  18.119  1.2982  0.7202 -0.1554
 1537TIP3   OH228805   4.239   0.743  17.264 -0.6876 -0.1491 -0.3421
 1537TIP3    H128806   4.193   0.795  17.329  1.8053  0.7157  0.8676
 1537TIP3    H228807   4.181   0.669  17.247 -1.5747 -0.3179  2.7414
 1538TIP3   OH228808   1.840   6.057  17.177 -0.7963 -0.3539 -0.4649
 1538TIP3    H128809   1.824   6.113  17.102 -0.1321  1.4332  0.6757
 1538TIP3    H228810   1.935   6.044  17.179 -0.9217 -1.4546 -0.6310
 1539TIP3   OH228811   6.776   0.747  18.254  0.1350 -0.2391  0.4317
 1539TIP3    H128812   6.849   0.758  18.316  1.0154 -1.4841 -0.3275
 1539TIP3    H228813   6.734   0.666  18.282 -2.1053  1.3011  1.9126
 1540TIP3   OH228814   1.657   5.319  17.804 -0.5419  0.0290  0.4964
 1540TIP3    H128815   1.706   5.382  17.857  0.1970 -0.6011  0.5919
 1540TIP3    H228816   1.719   5.247  17.790 -1.5631 -0.9848  0.9688
 1541TIP3   OH228817   1.343   1.338  18.304 -0.0863  0.1641 -0.0592
 1541TIP3    H128818   1.374   1.311  18.217 -0.8277  1.2403 -0.6959
 1541TIP3    H228819   1.291   1.264  18.335 -1.0840  0.3261 -1.2323
 1542TIP3   OH228820   5.390   2.167  18.713  0.3148 -0.1151  0.2379
 1542TIP3    H128821   5.324   2.125  18.658 -0.5428 -0.3350  1.4070
 1542TIP3    H228822   5.467   2.175  18.656 -0.1834 -1.3364 -0.6538
 1543TIP3   OH228823   1.912   3.689  19.495 -0.6501 -0.0380 -0.5581
 1543TIP3    H128824   1.844   3.688  19.562 -0.3331 -1.4239 -0.2356
 1543TIP3    H228825   1.933   3.782  19.484  0.2885  0.1745  2.2671
 1544TIP3   OH228826   1.199   0.155  18.144  0.4969  0.1357 -0.2346
 1544TIP3    H128827   1.213   0.098  18.069 -1.8010  1.2212 -1.6073
 1544TIP3    H228828   1.287   0.170  18.180  1.2639 -3.4822 -0.2949
 1545TIP3   OH228829   0.655   2.997  19.449 -0.7889  0.0615 -0.1205
 1545TIP3    H128830   0.744   2.963  19.453 -1.0670 -0.6610  0.1718
 1545TIP3    H228831   0.663   3.082  19.406 -0.1055 -0.5034 -1.1383
 1546TIP3   OH228832   6.724   3.491  17.752  0.3572  0.3251 -0.1363
 1546TIP3    H128833   6.808   3.532  17.773  0.5209 -0.0295 -0.0814
 1546TIP3    H228834   6.739   3.450  17.666  0.7513 -1.1042  0.5883
 1547TIP3   OH228835   2.726   6.945  18.031 -0.0980  0.2392 -0.5991
 1547TIP3    H128836   2.775   6.969  18.109 -1.8361 -1.0417  0.9498
 1547TIP3    H228837   2.772   6.990  17.960  2.0190  0.7950  1.0132
 1548TIP3   OH228838   7.233   1.619  19.932 -1.1220  0.1571  0.0144
 1548TIP3    H128839   7.253   1.649  19.843  1.5485 -0.0556  0.4641
 1548TIP3    H228840   7.249   1.524  19.930 -1.6765  0.0442  0.5641
 1549TIP3   OH228841   7.404   2.352  18.541  0.0643 -0.0611 -0.4356
 1549TIP3    H128842   7.389   2.432  18.491  0.5671 -0.3786 -1.1045
 1549TIP3    H228843   7.394   2.281  18.478  0.5470 -0.4783 -0.0510
 1550TIP3   OH228844   1.220   1.247  17.218 -0.4826 -0.0282 -0.0186
 1550TIP3    H128845   1.224   1.245  17.123 -0.7076 -0.5645 -0.0225
 1550TIP3    H228846   1.303   1.284  17.246  0.3715 -1.6108 -0.3664
 1551TIP3   OH228847   2.238   5.077  19.288 -0.1489 -0.0676 -0.9358
 1551TIP3    H128848   2.328   5.076  19.256  0.2363 -1.5087  0.1152
 1551TIP3    H228849   2.185   5.056  19.211  0.5773 -1.1156 -1.1770
 1552TIP3   OH228850   2.222   4.343  18.559 -0.8297  0.1489 -0.1360
 1552TIP3    H128851   2.298   4.398  18.578 -0.3517 -1.0580  1.6314
 1552TIP3    H228852   2.242   4.304  18.474  0.4862 -0.0665  0.2515
 1553TIP3   OH228853   1.955   3.331  18.009 -0.0150  0.5510  0.8652
 1553TIP3    H128854   1.964   3.391  18.083 -0.2177  0.2828  1.1133
 1553TIP3    H228855   2.014   3.365  17.942  0.9129  0.2558  1.5021
 1554TIP3   OH228856   7.102   2.337  18.646 -0.1211 -0.1291  0.1280
 1554TIP3    H128857   7.055   2.390  18.711  1.1084  2.5988 -1.0647
 1554TIP3    H228858   7.083   2.380  18.562 -0.3803 -2.6192 -1.1832
 1555TIP3   OH228859   3.200   1.109  18.198 -0.1963 -0.3903  0.1566
 1555TIP3    H128860   3.178   1.045  18.130 -1.4966  1.1210 -0.9149
 1555TIP3    H228861   3.116   1.132  18.238  0.5725 -1.5369  2.6446
 1556TIP3   OH228862   6.624   2.922  18.840  0.3750 -0.0628  0.2040
 1556TIP3    H128863   6.674   2.927  18.759 -0.3575  1.1525 -0.1981
 1556TIP3    H228864   6.642   2.834  18.874  0.0727 -0.8916 -1.6731
 1557TIP3   OH228865   6.213   2.563  17.439 -0.3045  0.2732  0.4325
 1557TIP3    H128866   6.196   2.477  17.478 -0.5313  0.2666  0.3216
 1557TIP3    H228867   6.265   2.545  17.361 -1.0344  0.1604 -0.0428
 1558TIP3   OH228868   4.736   6.233  19.151  0.2975 -0.1049  0.3044
 1558TIP3    H128869   4.817   6.202  19.111  0.4910  1.5951 -0.7370
 1558TIP3    H228870   4.759   6.248  19.243  1.0581 -0.0316  0.1112
 1559TIP3   OH228871   5.656   1.510  18.517  0.2374 -0.4209  0.1364
 1559TIP3    H128872   5.653   1.532  18.610 -1.3912  0.6749 -0.1325
 1559TIP3    H228873   5.584   1.560  18.478  1.7161  0.2410 -1.9503
 1560TIP3   OH228874   6.263   5.344  18.766  0.4191  0.1747  0.7308
 1560TIP3    H128875   6.312   5.382  18.693 -0.0158 -1.2946 -0.3743
 1560TIP3    H228876   6.177   5.386  18.762 -0.5093 -1.7321 -1.2980
 1561TIP3   OH228877   2.732   7.161  17.622  0.1110 -0.0478  0.4388
 1561TIP3    H128878   2.776   7.098  17.565 -0.1439 -0.2248  0.4359
 1561TIP3    H228879   2.640   7.157  17.596  0.0277  0.0325  0.7114
 1562TIP3   OH228880   5.293   0.194  18.439  0.2006  0.1385 -0.2951
 1562TIP3    H128881   5.341   0.184  18.357 -2.3720 -0.5819 -1.8502
 1562TIP3    H228882   5.282   0.289  18.449  0.3828  0.2316 -0.9165
 1563TIP3   OH228883   4.927   4.372  19.382 -0.1718 -0.4650 -0.6580
 1563TIP3    H128884   4.949   4.357  19.474  0.7213  0.3587 -0.7183
 1563TIP3    H228885   4.875   4.452  19.382 -0.9250 -0.9454 -0.7915
 1564TIP3   OH228886   3.982   2.281  17.688 -0.0561 -0.3756  0.1207
 1564TIP3    H128887   3.927   2.244  17.757  0.8958 -0.2853  0.9584
 1564TIP3    H228888   4.031   2.206  17.655 -1.0118 -0.5463 -0.9663
 1565TIP3   OH228889   4.878   7.599  19.229  0.0254  0.0948 -0.6200
 1565TIP3    H128890   4.962   7.586  19.273  0.0256 -1.5654 -1.0466
 1565TIP3    H228891   4.853   7.689  19.250  0.7577 -0.1506  1.4803
 1566TIP3   OH228892   6.523   5.981  19.207  0.1806  0.1666  0.8200
 1566TIP3    H128893   6.500   5.934  19.288 -0.1642  1.6667  1.6246
 1566TIP3    H228894   6.615   6.003  19.217  0.1791  0.2149  0.7250
 1567TIP3   OH228895   2.644   0.551  17.520 -0.2693  0.6936 -0.0887
 1567TIP3    H128896   2.614   0.563  17.610  0.8215 -0.2328  0.4273
 1567TIP3    H228897   2.575   0.499  17.479  0.2254 -0.8013  0.8796
 1568TIP3   OH228898   1.453   2.636  16.911  0.0985 -0.4460 -0.0835
 1568TIP3    H128899   1.435   2.728  16.892 -0.4581 -0.2693  1.2304
 1568TIP3    H228900   1.424   2.624  17.001  2.2661 -1.3503  0.5489
 1569TIP3   OH228901   0.885   4.051  17.422  0.1065  0.1143 -0.1399
 1569TIP3    H128902   0.877   3.969  17.372  2.5011  0.3773 -1.0844
 1569TIP3    H228903   0.819   4.109  17.383 -0.7902 -0.9510 -0.2818
 1570TIP3   OH228904   4.993   5.723  17.579  0.1226  0.2744 -0.1963
 1570TIP3    H128905   4.905   5.726  17.616  0.5210  0.6733  0.7287
 1570TIP3    H228906   4.979   5.715  17.484 -0.8994 -0.0759 -0.0231
 1571TIP3   OH228907   3.428   6.470  17.266  0.0877 -0.2764  0.1770
 1571TIP3    H128908   3.450   6.552  17.223  0.3192  1.1239  2.7735
 1571TIP3    H228909   3.350   6.438  17.220  0.9461  0.5195 -1.9100
 1572TIP3   OH228910   0.736   3.783  18.918 -0.3662  0.2517 -0.0163
 1572TIP3    H128911   0.815   3.750  18.961 -0.5530  0.8178  0.7777
 1572TIP3    H228912   0.667   3.775  18.984 -1.4055 -1.8589 -1.2470
 1573TIP3   OH228913   7.298   4.185  17.526 -0.6344  0.7123 -0.1551
 1573TIP3    H128914   7.239   4.110  17.534 -1.3092  1.2331 -0.1057
 1573TIP3    H228915   7.300   4.222  17.615 -1.3897  1.5411 -0.4717
 1574TIP3   OH228916   7.145   2.791  18.854  0.4439  0.1273  0.2101
 1574TIP3    H128917   7.140   2.696  18.839  0.0080  0.3547 -1.2749
 1574TIP3    H228918   7.232   2.804  18.891  1.2145 -0.6984 -1.1783
 1575TIP3   OH228919   6.930   1.938  16.876  0.9826 -0.0966  0.4856
 1575TIP3    H128920   6.985   1.992  16.819 -0.5630  2.1379  0.9613
 1575TIP3    H228921   6.961   1.957  16.965 -0.7430  1.5777  0.8006
 1576TIP3   OH228922   2.271   3.119  17.105  0.0427 -0.0900  0.2537
 1576TIP3    H128923   2.282   3.025  17.119 -1.1528 -0.1932  0.5464
 1576TIP3    H228924   2.221   3.127  17.025  1.6843  0.3762 -0.7885
 1577TIP3   OH228925   3.072   0.536  17.321 -0.0657 -0.0614 -0.2431
 1577TIP3    H128926   3.064   0.609  17.382  0.7290 -1.3274  1.4984
 1577TIP3    H228927   3.166   0.527  17.306 -0.1044 -1.0463  0.0210
 1578TIP3   OH228928   0.295   5.286  19.195  0.5710  0.0533 -0.5464
 1578TIP3    H128929   0.316   5.193  19.207  0.3100  0.1989  1.3792
 1578TIP3    H228930   0.200   5.289  19.197  0.5787  0.3542 -0.6587
 1579TIP3   OH228931   2.187   2.159  18.536 -0.2273  0.4385 -0.3220
 1579TIP3    H128932   2.275   2.161  18.499 -0.0191 -0.1135  0.1386
 1579TIP3    H228933   2.136   2.217  18.478  0.4759  0.9383 -0.4539
 1580TIP3   OH228934   2.981   0.956  18.561  0.7204  0.7321  0.2438
 1580TIP3    H128935   3.013   0.895  18.627 -0.1446  2.2667  2.2042
 1580TIP3    H228936   2.982   1.041  18.604 -0.8503  1.6610 -1.3930
 1581TIP3   OH228937   4.600   6.379  17.588  0.0195  0.3353  0.1836
 1581TIP3    H128938   4.660   6.342  17.524  0.5255  1.8129 -0.2393
 1581TIP3    H228939   4.658   6.417  17.655 -0.4397  0.9738  0.2274
 1582TIP3   OH228940   5.333   0.320  19.081  0.1569 -0.5686 -0.0293
 1582TIP3    H128941   5.297   0.348  18.996  0.7288  1.1573  0.2580
 1582TIP3    H228942   5.290   0.376  19.145  2.7356  1.0955  0.3984
 1583TIP3   OH228943   5.246   0.510  17.656  0.1020  0.1306 -0.0392
 1583TIP3    H128944   5.306   0.508  17.581  0.4046 -1.6518  0.1947
 1583TIP3    H228945   5.303   0.531  17.731  0.0979  0.2835 -0.0783
 1584TIP3   OH228946   5.742   5.455  18.196  0.0686  0.1383 -1.3356
 1584TIP3    H128947   5.690   5.458  18.277 -0.3415  0.5275 -1.6068
 1584TIP3    H228948   5.826   5.417  18.223 -0.4914 -0.8796 -0.9685
 1585TIP3   OH228949   7.615   6.713  19.261  0.9301  0.4503  0.2986
 1585TIP3    H128950   7.531   6.721  19.217  1.1238  0.7013 -0.0314
 1585TIP3    H228951   7.628   6.797  19.304  1.3330  0.6736 -0.2395
 1586TIP3   OH228952   2.987   7.530  19.200 -0.3508  0.0286  0.7235
 1586TIP3    H128953   2.925   7.557  19.132 -0.3384 -2.1799 -0.2384
 1586TIP3    H228954   3.056   7.596  19.196 -1.0116  0.6874 -0.5007
 1587TIP3   OH228955   1.139   4.557  17.681 -0.2735 -0.0691 -0.3844
 1587TIP3    H128956   1.181   4.640  17.661 -2.5546  1.4979  0.8976
 1587TIP3    H228957   1.110   4.524  17.595  1.1343  0.1252 -0.9625
 1588TIP3   OH228958   3.471   0.939  17.503  0.4818  0.4052  0.1149
 1588TIP3    H128959   3.542   0.966  17.560  1.5075 -0.1763 -0.8524
 1588TIP3    H228960   3.491   0.977  17.418 -1.0838  1.3613  0.1265
 1589TIP3   OH228961   7.256   5.528  19.152  0.0704 -0.4135  0.6747
 1589TIP3    H128962   7.183   5.469  19.169 -1.4539  1.4075  0.7636
 1589TIP3    H228963   7.219   5.616  19.161  2.0466  0.5868 -0.2418
 1590TIP3   OH228964   6.379   1.697  18.858  0.3398  0.0371  0.2056
 1590TIP3    H128965   6.436   1.620  18.856 -0.5800 -0.6656  0.6656
 1590TIP3    H228966   6.371   1.719  18.950  0.4862  0.6040  0.0845
 1591TIP3   OH228967   2.827   2.404  16.965 -0.1995 -0.1623 -0.2853
 1591TIP3    H128968   2.826   2.497  16.988  0.1030  0.0823 -1.2276
 1591TIP3    H228969   2.771   2.398  16.887 -0.9002 -0.9093  0.2549
 1592TIP3   OH228970   5.964   1.660  16.721  0.5238 -0.6212 -0.5259
 1592TIP3    H128971   6.052   1.625  16.738  0.8268  0.5373  0.4874
 1592TIP3    H228972   5.967   1.685  16.629  1.4650 -0.0924 -0.3726
 1593TIP3   OH228973   2.447   2.368  19.173  0.1413  0.4921  0.2354
 1593TIP3    H128974   2.479   2.457  19.158  1.1942  0.1695  0.4788
 1593TIP3    H228975   2.516   2.326  19.223 -0.0265 -0.6831 -0.4874
 1594TIP3   OH228976   0.933   4.423  17.174 -0.1854 -0.4335 -0.4381
 1594TIP3    H128977   0.862   4.366  17.204 -1.2912  1.2583  0.2934
 1594TIP3    H228978   0.907   4.449  17.085 -0.4620  0.1306 -0.1964
 1595TIP3   OH228979   2.103   3.858  18.707  0.3699 -0.2723 -0.2091
 1595TIP3    H128980   2.116   3.784  18.648 -2.0719 -0.8324 -0.1429
 1595TIP3    H228981   2.012   3.851  18.735  1.2161  0.2821  3.2075
 1596TIP3   OH228982   4.796   3.111  19.079 -0.1837  0.5710 -0.3140
 1596TIP3    H128983   4.841   3.189  19.112  0.9545  0.3279 -1.2346
 1596TIP3    H228984   4.737   3.086  19.150 -0.6380  2.3068 -0.0155
 1597TIP3   OH228985   5.079   5.621  18.538  0.0893 -0.3374  0.1795
 1597TIP3    H128986   5.032   5.678  18.477 -0.4464 -0.6998  0.2474
 1597TIP3    H228987   5.048   5.650  18.625  0.2519 -0.3465  0.2397
 1598TIP3   OH228988   2.671   4.685  18.321 -0.4468 -0.8242  0.4722
 1598TIP3    H128989   2.614   4.755  18.354 -0.5901 -1.1927  1.0290
 1598TIP3    H228990   2.679   4.624  18.395  0.3794 -0.9586  0.2849
 1599TIP3   OH228991   5.669   1.995  19.313  0.2773 -0.0891 -0.4457
 1599TIP3    H128992   5.753   1.950  19.304  1.2941  1.9168 -1.8492
 1599TIP3    H228993   5.629   1.989  19.226 -0.5944 -0.2081 -0.0416
 1600TIP3   OH228994   1.833   7.307  17.292 -0.1346  0.1574  0.5677
 1600TIP3    H128995   1.860   7.381  17.346 -1.0783  0.4750  0.6388
 1600TIP3    H228996   1.801   7.242  17.354 -1.0189  0.4350  0.4196
 1601TIP3   OH228997   3.140   0.538  16.722  0.0278 -0.3468 -0.5143
 1601TIP3    H128998   3.195   0.470  16.762 -1.3475 -1.5686 -0.6210
 1601TIP3    H228999   3.114   0.500  16.638 -2.3081 -0.5452  0.2225
 1602TIP3   OH229000   0.000   3.105  16.851 -0.0580  0.1391 -0.0022
 1602TIP3    H129001   0.042   3.173  16.904  0.6391 -1.2488  1.3370
 1602TIP3    H229002  -0.088   3.138  16.834  0.1665  1.2469  0.8416
 1603TIP3   OH229003   5.443   4.438  17.323 -0.6729  0.1112 -0.8905
 1603TIP3    H129004   5.386   4.435  17.246 -0.6997 -1.8591 -0.8519
 1603TIP3    H229005   5.521   4.388  17.298 -0.3249  0.1345  0.0738
 1604TIP3   OH229006   2.482   3.792  17.641 -0.1650  0.3814 -0.5320
 1604TIP3    H129007   2.549   3.813  17.576  1.3807  0.5472  1.0386
 1604TIP3    H229008   2.508   3.842  17.718 -2.7252  1.2950 -0.1740
 1605TIP3   OH229009   0.420   5.733  19.043  0.0034  0.1436  0.5186
 1605TIP3    H129010   0.487   5.800  19.024  2.2434 -1.7569  1.1629
 1605TIP3    H229011   0.378   5.764  19.123  0.6950  1.0008  0.5790
 1606TIP3   OH229012   7.121   1.220  17.669 -0.1688 -0.1202 -0.2994
 1606TIP3    H129013   7.038   1.231  17.623 -1.1318 -2.4282  0.7287
 1606TIP3    H229014   7.144   1.308  17.698 -3.4080  0.3558  1.2711
 1607TIP3   OH229015   5.331   2.428  18.754 -0.6631  0.1004  0.5121
 1607TIP3    H129016   5.357   2.337  18.748  0.2407  0.4586 -1.9203
 1607TIP3    H229017   5.238   2.428  18.732 -1.0790 -0.3714  2.1407
 1608TIP3   OH229018   6.525   5.836  18.658  0.7384  0.6476 -0.5510
 1608TIP3    H129019   6.549   5.858  18.568  2.8572 -1.8311 -0.6969
 1608TIP3    H229020   6.600   5.863  18.710  1.3120 -1.5844 -0.1311
 1609TIP3   OH229021   4.900   6.846  18.074 -0.1590  0.4230 -0.2139
 1609TIP3    H129022   4.987   6.885  18.072 -0.6729  1.8553  1.6980
 1609TIP3    H229023   4.847   6.900  18.015  0.1183 -0.1141 -0.9580
 1610TIP3   OH229024   7.172   6.432  17.495 -0.0966 -0.0302 -0.8104
 1610TIP3    H129025   7.079   6.410  17.483 -0.1394 -0.5153  0.2778
 1610TIP3    H229026   7.203   6.368  17.559  0.4356  1.4583  0.4954
 1611TIP3   OH229027   0.517   7.348  18.699 -0.8616  0.1153 -0.1296
 1611TIP3    H129028   0.500   7.317  18.788  1.3298 -0.8353  0.0306
 1611TIP3    H229029   0.525   7.443  18.708  1.9341 -0.1394  1.2882
 1612TIP3   OH229030   7.403   2.896  17.388 -0.1002 -0.7662 -0.1010
 1612TIP3    H129031   7.491   2.920  17.363  0.4265  2.0665  3.5800
 1612TIP3    H229032   7.347   2.927  17.317  1.6612 -0.8215 -1.5698
 1613TIP3   OH229033   1.175   5.913  18.707  0.3124 -0.1526 -0.0662
 1613TIP3    H129034   1.150   5.845  18.771 -0.2822  0.7523  0.6886
 1613TIP3    H229035   1.212   5.983  18.760 -1.1288  1.0499 -0.5756
 1614TIP3   OH229036   1.521   4.758  17.720  0.6604 -0.4107  0.1954
 1614TIP3    H129037   1.428   4.776  17.707  0.6550 -1.1053 -0.8211
 1614TIP3    H229038   1.525   4.665  17.740  1.1688 -0.4709 -0.1663
 1615TIP3   OH229039   5.456   3.203  18.369 -0.1224  0.4155  0.5299
 1615TIP3    H129040   5.519   3.158  18.313  1.2251  0.6098  1.8318
 1615TIP3    H229041   5.411   3.263  18.310  0.8916  0.2469 -0.4569
 1616TIP3   OH229042   0.059   0.831  16.827 -0.2874 -0.3973  0.0047
 1616TIP3    H129043   0.003   0.887  16.881 -0.2675 -0.3329 -0.0414
 1616TIP3    H229044   0.002   0.801  16.756 -0.3497 -0.5878  0.1335
 1617TIP3   OH229045   1.132   5.184  19.514  0.1133  0.4661 -0.0498
 1617TIP3    H129046   1.039   5.192  19.534  0.0299 -0.5672  0.0206
 1617TIP3    H229047   1.162   5.110  19.567  0.6137 -0.2075 -1.2163
 1618TIP3   OH229048   1.816   2.185  18.494 -0.1612  0.9225  0.1840
 1618TIP3    H129049   1.884   2.248  18.471 -0.1132  0.2393 -1.7275
 1618TIP3    H229050   1.843   2.103  18.451 -0.1927 -0.4694  2.6367
 1619TIP3   OH229051   7.695   5.793  16.944 -0.1311 -0.0003  0.1838
 1619TIP3    H129052   7.666   5.803  16.853 -0.2553 -0.1173  0.2120
 1619TIP3    H229053   7.775   5.845  16.949  0.4238 -0.7977 -0.2539
 1620TIP3   OH229054   1.985   5.416  17.101  0.5998 -0.4644  0.5295
 1620TIP3    H129055   1.968   5.466  17.181  2.2378 -1.4697  1.5625
 1620TIP3    H229056   2.050   5.468  17.054  0.2426 -0.2773  0.2378
 1621TIP3   OH229057   5.687   6.898  18.432  0.4029  0.0301 -0.2760
 1621TIP3    H129058   5.724   6.814  18.459  1.2572  0.2420 -0.7639
 1621TIP3    H229059   5.599   6.876  18.400  0.3476 -0.5692  0.2682
 1622TIP3   OH229060   0.079   0.752  17.118 -0.2817  0.4898 -0.1742
 1622TIP3    H129061   0.116   0.763  17.031 -1.9323  0.1552 -0.9585
 1622TIP3    H229062   0.050   0.660  17.120 -0.8440  0.6722  0.4737
 1623TIP3   OH229063   0.568   0.965  17.929 -0.0962 -0.0926  0.3239
 1623TIP3    H129064   0.594   1.005  17.846 -1.5198 -0.1403 -0.1750
 1623TIP3    H229065   0.491   0.912  17.907  0.2401 -1.0909  1.4450
 1624TIP3   OH229066   0.597   2.255  16.993 -0.0728 -0.0403  0.1386
 1624TIP3    H129067   0.608   2.311  16.915 -2.1032 -0.7006 -0.7034
 1624TIP3    H229068   0.502   2.251  17.005  0.1213 -1.6800  1.3872
 1625TIP3   OH229069   0.156   3.871  19.160  0.3699 -0.2697 -0.0256
 1625TIP3    H129070   0.088   3.855  19.095 -0.2414 -1.0941  0.7783
 1625TIP3    H229071   0.136   3.957  19.196  0.2449 -0.1517 -0.3753
 1626TIP3   OH229072   0.330   7.518  12.923 -0.0117 -0.1164 -0.2916
 1626TIP3    H129073   0.290   7.507  12.837 -1.2613 -2.0702  0.4717
 1626TIP3    H229074   0.262   7.562  12.976  0.9566  1.6112 -0.3902
 1627TIP3   OH229075   0.046   6.821  18.372 -0.6369  0.2829 -0.2163
 1627TIP3    H129076  -0.033   6.806  18.321 -0.6650  0.1354 -0.1276
 1627TIP3    H229077   0.077   6.907  18.342 -2.1916  1.5167  1.5098
 1628TIP3   OH229078   1.584   3.510  16.432  0.4630  0.3942 -0.1947
 1628TIP3    H129079   1.664   3.463  16.454  0.4822  0.2914 -0.4803
 1628TIP3    H229080   1.594   3.596  16.474  0.2863  0.0410  0.5893
 1629TIP3   OH229081   3.985   3.902  17.784 -0.3016 -0.0259 -0.1547
 1629TIP3    H129082   4.046   3.937  17.719  1.9321 -0.7672  1.4540
 1629TIP3    H229083   3.956   3.978  17.834 -1.6078  0.4737 -1.5991
 1630TIP3   OH229084   2.092   5.301  19.308 -0.1173  0.5728 -0.2496
 1630TIP3    H129085   2.122   5.368  19.370  1.0269  1.1179 -1.3463
 1630TIP3    H229086   2.138   5.222  19.336 -2.3660 -0.1139  1.7713
 1631TIP3   OH229087   1.739   2.478  17.915  0.2380  0.2997 -0.0932
 1631TIP3    H129088   1.806   2.495  17.849 -0.3643 -0.4080 -0.9039
 1631TIP3    H229089   1.712   2.388  17.900  0.7295 -0.1850  1.7304
 1632TIP3   OH229090   3.027   5.779  19.402 -0.1262 -0.2105 -0.1462
 1632TIP3    H129091   2.943   5.819  19.426  0.1550 -0.3069  1.0952
 1632TIP3    H229092   3.088   5.811  19.468  0.4219 -1.5453  0.0315
 1633TIP3   OH229093   6.852   2.477  19.082 -0.4122  0.0295  0.4064
 1633TIP3    H129094   6.933   2.523  19.106  1.3815 -2.3921 -0.5739
 1633TIP3    H229095   6.825   2.434  19.162  0.3391 -0.6317  0.3161
 1634TIP3   OH229096   7.410   3.527  18.832  0.1226 -0.1215  0.5913
 1634TIP3    H129097   7.503   3.549  18.844  0.2680  0.5537 -1.3719
 1634TIP3    H229098   7.410   3.462  18.762 -0.8871 -0.0918  0.5586
 1635TIP3   OH229099   2.085   2.946  18.342  0.6727  0.2153 -0.0482
 1635TIP3    H129100   2.031   2.874  18.374  1.2574  0.4913  1.6792
 1635TIP3    H229101   2.175   2.915  18.353  0.9732  1.4907  1.5972
 1636TIP3   OH229102   6.739   4.014  17.278 -0.0390  0.0105  0.0845
 1636TIP3    H129103   6.784   4.070  17.341 -0.8286  0.1297  0.5485
 1636TIP3    H229104   6.675   4.072  17.236 -0.9519 -0.5575  0.6583
 1637TIP3   OH229105   6.111   1.102  18.078  0.5905 -0.2920  0.2769
 1637TIP3    H129106   6.069   1.015  18.071  0.5179 -0.2672  0.3963
 1637TIP3    H229107   6.061   1.157  18.018  0.8238 -0.4037 -0.0187
 1638TIP3   OH229108   0.231   4.873  18.415  0.2826  0.0289  0.3411
 1638TIP3    H129109   0.159   4.932  18.439  0.1169 -0.4862  1.1287
 1638TIP3    H229110   0.211   4.791  18.461  1.1647 -0.2405  0.2482
 1639TIP3   OH229111   5.477   3.763  18.892  0.0531  0.3696  0.0093
 1639TIP3    H129112   5.517   3.849  18.900 -0.7862  0.7798 -0.1007
 1639TIP3    H229113   5.383   3.780  18.884 -0.2231 -0.5945  0.8779
 1640TIP3   OH229114   3.660   1.390  18.038 -0.3212  0.3023  0.2661
 1640TIP3    H129115   3.704   1.335  17.973  0.9178  0.5917  0.8408
 1640TIP3    H229116   3.667   1.479  18.002 -0.4874  0.3404  0.3300
 1641TIP3   OH229117   1.355   0.329  17.681 -0.0295 -0.5240  0.3641
 1641TIP3    H129118   1.429   0.384  17.707 -1.2735  1.0971  0.6713
 1641TIP3    H229119   1.310   0.381  17.614 -1.0913 -1.2996  0.4541
 1642TIP3   OH229120   3.170   0.332  18.498 -0.3861  0.2700  0.0831
 1642TIP3    H129121   3.082   0.296  18.507 -0.3994  0.4983  0.9368
 1642TIP3    H229122   3.200   0.344  18.588  0.9672 -0.8932 -0.1725
 1643TIP3   OH229123   7.560   6.419  17.130 -0.4841 -0.5232 -0.6474
 1643TIP3    H129124   7.650   6.442  17.109 -0.6474 -0.9363 -1.8888
 1643TIP3    H229125   7.512   6.435  17.049 -1.7744  0.8836  0.3282
 1644TIP3   OH229126   0.004   2.853  19.058 -0.0309 -0.0726  0.3309
 1644TIP3    H129127  -0.030   2.805  18.983 -0.1588  0.1991  0.2170
 1644TIP3    H229128   0.052   2.926  19.021  0.1855 -0.1226  0.5066
 1645TIP3   OH229129   0.544   4.009  19.655  0.0381  0.0754 -0.4827
 1645TIP3    H129130   0.501   3.970  19.579 -0.2575 -0.8568  0.1401
 1645TIP3    H229131   0.588   3.935  19.698  3.7790  1.2223 -2.0151
 1646TIP3   OH229132   5.866   2.266  19.481  0.0050  0.1623 -0.2210
 1646TIP3    H129133   5.857   2.358  19.503  0.3743 -0.2349  1.7667
 1646TIP3    H229134   5.961   2.250  19.482 -0.0721 -0.3208 -0.0998
 1647TIP3   OH229135   0.886   4.375  18.236  0.1723  0.7841 -0.1527
 1647TIP3    H129136   0.830   4.298  18.239 -0.1303  1.0144  0.1988
 1647TIP3    H229137   0.937   4.364  18.156  0.0560  0.2737 -0.1590
 1648TIP3   OH229138   6.371   6.626  18.020  0.0874 -0.2138 -0.6794
 1648TIP3    H129139   6.448   6.574  18.043  0.4819 -0.1106 -1.6892
 1648TIP3    H229140   6.345   6.593  17.934 -0.7741  0.0136 -0.5126
 1649TIP3   OH229141   0.936   6.098  18.631 -0.0244  0.3794  0.3563
 1649TIP3    H129142   1.017   6.078  18.584 -0.6769 -1.1148 -0.2099
 1649TIP3    H229143   0.950   6.185  18.668  1.4625  0.5483 -0.5327
 1650TIP3   OH229144   4.070   1.311  17.055 -0.4438  0.5464  0.0438
 1650TIP3    H129145   4.017   1.308  17.135 -0.0874 -0.1590  0.2597
 1650TIP3    H229146   4.132   1.239  17.064  0.6023  1.3946 -0.1851
 1651TIP3   OH229147   5.595   3.122  18.124 -0.0611 -0.0568  0.3837
 1651TIP3    H129148   5.639   3.199  18.161  0.6507  0.5076 -1.5308
 1651TIP3    H229149   5.650   3.095  18.051 -1.3094 -1.2167 -0.1729
 1652TIP3   OH229150   7.367   5.460  18.346 -0.3955 -0.0844 -0.4261
 1652TIP3    H129151   7.300   5.450  18.413 -0.4953  0.1472 -0.4887
 1652TIP3    H229152   7.363   5.553  18.322  1.8277  0.6563  1.5690
 1653TIP3   OH229153   2.876   3.800  16.970 -0.1000  0.3274 -0.1533
 1653TIP3    H129154   2.801   3.858  16.984  0.9738  1.4792  1.0475
 1653TIP3    H229155   2.904   3.816  16.880 -2.1881 -1.2589 -1.1842
 1654TIP3   OH229156   2.335   4.989  16.815 -0.0325  0.6034 -0.3434
 1654TIP3    H129157   2.280   4.911  16.829  0.3940  0.3814  0.1439
 1654TIP3    H229158   2.412   4.955  16.769  1.4499  0.1956  2.2491
 1655TIP3   OH229159   3.152   7.415  17.048 -0.6126 -0.8332 -0.2318
 1655TIP3    H129160   3.243   7.389  17.059 -0.3561 -1.1295 -2.5711
 1655TIP3    H229161   3.107   7.333  17.025 -1.3186 -0.5381  0.0718
 1656TIP3   OH229162   6.871   1.237  17.577  0.0980  0.0626 -0.0618
 1656TIP3    H129163   6.806   1.178  17.616  0.1022  1.0778  1.6093
 1656TIP3    H229164   6.821   1.316  17.555 -0.1092 -0.7977 -3.1779
 1657TIP3   OH229165   4.887   1.871  18.946  0.4817  0.0159 -0.0336
 1657TIP3    H129166   4.931   1.788  18.966 -0.1424 -0.7681 -1.6667
 1657TIP3    H229167   4.912   1.890  18.855 -0.0960  1.1520  0.0254
 1658TIP3   OH229168   6.308   0.890  17.346  0.2642  1.0346 -0.4098
 1658TIP3    H129169   6.234   0.951  17.345 -0.1682  0.5172 -0.8036
 1658TIP3    H229170   6.267   0.804  17.361  0.6945  0.6332 -1.4375
 1659TIP3   OH229171   7.403   1.722  18.443 -0.5807 -0.1804 -0.4846
 1659TIP3    H129172   7.409   1.630  18.415  0.3951 -0.4586  0.5631
 1659TIP3    H229173   7.335   1.721  18.510  1.9565 -0.9413  2.3025
 1660TIP3   OH229174   7.291   2.492  18.969  0.1151 -0.1279  0.3075
 1660TIP3    H129175   7.334   2.435  18.905  0.0302 -1.4723  1.3988
 1660TIP3    H229176   7.307   2.450  19.053  1.0364  2.1120  1.3147
 1661TIP3   OH229177   6.473   2.363  18.407 -0.4813 -0.3012  0.3266
 1661TIP3    H129178   6.516   2.418  18.342 -0.4587 -0.2736  0.3647
 1661TIP3    H229179   6.409   2.420  18.450  0.0438 -0.1026  0.8630
 1662TIP3   OH229180   0.050   4.571  17.725  0.2807  0.2044  0.2022
 1662TIP3    H129181   0.112   4.643  17.736  1.7882 -1.2136  1.6532
 1662TIP3    H229182   0.050   4.526  17.809 -1.6074 -0.7660 -0.2413
 1663TIP3   OH229183   1.708   4.385  19.055 -0.3286  0.9327 -0.2004
 1663TIP3    H129184   1.738   4.439  19.128  0.3274  0.3591 -0.0342
 1663TIP3    H229185   1.768   4.407  18.983 -0.7870  1.2777 -0.4833
 1664TIP3   OH229186   2.913   3.299  17.458  0.1781  0.0326 -0.5786
 1664TIP3    H129187   2.894   3.244  17.382  1.5615  0.8828 -1.5788
 1664TIP3    H229188   3.003   3.277  17.482  0.7392  1.7516 -0.9502
 1665TIP3   OH229189   3.162   1.336  17.699 -0.0467  0.5429  0.0199
 1665TIP3    H129190   3.181   1.416  17.748 -0.3473  1.3160 -1.0804
 1665TIP3    H229191   3.226   1.336  17.628 -0.2140 -0.0670 -0.1341
 1666TIP3   OH229192   1.666   7.516  19.003 -0.3117 -0.1612 -0.6552
 1666TIP3    H129193   1.618   7.435  19.020  0.2160 -0.8060 -2.1430
 1666TIP3    H229194   1.737   7.516  19.067 -2.0689  0.7043  1.4390
 1667TIP3   OH229195   7.320   2.495  16.749  0.2435  0.3505  0.0228
 1667TIP3    H129196   7.415   2.505  16.761  0.0638  1.5426  0.5773
 1667TIP3    H229197   7.292   2.441  16.823  0.5078 -0.1300 -0.2251
 1668TIP3   OH229198   7.471   1.403  17.577  0.0812  0.1180  0.0971
 1668TIP3    H129199   7.507   1.491  17.566  1.6212 -0.6231 -1.3745
 1668TIP3    H229200   7.546   1.345  17.561 -0.7602 -1.4674  1.5657
 1669TIP3   OH229201   5.179   0.430  19.285  0.2650 -0.0310  0.8465
 1669TIP3    H129202   5.267   0.428  19.322  0.9438  1.1755 -0.6033
 1669TIP3    H229203   5.126   0.473  19.352  1.0945  0.5305  1.1574
 1670TIP3   OH229204   5.967   6.964  18.750  0.4421  0.0270  0.2033
 1670TIP3    H129205   5.944   6.879  18.789  0.3108  0.2680  0.6599
 1670TIP3    H229206   5.883   6.998  18.720  0.0209  1.1940  2.4371
 1671TIP3   OH229207   4.689   1.222  17.847  0.0351  0.0137  0.0240
 1671TIP3    H129208   4.721   1.135  17.872 -1.1132 -0.7719 -1.0809
 1671TIP3    H229209   4.686   1.219  17.751  1.3872  1.8205 -0.1031
 1672TIP3   OH229210   5.227   4.034  18.540  0.1978  0.2471 -0.2375
 1672TIP3    H129211   5.216   4.077  18.455 -0.9535  0.0497 -0.2064
 1672TIP3    H229212   5.149   4.060  18.590 -1.8127 -3.5900 -0.9840
 1673TIP3   OH229213   3.318   1.524  18.029 -0.1157  0.5978  0.3071
 1673TIP3    H129214   3.279   1.557  17.948 -0.8675 -0.1877  0.3344
 1673TIP3    H229215   3.365   1.600  18.066 -2.5787  1.9568  0.8643
 1674TIP3   OH229216   2.961   6.157  18.066  0.0557 -0.9860  0.0707
 1674TIP3    H129217   2.893   6.224  18.068 -1.5929 -2.5818  0.6626
 1674TIP3    H229218   2.981   6.145  17.973 -0.3926 -0.4263 -0.1011
 1675TIP3   OH229219   1.398   1.591  16.628 -0.0908 -0.0356 -0.3236
 1675TIP3    H129220   1.369   1.531  16.697  0.3935  1.3659  1.1719
 1675TIP3    H229221   1.420   1.534  16.554  0.7634 -1.7401  1.1552
 1676TIP3   OH229222   0.967   6.359  18.727  0.5605 -0.5515  0.0158
 1676TIP3    H129223   1.038   6.365  18.663  1.1491  1.6284  0.7811
 1676TIP3    H229224   0.933   6.449  18.733 -0.1427 -0.9110  2.0043
 1677TIP3   OH229225   6.802   6.013  19.192 -0.1454  0.6365 -0.1069
 1677TIP3    H129226   6.844   6.073  19.130 -2.0963  1.7999 -0.3683
 1677TIP3    H229227   6.820   6.052  19.278  1.3090 -0.1879 -0.0019
 1678TIP3   OH229228   3.571   6.765  17.525  0.1058  0.1461  0.4378
 1678TIP3    H129229   3.485   6.804  17.541  1.4214  2.7649  1.7454
 1678TIP3    H229230   3.615   6.827  17.467  1.6407 -0.4035  0.9799
 1679TIP3   OH229231   2.740   4.237  18.386 -0.3536  0.2996 -0.6573
 1679TIP3    H129232   2.724   4.259  18.295  0.1970  0.3861 -0.7407
 1679TIP3    H229233   2.830   4.204  18.387 -0.3633  0.2797 -0.1537
 1680TIP3   OH229234   6.088   4.682  17.375 -0.0051  0.5272 -0.5260
 1680TIP3    H129235   6.133   4.733  17.308  0.6847  2.2037  1.1338
 1680TIP3    H229236   6.157   4.656  17.436 -0.7347 -0.2798 -0.0222
 1681TIP3   OH229237   5.716   2.859  17.552  0.0902  0.7929 -0.2631
 1681TIP3    H129238   5.741   2.951  17.548 -0.3178  0.8664 -1.5260
 1681TIP3    H229239   5.620   2.860  17.547  0.1240  0.2696 -1.1480
 1682TIP3   OH229240   4.675   6.473  17.242  0.0604  0.1426  0.2809
 1682TIP3    H129241   4.599   6.429  17.281  0.6818 -0.4923  0.8061
 1682TIP3    H229242   4.664   6.565  17.265 -1.3128  0.3054 -0.9163
 1683TIP3   OH229243   5.943   1.397  17.916 -0.3577 -0.1785  0.2342
 1683TIP3    H129244   5.995   1.415  17.838 -0.3325  0.8484  0.4775
 1683TIP3    H229245   5.876   1.466  17.917 -3.6417 -2.9821 -1.6604
 1684TIP3   OH229246   3.216   0.933  19.100  0.9013  0.2101 -0.1885
 1684TIP3    H129247   3.150   0.928  19.169  0.5783  0.2188 -0.4940
 1684TIP3    H229248   3.252   0.845  19.095 -2.5053 -1.2797 -3.3306
 1685TIP3   OH229249   2.936   7.444  17.923 -0.1636  0.1653 -0.2696
 1685TIP3    H129250   2.975   7.409  17.843  0.1392 -2.0831  0.7716
 1685TIP3    H229251   3.010   7.472  17.976 -0.2756  0.4636 -0.2715
 1686TIP3   OH229252   5.697   1.986  17.948  0.2042  0.2004  0.4926
 1686TIP3    H129253   5.706   1.948  17.861  0.4040  1.1128  0.1013
 1686TIP3    H229254   5.773   1.955  17.996 -1.5256 -3.0189  1.4342
 1687TIP3   OH229255   1.828   7.229  18.939 -0.2099  0.1265 -0.4345
 1687TIP3    H129256   1.914   7.214  18.900  0.8612  1.2535  1.3769
 1687TIP3    H229257   1.767   7.217  18.866  1.4696 -0.5335 -1.8044
 1688TIP3   OH229258   2.381   4.110  17.097  0.2421  0.5622  0.2403
 1688TIP3    H129259   2.322   4.176  17.061  2.1336  1.7410 -0.8873
 1688TIP3    H229260   2.459   4.160  17.122  1.0941 -1.0394  0.8900
 1689TIP3   OH229261   3.966   6.779  17.405  0.7380  0.1305  0.6158
 1689TIP3    H129262   3.896   6.771  17.340  0.8764  1.7007  0.2332
 1689TIP3    H229263   3.920   6.793  17.488  0.5357 -2.6142  1.0663
 1690TIP3   OH229264   4.428   2.388  17.149 -0.2926  0.0763 -0.1258
 1690TIP3    H129265   4.445   2.428  17.064  0.5620  1.3887  0.6375
 1690TIP3    H229266   4.486   2.311  17.151 -0.3943 -0.0210 -0.7645
 1691TIP3   OH229267   5.686   0.395  18.850  0.4962 -0.1454 -0.6498
 1691TIP3    H129268   5.743   0.379  18.775 -0.3444  1.5420 -1.7204
 1691TIP3    H229269   5.601   0.358  18.824  0.4708 -0.5123 -0.0677
 1692TIP3   OH229270   5.096   0.555  17.169 -0.2517 -0.0097 -0.3625
 1692TIP3    H129271   5.183   0.535  17.135 -0.1326 -1.0620  0.5123
 1692TIP3    H229272   5.039   0.551  17.093  0.4801  0.8973 -0.9851
 1693TIP3   OH229273   5.073   2.703  18.132  0.2318  0.0303 -0.3117
 1693TIP3    H129274   5.044   2.640  18.067 -0.8342  0.4812 -0.2845
 1693TIP3    H229275   5.049   2.665  18.216 -1.3243  0.8815 -0.3312
 1694TIP3   OH229276   1.341   5.873  17.782  0.1973 -0.0326  0.6276
 1694TIP3    H129277   1.342   5.968  17.780  3.0388  0.0304  0.7844
 1694TIP3    H229278   1.309   5.846  17.696 -0.4530  1.0387  0.5253
 1695TIP3   OH229279   2.680   1.811  18.829  0.6693  0.6022 -0.2321
 1695TIP3    H129280   2.689   1.895  18.874 -0.6603  1.2901 -1.1921
 1695TIP3    H229281   2.648   1.752  18.897  3.0852  0.3949  0.8661
 1696TIP3   OH229282   4.551   7.003  18.665  0.3732  0.0157  0.3818
 1696TIP3    H129283   4.576   7.087  18.702 -0.3929  0.2066  0.4724
 1696TIP3    H229284   4.456   7.007  18.656  0.3057 -0.8973  0.5364
 1697TIP3   OH229285   6.612   1.180  17.963  0.1078  0.3599  0.5247
 1697TIP3    H129286   6.670   1.104  17.964  1.9144  1.6186 -1.0925
 1697TIP3    H229287   6.668   1.254  17.984 -1.3797  1.4050  0.9866
 1698TIP3   OH229288   3.896   0.087  19.106 -0.3729  0.0524  0.0782
 1698TIP3    H129289   3.893   0.141  19.027  2.4522  0.2519  0.0109
 1698TIP3    H229290   3.870   0.145  19.177 -0.5720  0.5580 -0.4079
 1699TIP3   OH229291   3.305   2.206  19.486 -0.7958  0.6337  0.3383
 1699TIP3    H129292   3.291   2.293  19.448 -0.2696  0.2028 -0.8779
 1699TIP3    H229293   3.246   2.149  19.437 -0.0940  0.0647  0.1377
 1700TIP3   OH229294   5.159   5.138  17.234 -0.0430  0.0422 -0.0044
 1700TIP3    H129295   5.068   5.153  17.259  0.8103  2.3170  2.2700
 1700TIP3    H229296   5.161   5.151  17.139 -1.9350  0.9647  0.0376
 1701TIP3   OH229297   0.614   4.251  17.473 -0.3982  0.6648  0.2546
 1701TIP3    H129298   0.626   4.215  17.561 -0.7069  1.1333  0.4948
 1701TIP3    H229299   0.520   4.266  17.466 -0.4158  0.3133 -0.2820
 1702TIP3   OH229300   7.569   2.788  18.775 -0.0742 -0.0071 -0.1373
 1702TIP3    H129301   7.651   2.793  18.727 -0.5140  1.4068 -0.7944
 1702TIP3    H229302   7.503   2.768  18.709 -0.2615 -1.2313  0.3986
 1703TIP3   OH229303   3.601   3.877  18.509  0.0424  0.0346 -0.6070
 1703TIP3    H129304   3.656   3.819  18.457  2.0668 -0.8592  2.2581
 1703TIP3    H229305   3.574   3.945  18.448  0.9133 -1.7268 -3.1491
 1704TIP3   OH229306   1.755   5.483  18.177  1.0057 -0.4103  0.0476
 1704TIP3    H129307   1.707   5.554  18.219 -0.8487 -1.9863  0.6986
 1704TIP3    H229308   1.738   5.494  18.084 -2.6356 -2.1867  0.3539
 1705TIP3   OH229309   5.284   4.167  18.109  0.8342 -0.2987 -0.4718
 1705TIP3    H129310   5.206   4.204  18.067 -0.1922 -0.9713  0.7833
 1705TIP3    H229311   5.296   4.219  18.188  1.4876 -0.4039 -0.4941
 1706TIP3   OH229312   3.317   3.270  18.930  0.0676 -0.1810 -0.3582
 1706TIP3    H129313   3.385   3.270  18.997  1.2717 -0.3123 -1.5550
 1706TIP3    H229314   3.272   3.354  18.941  0.3185 -0.1577  0.5374
 1707TIP3   OH229315   4.166   2.957  18.319 -0.1246 -0.6911  0.8311
 1707TIP3    H129316   4.084   2.950  18.270  0.5952 -1.6321 -0.2700
 1707TIP3    H229317   4.149   3.028  18.381 -0.9276  0.8934 -1.0717
 1708TIP3   OH229318   2.811   2.666  17.057 -0.0722  0.2054  0.0142
 1708TIP3    H129319   2.866   2.740  17.081 -1.5442  1.4579 -0.3306
 1708TIP3    H229320   2.728   2.682  17.102 -0.8150 -0.6057 -1.0143
 1709TIP3   OH229321   5.393   5.526  17.338 -0.2625 -0.3312  0.5761
 1709TIP3    H129322   5.449   5.603  17.336 -1.2081  0.4181  1.8785
 1709TIP3    H229323   5.436   5.464  17.278  0.9908  0.8509  0.2023
 1710TIP3   OH229324   3.831   1.268  17.869 -0.0291  0.0615 -0.5206
 1710TIP3    H129325   3.858   1.271  17.777  1.2842  0.5951 -0.1456
 1710TIP3    H229326   3.900   1.217  17.912 -1.5011 -1.6460 -0.0885
 1711TIP3   OH229327   7.052   6.154  17.354  0.2871 -0.7264  0.5535
 1711TIP3    H129328   7.009   6.069  17.357  0.9735 -1.1118 -0.3747
 1711TIP3    H229329   6.983   6.215  17.328  0.0478 -1.1649  0.1584
 1712TIP3   OH229330   1.054   6.517  16.686 -0.4745 -0.6284  0.0425
 1712TIP3    H129331   1.001   6.588  16.649 -1.6624 -0.3477  2.0986
 1712TIP3    H229332   1.143   6.552  16.689 -0.8011  0.2485 -0.2589
 1713TIP3   OH229333   3.957   3.655  17.579 -0.6207 -0.0461  0.4159
 1713TIP3    H129334   3.929   3.627  17.492  0.9536 -0.4798  0.0333
 1713TIP3    H229335   3.876   3.654  17.631 -1.2762 -1.5613 -0.5563
 1714TIP3   OH229336   6.052   5.641  18.320  0.2453  0.2782 -0.2858
 1714TIP3    H129337   5.998   5.567  18.348  1.2852 -1.0460 -1.6585
 1714TIP3    H229338   6.114   5.654  18.391  1.8835 -2.0552 -1.1932
 1715TIP3   OH229339   7.110   3.570  17.060 -0.1806 -0.0336  0.7360
 1715TIP3    H129340   7.087   3.549  16.969  0.6065 -0.2059  0.5734
 1715TIP3    H229341   7.151   3.657  17.055 -2.3978  1.1234  1.2601
 1716TIP3   OH229342   7.503   0.132  19.337 -0.7018 -0.5058  0.1353
 1716TIP3    H129343   7.471   0.063  19.395  1.3666 -1.6173  0.0894
 1716TIP3    H229344   7.459   0.116  19.253 -0.9165 -1.2297  0.3803
 1717TIP3   OH229345   0.477   2.480  18.238 -1.2694  0.3700 -0.0694
 1717TIP3    H129346   0.469   2.492  18.144  0.0901  0.4433 -0.1998
 1717TIP3    H229347   0.483   2.386  18.251 -0.9530  0.3815 -0.1153
 1718TIP3   OH229348   7.425   1.060  18.318  0.7958  0.6449  0.3040
 1718TIP3    H129349   7.466   1.094  18.397  2.6737  1.9330 -1.1219
 1718TIP3    H229350   7.351   1.119  18.301  0.5684  0.5375  0.9047
 1719TIP3   OH229351   0.629   3.235  19.306  0.1717  0.1592 -0.7495
 1719TIP3    H129352   0.535   3.239  19.326  0.4790  0.9882  0.6325
 1719TIP3    H229353   0.635   3.264  19.215 -1.0462 -1.4376 -1.3902
 1720TIP3   OH229354   3.292   2.605  17.675 -0.1226  0.1862 -0.0829
 1720TIP3    H129355   3.229   2.666  17.637  1.5544  0.8645 -1.9495
 1720TIP3    H229356   3.309   2.640  17.763  1.2745  2.8873 -1.3214
 1721TIP3   OH229357   4.546   3.622  16.638  0.3937  0.1256  0.3510
 1721TIP3    H129358   4.519   3.555  16.574 -0.0709  1.2975 -0.7272
 1721TIP3    H229359   4.640   3.608  16.650  0.1897 -1.1433  0.6865
 1722TIP3   OH229360   7.300   4.504  18.826  0.2926  0.1661  0.0797
 1722TIP3    H129361   7.279   4.475  18.737  1.6674  2.6781 -1.1629
 1722TIP3    H229362   7.215   4.517  18.868 -0.3869 -2.8812 -0.1152
 1723TIP3   OH229363   5.182   2.628  18.526  0.7699 -0.3098  0.9973
 1723TIP3    H129364   5.139   2.710  18.504 -0.3013 -1.0220  0.2916
 1723TIP3    H229365   5.275   2.643  18.508  0.4286  0.3620 -0.3514
 1724TIP3   OH229366   4.805   4.239  18.456 -0.5318  0.1153 -0.0180
 1724TIP3    H129367   4.713   4.259  18.438 -0.8024 -0.5409  0.5693
 1724TIP3    H229368   4.808   4.223  18.551 -0.0780 -1.2025 -0.2319
 1725TIP3   OH229369   4.309   1.694  18.212  0.6870  0.4203 -0.2976
 1725TIP3    H129370   4.295   1.663  18.302 -1.6845  1.3885 -0.2621
 1725TIP3    H229371   4.340   1.783  18.222 -0.7709  0.9686 -0.3884
 1726TIP3   OH229372   2.686   2.333  19.351  0.0321  0.2364  0.7634
 1726TIP3    H129373   2.757   2.273  19.371  0.4678  1.2800  2.5530
 1726TIP3    H229374   2.708   2.414  19.398 -1.3890  1.2269 -0.1702
 1727TIP3   OH229375   3.317   7.670  19.053  0.1035  0.6658  0.2852
 1727TIP3    H129376   3.247   7.609  19.030  0.7776  0.6471 -1.8911
 1727TIP3    H229377   3.383   7.615  19.096  0.3507 -0.0369 -0.9399
 1728TIP3   OH229378   3.595   4.582  19.276 -0.4766 -0.0889  0.7779
 1728TIP3    H129379   3.525   4.629  19.321 -0.3296 -0.4039  1.3500
 1728TIP3    H229380   3.602   4.498  19.323 -0.1460 -0.3186  0.3282
 1729TIP3   OH229381   3.476   4.987  17.866 -0.4571 -0.0083 -0.3409
 1729TIP3    H129382   3.399   4.966  17.919 -1.3152  0.1631 -1.4709
 1729TIP3    H229383   3.514   4.901  17.845 -2.3578 -0.3913 -2.6344
 1730TIP3   OH229384   3.765   1.893  17.966  0.3229  0.3200 -0.1915
 1730TIP3    H129385   3.791   1.953  17.897 -1.2631  1.4235  0.1236
 1730TIP3    H229386   3.705   1.943  18.021  1.7530 -0.3973  2.1995
 1731TIP3   OH229387   5.700   6.252  17.026  0.2379 -0.3800 -0.2155
 1731TIP3    H129388   5.677   6.340  16.998  0.9448 -0.5948 -1.5412
 1731TIP3    H229389   5.793   6.243  17.004  0.7735 -0.7031  1.9064
 1732TIP3   OH229390   4.520   7.538  18.594 -0.0012  0.1495  0.9231
 1732TIP3    H129391   4.575   7.483  18.650 -0.8551 -1.8795 -0.1227
 1732TIP3    H229392   4.581   7.600  18.554  1.1521 -0.5328  1.5706
 1733TIP3   OH229393   2.957   1.705  18.147  0.0631 -0.3584  0.1069
 1733TIP3    H129394   2.884   1.738  18.200 -0.0947 -0.4174 -0.0763
 1733TIP3    H229395   2.916   1.650  18.081  0.2548 -0.2100 -0.1350
 1734TIP3   OH229396   3.066   6.561  17.223  0.1569 -0.2923 -0.1389
 1734TIP3    H129397   3.095   6.474  17.195 -0.1509 -0.0302 -1.3258
 1734TIP3    H229398   3.133   6.621  17.189 -0.8663  0.1538 -1.4160
 1735TIP3   OH229399   6.556   5.867  17.870  0.4091  0.2128  0.0669
 1735TIP3    H129400   6.530   5.922  17.796  1.2650 -2.4580 -2.3969
 1735TIP3    H229401   6.476   5.819  17.893 -0.1086  1.7088  1.6367
 1736TIP3   OH229402   7.610   1.613  17.786 -0.3084  0.0905 -0.0639
 1736TIP3    H129403   7.552   1.687  17.802  0.5517  0.4676  1.5729
 1736TIP3    H229404   7.614   1.606  17.690 -1.3523  1.3873 -0.2352
 1737TIP3   OH229405   1.725   4.552  17.282 -0.1704 -0.0285  0.2567
 1737TIP3    H129406   1.632   4.572  17.297 -0.1034  1.0477 -0.6882
 1737TIP3    H229407   1.756   4.521  17.367 -1.7372 -1.8308  0.2367
 1738TIP3   OH229408   1.913   4.133  17.954  1.0790  0.2647  0.1219
 1738TIP3    H129409   1.967   4.107  17.879  0.7599 -0.3893  0.1125
 1738TIP3    H229410   1.942   4.076  18.025 -1.6820 -2.4053 -0.6539
 1739TIP3   OH229411   0.570   0.760  17.607 -0.3368  0.6373 -0.0508
 1739TIP3    H129412   0.523   0.842  17.588 -0.5127  0.5346 -0.0675
 1739TIP3    H229413   0.653   0.769  17.560 -1.1022  0.0447 -1.5911
 1740TIP3   OH229414   4.345   0.319  17.639 -0.7939  0.0212 -0.0063
 1740TIP3    H129415   4.250   0.316  17.634 -0.8031  1.2609 -0.8387
 1740TIP3    H229416   4.369   0.407  17.609  0.6896 -0.6797 -1.0285
 1741TIP3   OH229417   2.278   4.291  17.303 -0.4636  0.0262  0.4657
 1741TIP3    H129418   2.240   4.281  17.216 -1.3271 -1.3482  0.9547
 1741TIP3    H229419   2.345   4.359  17.294  1.4691 -2.0196 -1.9268
 1742TIP3   OH229420   1.897   1.092  19.088  0.1060 -0.0041  0.3038
 1742TIP3    H129421   1.908   1.078  19.182  0.2762  2.5546  0.7369
 1742TIP3    H229422   1.942   1.018  19.047 -1.0168 -1.8525  2.2008
 1743TIP3   OH229423   6.397   0.514  17.460  0.2878 -0.2020  0.0981
 1743TIP3    H129424   6.485   0.478  17.468 -0.5413 -1.9611  2.5312
 1743TIP3    H229425   6.388   0.574  17.534 -0.7431 -0.4591  0.1947
 1744TIP3   OH229426   4.316   5.352  18.330 -0.0529  0.4802  0.2808
 1744TIP3    H129427   4.272   5.321  18.409 -1.6918  1.8694 -0.0302
 1744TIP3    H229428   4.260   5.322  18.258  0.6791  0.4191 -0.2717
 1745TIP3   OH229429   0.824   0.563  18.388  1.3757  0.0087 -0.4655
 1745TIP3    H129430   0.838   0.657  18.378 -1.7124  1.0595  2.8373
 1745TIP3    H229431   0.779   0.537  18.308 -0.6755  2.1861 -0.1292
 1746TIP3   OH229432   3.198   4.965  18.287 -0.0326  0.0060  0.3339
 1746TIP3    H129433   3.109   5.000  18.292 -0.3666 -0.7281 -0.2029
 1746TIP3    H229434   3.211   4.919  18.370 -0.5814 -0.8192 -0.0171
 1747TIP3   OH229435   4.730   5.821  17.238 -0.2061  0.6432 -0.4512
 1747TIP3    H129436   4.663   5.776  17.186  0.2890 -2.5857  1.4569
 1747TIP3    H229437   4.809   5.768  17.226  0.4099  0.8871  2.0541
 1748TIP3   OH229438   7.004   5.422  18.157  0.2013 -0.5881 -0.2829
 1748TIP3    H129439   6.970   5.465  18.235  1.2231 -1.1228  0.4852
 1748TIP3    H229440   6.932   5.425  18.094 -0.6986 -0.2950  0.7305
 1749TIP3   OH229441   3.313   5.865  19.117 -0.0025 -0.1919 -0.2594
 1749TIP3    H129442   3.350   5.844  19.202  0.5311 -2.0219 -0.8969
 1749TIP3    H229443   3.355   5.948  19.092  0.1428  0.1498  1.0466
 1750TIP3   OH229444   4.654   0.027  17.708 -1.0094 -0.6517  0.2206
 1750TIP3    H129445   4.684   0.118  17.714 -0.7284 -0.8104  1.7742
 1750TIP3    H229446   4.621   0.018  17.619 -0.2986  0.7425 -0.2122
 1751TIP3   OH229447   6.833   5.389  16.226  0.0817  0.0332  0.6252
 1751TIP3    H129448   6.798   5.314  16.177  0.0141  0.4085  0.0836
 1751TIP3    H229449   6.912   5.355  16.268  0.6773 -0.0669 -0.5228
 1752TIP3   OH229450   1.978   3.530  18.849  0.1468 -0.1464 -0.3458
 1752TIP3    H129451   1.984   3.436  18.831 -1.1755 -0.4185  0.4297
 1752TIP3    H229452   1.886   3.543  18.872 -0.0692  1.6615 -2.0693
 1753TIP3   OH229453   0.243   6.622  18.304  0.4042 -0.3690  0.0279
 1753TIP3    H129454   0.164   6.668  18.334 -0.8867 -1.2081 -1.8778
 1753TIP3    H229455   0.210   6.552  18.248  2.3812 -2.5996  1.4770
 1754TIP3   OH229456   0.390   2.980  19.115  0.2552  0.1235 -1.1442
 1754TIP3    H129457   0.434   2.952  19.195 -2.1952  1.3216  0.7487
 1754TIP3    H229458   0.456   2.969  19.046  3.0477  0.6618  1.2627
 1755TIP3   OH229459   2.498   7.627  17.857 -0.6610 -0.3333 -0.1759
 1755TIP3    H129460   2.472   7.650  17.768 -1.3016 -1.5995 -0.3378
 1755TIP3    H229461   2.592   7.609  17.849 -0.7447 -0.6017 -0.6331
 1756TIP3   OH229462   2.963   6.442  18.723 -0.2920 -0.2850 -0.0274
 1756TIP3    H129463   3.011   6.378  18.775 -0.7159  0.1045  0.8497
 1756TIP3    H229464   3.020   6.519  18.720 -0.4137 -0.1888  0.1385
 1757TIP3   OH229465   7.301   6.641  17.848  0.0083  0.3193  0.4380
 1757TIP3    H129466   7.217   6.616  17.809  0.2424  0.1889  0.0059
 1757TIP3    H229467   7.278   6.701  17.919 -0.4417  0.3477  0.2703
 1758TIP3   OH229468   6.853   6.422  17.462 -0.2638  0.4274  0.2605
 1758TIP3    H129469   6.802   6.341  17.466 -0.8080  0.5897 -1.9883
 1758TIP3    H229470   6.871   6.434  17.369 -0.5769  3.1203  0.4666
 1759TIP3   OH229471   7.378   1.129  17.563 -0.0209 -0.1808 -0.1937
 1759TIP3    H129472   7.304   1.106  17.619 -0.1016  1.6668  0.5417
 1759TIP3    H229473   7.380   1.225  17.565  2.5022 -0.1638 -0.0364
 1760TIP3   OH229474   5.560   6.007  18.232 -0.1475  0.0977  0.9456
 1760TIP3    H129475   5.653   6.008  18.211  0.1813  0.3667  2.3365
 1760TIP3    H229476   5.551   6.070  18.304 -1.8322  1.9972 -0.8108
 1761TIP3   OH229477   5.845   1.018  19.497 -0.1134  0.4280 -0.0256
 1761TIP3    H129478   5.785   1.076  19.450 -1.1178  0.6103  1.3957
 1761TIP3    H229479   5.790   0.973  19.561  1.1469  0.1149  0.8949
 1762TIP3   OH229480   3.731   1.613  17.874 -0.1675 -0.0844 -0.4180
 1762TIP3    H129481   3.716   1.706  17.893 -1.7275 -0.3579 -0.1733
 1762TIP3    H229482   3.823   1.599  17.893 -0.3145  1.0141  1.3038
 1763TIP3   OH229483   1.096   3.829  17.219  0.5157 -0.6192  1.1014
 1763TIP3    H129484   1.037   3.834  17.143  0.9325 -0.7236  0.7630
 1763TIP3    H229485   1.093   3.738  17.247  0.4283 -0.5996  1.1557
 1764TIP3   OH229486   1.266   5.767  17.535  0.0598  0.4090  0.0249
 1764TIP3    H129487   1.238   5.835  17.475  1.7871  0.9930 -0.1681
 1764TIP3    H229488   1.324   5.710  17.483 -0.9992 -0.9712  0.2923
 1765TIP3   OH229489   4.235   2.360  17.377 -0.1900  0.4133  0.3117
 1765TIP3    H129490   4.287   2.387  17.301 -0.5679  0.2821 -0.0002
 1765TIP3    H229491   4.293   2.304  17.428 -0.6600 -1.4538 -1.1012
 1766TIP3   OH229492   5.116   6.545  19.292 -0.0455  0.1016  0.3509
 1766TIP3    H129493   5.074   6.631  19.301  1.4365  0.7241  2.0818
 1766TIP3    H229494   5.186   6.559  19.228  0.3876  0.2887  0.8560
 1767TIP3   OH229495   3.717   0.160  16.709  0.1986 -0.4595 -0.9083
 1767TIP3    H129496   3.628   0.128  16.698 -0.4484  0.4711  1.0600
 1767TIP3    H229497   3.765   0.087  16.748  0.2960 -0.9322 -1.8893
 1768TIP3   OH229498   5.397   1.612  18.393 -0.2541  0.1023 -0.3654
 1768TIP3    H129499   5.381   1.705  18.408 -4.1701 -0.3906 -0.5746
 1768TIP3    H229500   5.354   1.568  18.466 -0.4539 -1.6314 -1.4690
 1769TIP3   OH229501   3.328   2.151  18.086  0.1223  0.3549 -0.3991
 1769TIP3    H129502   3.272   2.074  18.088  0.2055  0.3075  0.1100
 1769TIP3    H229503   3.294   2.204  18.014  0.3401 -0.3653 -1.0485
 1770TIP3   OH229504   5.301   6.753  19.139  0.1842 -0.2424  0.3087
 1770TIP3    H129505   5.355   6.821  19.180  0.1617  0.1177 -0.2371
 1770TIP3    H229506   5.262   6.797  19.063  0.1660 -0.8707 -0.0530
 1771TIP3   OH229507   0.064   2.587  19.471  0.2218  0.0088 -0.4222
 1771TIP3    H129508   0.089   2.646  19.543 -0.7122  1.1649 -1.0227
 1771TIP3    H229509   0.092   2.633  19.392 -1.1713  0.0037 -0.9387
 1772TIP3   OH229510   1.870   1.821  19.011  0.5532 -0.6860  0.1918
 1772TIP3    H129511   1.935   1.887  19.034 -1.1617  0.4150  2.2138
 1772TIP3    H229512   1.838   1.787  19.095 -4.1553  1.5806 -0.3194
 1773TIP3   OH229513   1.369   5.389  19.516 -0.3106  0.2010 -0.5254
 1773TIP3    H129514   1.289   5.411  19.563  0.9423 -0.4182  2.0987
 1773TIP3    H229515   1.358   5.298  19.489  0.4106 -0.7770  2.1455
 1774TIP3   OH229516   6.098   4.400  17.670  0.3379  0.4889  0.1900
 1774TIP3    H129517   6.149   4.435  17.597  0.0119  0.8373  0.1320
 1774TIP3    H229518   6.163   4.356  17.725  0.4654 -0.6012 -0.7853
 1775TIP3   OH229519   7.151   6.160  18.113  0.3304  0.2012  0.1092
 1775TIP3    H129520   7.133   6.253  18.099  0.5055  0.2117 -0.0589
 1775TIP3    H229521   7.201   6.158  18.195  1.1743  0.3548 -0.3911
 1776TIP3   OH229522   3.767   4.448  17.687 -0.3914 -0.1141 -0.3370
 1776TIP3    H129523   3.833   4.516  17.700  0.5456 -0.4899 -2.6417
 1776TIP3    H229524   3.717   4.478  17.612 -1.8773 -0.5998  0.4272
 1777TIP3   OH229525   4.772   6.080  16.418 -0.8336 -0.4118 -0.3166
 1777TIP3    H129526   4.829   6.129  16.360 -0.4567  0.3667  0.6782
 1777TIP3    H229527   4.759   5.996  16.375 -0.6225  0.1690 -1.5407
 1778TIP3   OH229528   7.019   5.089  18.693  0.0826  0.0227 -0.3866
 1778TIP3    H129529   6.954   5.020  18.705 -0.4466  0.3410 -1.3181
 1778TIP3    H229530   7.006   5.148  18.768  0.2482 -0.6520  0.1791
 1779TIP3   OH229531   4.147   0.230  18.109  0.2147 -0.0076  0.7650
 1779TIP3    H129532   4.081   0.288  18.071 -0.5394 -0.4872  1.3130
 1779TIP3    H229533   4.097   0.164  18.156  1.0139 -1.7517 -0.7012
 1780TIP3   OH229534   4.429   4.536  19.343 -0.2026  0.4108 -0.4200
 1780TIP3    H129535   4.427   4.574  19.255 -0.1359 -1.9707 -1.5332
 1780TIP3    H229536   4.522   4.521  19.360 -0.3476 -1.4360 -1.0616
 1781TIP3   OH229537   2.440   7.232  18.594  0.6678  0.2794  0.1791
 1781TIP3    H129538   2.366   7.196  18.545  0.0093 -1.3515  2.2377
 1781TIP3    H229539   2.449   7.174  18.670  3.3483  1.1104  0.5972
 1782TIP3   OH229540   1.301   3.530  18.355  0.2642  0.9845  0.0145
 1782TIP3    H129541   1.273   3.463  18.292  1.2682 -0.6165  1.2077
 1782TIP3    H229542   1.300   3.485  18.440  2.5874  1.9783  0.6232
 1783TIP3   OH229543   3.524   7.562  19.198 -0.0137  0.6206  0.8011
 1783TIP3    H129544   3.572   7.605  19.127 -2.5256  0.9799 -0.8003
 1783TIP3    H229545   3.586   7.500  19.235  1.7344  1.2048 -0.9822
 1784TIP3   OH229546   5.375   3.553  16.550 -0.4214 -0.3072  0.6328
 1784TIP3    H129547   5.331   3.585  16.472 -1.2354 -0.1061  1.1545
 1784TIP3    H229548   5.342   3.463  16.561  1.0901 -1.0149 -0.2665
 1785TIP3   OH229549   4.268   3.461  19.595  0.6559 -0.0651 -0.3883
 1785TIP3    H129550   4.294   3.524  19.528  1.7850  1.3777  1.3008
 1785TIP3    H229551   4.351   3.426  19.628  0.0694 -1.8589 -0.7187
 1786TIP3   OH229552   3.066   2.589  19.117 -0.1059  0.3399 -0.5300
 1786TIP3    H129553   3.036   2.550  19.034  0.9780 -1.7495 -0.0136
 1786TIP3    H229554   3.006   2.662  19.132 -2.1063 -0.9488 -1.7492
 1787TIP3   OH229555   3.099   6.362  18.364 -0.0703 -0.2714  0.0296
 1787TIP3    H129556   3.027   6.403  18.413  1.3298  1.1998  0.9356
 1787TIP3    H229557   3.071   6.271  18.354 -2.8330  0.5937 -1.1664
 1788TIP3   OH229558   4.984   3.016  17.731 -0.1204 -0.0765  0.1974
 1788TIP3    H129559   5.051   3.002  17.798  1.5211  2.7631 -0.6646
 1788TIP3    H229560   4.905   2.976  17.768  1.3580 -1.0698  2.5463
 1789TIP3   OH229561   1.107   4.877  19.279 -0.0444 -0.0786  0.4551
 1789TIP3    H129562   1.157   4.945  19.232  0.0792  1.0092  2.0561
 1789TIP3    H229563   1.017   4.890  19.251 -0.0913  1.0821  1.0663
 1790TIP3   OH229564   0.345   3.587  19.713 -0.5335 -0.3483 -0.1950
 1790TIP3    H129565   0.318   3.575  19.622  1.1364 -0.1424 -0.7478
 1790TIP3    H229566   0.380   3.502  19.739  0.9426  0.1632 -0.4516
 1791TIP3   OH229567   3.183   3.230  19.564 -0.5390 -0.3773 -0.3789
 1791TIP3    H129568   3.095   3.259  19.537 -0.5929  0.6112  0.8147
 1791TIP3    H229569   3.236   3.310  19.565  0.0664 -0.7771  0.0998
 1792TIP3   OH229570   1.815   1.458  17.929  0.2679 -0.6724 -0.5796
 1792TIP3    H129571   1.847   1.500  18.009 -2.0257  2.3718 -1.0531
 1792TIP3    H229572   1.804   1.530  17.867  0.2789 -2.6843 -3.0965
 1793TIP3   OH229573   4.362   6.016  18.562  0.3541  0.4069 -0.3448
 1793TIP3    H129574   4.343   6.051  18.648 -0.4389  0.1495 -0.4114
 1793TIP3    H229575   4.344   6.088  18.501  0.2139  0.3606 -0.3568
 1794TIP3   OH229576   6.077   7.457  16.935  0.0574 -0.3533  0.5758
 1794TIP3    H129577   6.089   7.443  16.841  0.1113 -1.5468  0.7393
 1794TIP3    H229578   6.001   7.404  16.958  1.0729 -1.4696  1.5060
 1795TIP3   OH229579   0.078   3.171  19.264  0.5430 -0.3677  0.3445
 1795TIP3    H129580   0.045   3.231  19.331 -2.0935 -1.1149 -0.1581
 1795TIP3    H229581   0.121   3.101  19.314  0.3880  0.0876  1.1350
 1796TIP3   OH229582   2.194   2.724  18.976  0.1882 -0.0186 -0.3797
 1796TIP3    H129583   2.285   2.750  18.989  0.3896  0.1394 -1.8958
 1796TIP3    H229584   2.169   2.680  19.057  1.4305  0.4416  0.2708
 1797TIP3   OH229585   4.361   3.616  17.680 -0.5100  0.1490 -0.9150
 1797TIP3    H129586   4.391   3.639  17.592  2.0692 -0.8374 -0.3770
 1797TIP3    H229587   4.344   3.522  17.676 -1.2317  0.2626 -0.5767
 1798TIP3   OH229588   7.432   5.470  19.380  0.0576  0.3975  0.4461
 1798TIP3    H129589   7.518   5.506  19.362 -0.4099  1.2857 -0.1042
 1798TIP3    H229590   7.377   5.502  19.308 -0.1723 -2.3401 -0.7465
 1799TIP3   OH229591   4.328   3.781  17.882  0.3195  0.5341 -0.1304
 1799TIP3    H129592   4.380   3.728  17.822  0.5420  1.5822 -0.8940
 1799TIP3    H229593   4.239   3.747  17.873  0.4112  0.4650 -0.8190
 1800TIP3   OH229594   4.940   2.317  16.732 -0.1089 -0.2014  0.3407
 1800TIP3    H129595   4.976   2.400  16.701 -0.7410 -0.4947 -1.2961
 1800TIP3    H229596   4.989   2.298  16.812  1.1317  0.9709 -0.0913
 1801TIP3   OH229597   4.760   2.207  17.337 -0.0500  0.2935  0.3650
 1801TIP3    H129598   4.800   2.143  17.396 -1.3476 -0.1178  0.8264
 1801TIP3    H229599   4.804   2.193  17.253  0.5937 -0.3033  0.7954
 1802TIP3   OH229600   0.710   2.617  18.902 -0.2147 -0.0407  0.4376
 1802TIP3    H129601   0.671   2.626  18.989 -1.2475 -1.7429  0.1837
 1802TIP3    H229602   0.796   2.578  18.919 -0.0727  0.3782  0.7263
 1803TIP3   OH229603   3.653   6.506  17.965 -0.1672 -0.5304  0.3880
 1803TIP3    H129604   3.678   6.538  17.878 -0.3418 -1.1572  0.0990
 1803TIP3    H229605   3.735   6.477  18.005 -0.3315 -2.2814 -0.4338
 1804TIP3   OH229606   3.424   4.692  17.545 -0.5013 -0.3837  0.1583
 1804TIP3    H129607   3.370   4.625  17.586 -0.8964  0.0086  0.2919
 1804TIP3    H229608   3.372   4.723  17.470 -0.0678 -0.6378 -0.2541
 1805TIP3   OH229609   0.714   7.210  19.245  0.3526  0.6165 -0.3303
 1805TIP3    H129610   0.696   7.292  19.290 -1.3677  0.9382 -1.5172
 1805TIP3    H229611   0.662   7.144  19.291  1.4009  0.2416  0.3575
 1806TIP3   OH229612   3.338   4.924  18.776  0.8215 -0.5850 -0.2373
 1806TIP3    H129613   3.395   4.979  18.722  0.4068  0.9828  0.8206
 1806TIP3    H229614   3.386   4.843  18.789  1.5532 -0.4188 -1.7004
 1807TIP3   OH229615   6.931   5.005  18.056 -0.1434  0.0642 -0.3827
 1807TIP3    H129616   6.963   4.915  18.059  1.6517  0.6857  1.3317
 1807TIP3    H229617   7.009   5.058  18.039 -1.1342  1.3115 -1.1815
 1808TIP3   OH229618   6.680   1.363  16.451  0.0696 -0.5247 -0.0536
 1808TIP3    H129619   6.660   1.400  16.365 -1.5062 -1.6041 -0.1968
 1808TIP3    H229620   6.760   1.407  16.478 -1.3098  2.5044 -0.4781
 1809TIP3   OH229621   2.944   0.727  16.480 -0.2451 -0.0065  0.1215
 1809TIP3    H129622   2.857   0.731  16.519 -0.5329 -0.1889 -0.4828
 1809TIP3    H229623   2.959   0.633  16.465  0.0476  0.0259  0.2078
 1810TIP3   OH229624   3.750   3.876  17.351 -0.1421 -0.3861 -0.1075
 1810TIP3    H129625   3.748   3.781  17.366 -0.2056 -0.3610  0.0449
 1810TIP3    H229626   3.658   3.902  17.353 -0.1051 -0.2774  0.1269
 1811TIP3   OH229627   4.864   0.196  19.185 -0.0816 -0.2969 -0.8059
 1811TIP3    H129628   4.838   0.207  19.094  1.2924 -1.1486 -1.3205
 1811TIP3    H229629   4.842   0.279  19.226 -1.5184 -0.1963 -1.6941
 1812TIP3   OH229630   1.634   3.360  18.944 -0.1388  0.2661 -0.0500
 1812TIP3    H129631   1.542   3.347  18.969  0.1872  0.1406  1.1802
 1812TIP3    H229632   1.655   3.283  18.890 -1.1614  1.0498 -1.6470
 1813TIP3   OH229633   0.441   3.026  19.599  0.2649  0.7351 -0.2530
 1813TIP3    H129634   0.510   3.014  19.534  0.4535 -0.4224  0.1548
 1813TIP3    H229635   0.440   2.945  19.649 -1.2419  0.8155 -0.1045
 1814TIP3   OH229636   4.225   6.170  17.316  0.6243 -0.4221  0.6264
 1814TIP3    H129637   4.261   6.222  17.387  0.5615  0.0317  0.3354
 1814TIP3    H229638   4.291   6.103  17.299  0.7208 -0.4200  0.9868
 1815TIP3   OH229639   7.297   6.789  19.265 -0.2687 -0.0649 -0.1316
 1815TIP3    H129640   7.211   6.754  19.285 -0.0540 -0.7025 -0.2953
 1815TIP3    H229641   7.317   6.848  19.338 -1.0625  0.5000 -0.3666
 1816TIP3   OH229642   4.581   0.720  18.939  0.2074 -0.2082  0.0979
 1816TIP3    H129643   4.541   0.801  18.906 -1.2755 -1.4764 -1.3778
 1816TIP3    H229644   4.524   0.650  18.907  1.1119 -1.8351  1.8169
 1817TIP3   OH229645   4.367   6.870  18.240 -0.0438 -0.2383 -0.2697
 1817TIP3    H129646   4.275   6.869  18.266 -0.0401 -0.4588 -0.2656
 1817TIP3    H229647   4.415   6.862  18.322  0.0483  2.5997  0.0686
 1818TIP3   OH229648   2.276   7.520  18.740 -0.5077  0.1358 -0.4549
 1818TIP3    H129649   2.230   7.446  18.701  1.6677 -1.1514 -0.7321
 1818TIP3    H229650   2.282   7.585  18.670 -0.8510 -0.1725 -0.7707
 1819TIP3   OH229651   5.507   5.796  18.404 -0.2989  0.1276  0.0935
 1819TIP3    H129652   5.465   5.715  18.375 -0.4053  0.2833 -0.1940
 1819TIP3    H229653   5.514   5.849  18.325  0.8888 -0.0801  0.0457
 1820TIP3   OH229654   2.095   4.003  19.281 -0.0530 -0.4054 -0.0961
 1820TIP3    H129655   2.136   4.082  19.247  2.4348 -1.1432  0.9523
 1820TIP3    H229656   2.066   3.955  19.204  0.7889  0.3411 -0.8944
 1821TIP3   OH229657   1.050   5.984  17.439 -0.1970  0.0099  0.5566
 1821TIP3    H129658   1.004   5.902  17.455  0.4169 -0.3002  0.7696
 1821TIP3    H229659   1.072   5.981  17.346  1.5298 -0.9834  0.9544
 1822TIP3   OH229660   5.756   3.442  17.382  0.5691  0.2642  0.5245
 1822TIP3    H129661   5.669   3.479  17.394  0.8629  0.4761  2.2330
 1822TIP3    H229662   5.808   3.514  17.347  0.1280  0.2033 -0.2738
 1823TIP3   OH229663   1.272   1.288  17.799  0.0224  0.6406  0.2294
 1823TIP3    H129664   1.244   1.293  17.707 -0.2239  3.9571  0.3693
 1823TIP3    H229665   1.367   1.300  17.796 -0.2370  3.2744  0.4462
 1824TIP3   OH229666   3.230   6.238  17.423 -0.0422 -0.0085 -0.0482
 1824TIP3    H129667   3.248   6.320  17.376 -2.6947 -0.4764 -2.1264
 1824TIP3    H229668   3.232   6.263  17.515  1.6779  1.8089 -0.5104
 1825TIP3   OH229669   2.169   3.575  18.653 -0.0926  0.4143  0.4509
 1825TIP3    H129670   2.261   3.557  18.671 -0.1419  0.6731  0.9925
 1825TIP3    H229671   2.127   3.572  18.739 -0.5878  0.2987  0.2067
 1826TIP3   OH229672   2.767   1.504  18.031  0.1216  0.2657 -0.1522
 1826TIP3    H129673   2.704   1.519  17.961 -0.3418  0.1646  0.2409
 1826TIP3    H229674   2.774   1.409  18.038 -0.8403  0.2478  0.8221
 1827TIP3   OH229675   1.518   5.624  19.109 -0.6588  0.2328  0.2324
 1827TIP3    H129676   1.577   5.700  19.106  0.0441 -0.2995  0.2629
 1827TIP3    H229677   1.511   5.602  19.202 -1.6217  0.8255  0.3133
 1828TIP3   OH229678   1.725   2.247  16.934  0.5291  0.0746  0.0173
 1828TIP3    H129679   1.780   2.202  16.870  1.0012  0.7477 -0.0576
 1828TIP3    H229680   1.774   2.243  17.016 -0.1089 -0.8521  0.3672
 1829TIP3   OH229681   2.057   1.114  18.489  0.6674 -0.2951 -0.1711
 1829TIP3    H129682   2.069   1.021  18.506  1.5540  0.1495  2.0012
 1829TIP3    H229683   1.987   1.140  18.548  0.2032  0.3619 -0.9958
 1830TIP3   OH229684   3.061   5.783  19.080 -0.0331  0.4992 -0.1199
 1830TIP3    H129685   3.144   5.824  19.107 -0.8461  1.4866  1.0236
 1830TIP3    H229686   3.012   5.773  19.162 -1.0632 -0.0311 -0.7832
 1831TIP3   OH229687   3.344   1.843  18.882 -0.2818 -0.3712  0.4714
 1831TIP3    H129688   3.294   1.792  18.945 -0.7014 -1.8821 -1.0281
 1831TIP3    H229689   3.417   1.879  18.933 -2.0536  0.7135  2.3778
 1832TIP3   OH229690   7.380   6.131  19.543 -0.4108  0.1941  0.4505
 1832TIP3    H129691   7.308   6.089  19.496  0.9260 -0.6032 -1.0197
 1832TIP3    H229692   7.430   6.058  19.579  0.7029  0.6102 -0.1998
 1833TIP3   OH229693   1.714   5.397  17.212  0.0113 -0.3089  0.0460
 1833TIP3    H129694   1.722   5.483  17.251  0.3388 -0.8338  1.1690
 1833TIP3    H229695   1.785   5.393  17.147 -1.1825  0.9506 -1.4129
 1834TIP3   OH229696   4.057   6.680  19.344  0.4487  0.1072 -0.2036
 1834TIP3    H129697   4.019   6.738  19.410 -0.2002  0.4427 -0.8642
 1834TIP3    H229698   3.997   6.605  19.342  0.8380 -0.2183  0.0581
 1835TIP3   OH229699   5.773   1.898  17.688 -0.8396  0.6226 -0.5211
 1835TIP3    H129700   5.864   1.867  17.683 -1.4512 -1.5767  0.7268
 1835TIP3    H229701   5.740   1.888  17.599 -0.0894  0.7372 -0.8250
 1836TIP3   OH229702   6.931   7.218  17.494  0.3433 -0.4637 -0.4622
 1836TIP3    H129703   6.923   7.295  17.551  2.1577 -0.7425  0.2470
 1836TIP3    H229704   6.867   7.233  17.425  0.5943  1.6815 -0.3182
 1837TIP3   OH229705   6.335   1.393  18.429  0.0882 -0.1936  0.0261
 1837TIP3    H129706   6.266   1.452  18.460  0.6912  0.7677 -0.4133
 1837TIP3    H229707   6.352   1.334  18.503 -1.3751 -0.6188  0.0473
 1838TIP3   OH229708   1.794   2.752  19.382 -0.1397  0.3890 -0.2763
 1838TIP3    H129709   1.789   2.841  19.415 -0.7587  0.6128 -0.9532
 1838TIP3    H229710   1.887   2.737  19.366 -0.0705  1.0309 -0.4728
 1839TIP3   OH229711   3.728   5.930  18.363  0.1142  0.4823  0.5614
 1839TIP3    H129712   3.791   5.939  18.291 -0.9800  1.6880 -0.2924
 1839TIP3    H229713   3.724   5.836  18.380  1.6929  0.3328  0.2436
 1840TIP3   OH229714   1.214   0.887  18.843  0.5681  0.4570 -0.2892
 1840TIP3    H129715   1.258   0.916  18.764  0.7822  0.3320 -0.2171
 1840TIP3    H229716   1.285   0.877  18.908  0.0472  4.0474  1.0229
 1841TIP3   OH229717   1.673   2.539  17.530  0.3292 -0.4361  0.0232
 1841TIP3    H129718   1.587   2.497  17.519  0.0801 -0.2147  0.9662
 1841TIP3    H229719   1.652   2.631  17.549  0.8173 -0.1772 -0.6660
 1842TIP3   OH229720   3.988   4.684  17.871  0.1305  0.3336 -0.1536
 1842TIP3    H129721   4.021   4.595  17.856  0.9436  0.6318 -0.1568
 1842TIP3    H229722   4.043   4.719  17.940 -1.0442  0.3831  0.7824
 1843TIP3   OH229723   7.129   7.305  18.966 -0.2453  0.4203  0.4190
 1843TIP3    H129724   7.040   7.274  18.983 -0.9131  0.9354 -1.7958
 1843TIP3    H229725   7.179   7.226  18.947 -0.9522  0.3218 -1.1671
 1844TIP3   OH229726   5.999   4.068  17.675  0.0916 -0.0978 -0.2723
 1844TIP3    H129727   6.082   4.075  17.721 -0.4970  1.6699  0.6512
 1844TIP3    H229728   5.933   4.070  17.744 -0.7514  0.0482 -1.0545
 1845TIP3   OH229729   0.017   3.346  17.970 -0.4279  0.4474 -0.1299
 1845TIP3    H129730  -0.036   3.409  18.019 -0.4150 -0.3106  0.8864
 1845TIP3    H229731   0.103   3.351  18.011 -0.3298  0.0347 -0.2871
 1846TIP3   OH229732   0.694   2.631  19.499 -0.2571 -0.7520 -0.3528
 1846TIP3    H129733   0.759   2.568  19.529 -0.8038 -1.5236 -0.7475
 1846TIP3    H229734   0.734   2.672  19.422  0.1149 -0.5991 -0.0766
 1847TIP3   OH229735   1.859   5.963  18.286  0.0749 -0.0497 -0.0472
 1847TIP3    H129736   1.784   5.941  18.230  0.3899 -2.2745  0.3007
 1847TIP3    H229737   1.859   5.895  18.353  3.3701 -1.1690 -0.9844
 1848TIP3   OH229738   4.773   3.933  17.578 -0.8977  0.0959  0.3231
 1848TIP3    H129739   4.702   3.947  17.641  0.5446  0.4814  1.9397
 1848TIP3    H229740   4.846   3.984  17.613  0.1186 -0.0983 -1.4108
 1849TIP3   OH229741   1.637   2.785  17.212 -0.0518  0.0562  0.0529
 1849TIP3    H129742   1.637   2.691  17.198  0.5891  0.0844 -0.1755
 1849TIP3    H229743   1.710   2.817  17.160 -0.3955  0.7075 -0.0468
 1850TIP3   OH229744   1.880   3.208  17.154  0.0978  0.5908 -0.3187
 1850TIP3    H129745   1.860   3.186  17.063  0.2549 -0.2316 -0.1542
 1850TIP3    H229746   1.803   3.256  17.184  0.8026  2.5489 -1.4359
 1851TIP3   OH229747   4.765   5.574  17.724  0.7917  0.1474  0.3946
 1851TIP3    H129748   4.743   5.640  17.658  1.7878  0.4632  0.3780
 1851TIP3    H229749   4.771   5.492  17.674  0.5644  0.2112  0.2594
 1852TIP3   OH229750   4.493   6.281  17.028 -0.2716  0.8226 -0.3225
 1852TIP3    H129751   4.582   6.312  17.043 -0.0136 -1.1859  4.1040
 1852TIP3    H229752   4.440   6.327  17.094 -1.8164 -0.4901 -0.5753
 1853TIP3   OH229753   3.277   3.861  19.272  0.4131 -0.0971 -0.1618
 1853TIP3    H129754   3.265   3.800  19.199 -1.4895  0.3694 -0.2963
 1853TIP3    H229755   3.193   3.859  19.318  0.7153  1.5467  0.5160
 1854TIP3   OH229756   0.134   1.403  18.747 -0.1602  0.5525  0.4607
 1854TIP3    H129757   0.225   1.382  18.725 -0.2038  0.6399  0.1972
 1854TIP3    H229758   0.106   1.331  18.804  0.3733  1.0063  1.3312
 1855TIP3   OH229759   4.209   1.900  17.670 -0.3815  0.3034  0.0916
 1855TIP3    H129760   4.234   1.861  17.753 -2.4172 -0.1738  0.5115
 1855TIP3    H229761   4.221   1.830  17.606 -2.1497 -0.4779  0.5511
 1856TIP3   OH229762   0.642   7.482  18.269 -0.3475  0.2602 -0.3196
 1856TIP3    H129763   0.653   7.545  18.340  1.5184  0.0457 -0.3814
 1856TIP3    H229764   0.706   7.507  18.203 -0.4776 -0.9083 -0.9298
 1857TIP3   OH229765   7.563   4.483  19.371  0.1985  0.1175 -0.3581
 1857TIP3    H129766   7.479   4.495  19.327  0.1247 -2.5656 -1.1795
 1857TIP3    H229767   7.622   4.454  19.301  0.4868 -2.7881  0.9341
 1858TIP3   OH229768   2.513   4.502  18.136 -0.1668  0.3787 -0.1640
 1858TIP3    H129769   2.432   4.491  18.185 -0.0264 -0.9121 -0.1767
 1858TIP3    H229770   2.565   4.563  18.188 -0.6035  0.1595  0.5379
 1859TIP3   OH229771   4.017   2.498  17.487  0.1185  0.4529 -0.1649
 1859TIP3    H129772   4.089   2.445  17.454  0.9329  0.6402  1.2152
 1859TIP3    H229773   3.960   2.436  17.533 -0.0484  0.4570 -0.3667
 1860TIP3   OH229774   7.253   4.484  18.531  0.0864 -0.6904  0.1180
 1860TIP3    H129775   7.253   4.574  18.498 -0.6337  0.1461  2.2387
 1860TIP3    H229776   7.160   4.459  18.531  0.3852 -2.0441 -1.8603
 1861TIP3   OH229777   7.219   1.998  19.636 -0.5408  0.4220  0.2781
 1861TIP3    H129778   7.237   1.975  19.545 -1.0192 -0.9370  0.5012
 1861TIP3    H229779   7.264   2.082  19.649 -0.5360  0.6829 -1.2190
 1862TIP3   OH229780   0.475   4.826  18.298 -0.1736  0.6042  0.3751
 1862TIP3    H129781   0.527   4.873  18.363 -0.4541  0.7812  0.4739
 1862TIP3    H229782   0.384   4.835  18.328 -0.2782  0.4482  0.1120
 1863TIP3   OH229783   3.468   3.432  19.272  0.4255  0.5713 -0.2736
 1863TIP3    H129784   3.498   3.522  19.279  0.2761  0.5067  1.8740
 1863TIP3    H229785   3.379   3.439  19.237  0.5878  1.2128 -0.5633
 1864TIP3   OH229786   2.501   7.162  16.996  0.1330 -0.3812  0.0187
 1864TIP3    H129787   2.548   7.082  17.020  1.4222  0.5285  0.6391
 1864TIP3    H229788   2.479   7.150  16.903  0.9466 -1.1467 -0.0897
 1865TIP3   OH229789   6.559   3.651  17.008  0.2771  0.0766 -0.2108
 1865TIP3    H129790   6.602   3.692  17.083 -0.3413 -0.0826  0.2397
 1865TIP3    H229791   6.563   3.718  16.939  2.7097 -0.5123 -0.7571
 1866TIP3   OH229792   1.300  -0.008  16.959  0.3865 -0.5470 -0.3964
 1866TIP3    H129793   1.312  -0.082  17.018  0.2951  0.1146  0.4581
 1866TIP3    H229794   1.296   0.069  17.016  2.8066  0.4180 -1.3802
 1867TIP3   OH229795   5.945   6.586  16.935 -0.9414 -0.0809  0.0619
 1867TIP3    H129796   6.002   6.510  16.924 -0.2062  0.6122 -1.0201
 1867TIP3    H229797   5.858   6.548  16.949 -0.4966 -1.1216  0.1176
 1868TIP3   OH229798   3.521   5.025  19.128 -0.0237 -0.6211  0.5123
 1868TIP3    H129799   3.542   4.938  19.096  0.2659 -1.3129  2.4679
 1868TIP3    H229800   3.531   5.019  19.222  2.6310  2.2524  0.5459
 1869TIP3   OH229801   2.263   3.668  19.018  0.0062  0.1108  0.3675
 1869TIP3    H129802   2.233   3.587  19.060 -1.2256  0.2018 -0.2717
 1869TIP3    H229803   2.193   3.731  19.035  1.2245  1.2460  1.3669
 1870TIP3   OH229804   0.742   3.916  17.211  0.1082  0.4395 -0.2861
 1870TIP3    H129805   0.797   3.861  17.155  0.5402  1.1535 -0.5709
 1870TIP3    H229806   0.653   3.902  17.178  0.3607  0.8813 -1.1881
 1871TIP3   OH229807   6.796   3.674  18.276 -0.3826 -0.2065 -0.3534
 1871TIP3    H129808   6.740   3.708  18.346  0.2543 -0.5337  0.3228
 1871TIP3    H229809   6.789   3.739  18.206 -1.1666  0.0339 -0.0607
 1872TIP3   OH229810   0.458   5.768  16.931  0.1178 -0.0729 -0.1433
 1872TIP3    H129811   0.432   5.699  16.992  0.1992 -0.0704 -0.1061
 1872TIP3    H229812   0.553   5.765  16.931  0.1393 -2.0918 -2.5711
 1873TIP3   OH229813   5.885   2.114  18.525 -0.2078 -0.0635 -0.8516
 1873TIP3    H129814   5.858   2.081  18.439 -1.2270 -1.0919 -0.1498
 1873TIP3    H229815   5.925   2.199  18.505  0.0356 -0.4944 -2.3940
 1874TIP3   OH229816   6.154   6.055  18.377  0.1631 -0.2657  0.5180
 1874TIP3    H129817   6.238   6.102  18.377  0.1159 -0.1813  0.9321
 1874TIP3    H229818   6.116   6.076  18.292 -0.0167  0.7471  0.8332
 1875TIP3   OH229819   1.131   5.336  18.448  0.4952 -0.4737 -0.0664
 1875TIP3    H129820   1.174   5.381  18.521 -0.2148  1.1415 -0.5876
 1875TIP3    H229821   1.039   5.359  18.457  0.5559  0.9907 -2.2248
 1876TIP3   OH229822   3.284   3.497  17.433  0.2532 -0.6261 -0.0442
 1876TIP3    H129823   3.284   3.421  17.490  0.1437 -0.4693  0.1675
 1876TIP3    H229824   3.315   3.569  17.489 -0.4693 -0.3407  0.0042
 1877TIP3   OH229825   2.119   3.279  17.283  0.1267  0.1889  0.4881
 1877TIP3    H129826   2.188   3.228  17.241  0.7802  0.3954  1.3074
 1877TIP3    H229827   2.042   3.264  17.228  0.2372 -1.8465  0.8162
 1878TIP3   OH229828   1.939   0.616  18.777  0.2000 -0.3170 -0.0598
 1878TIP3    H129829   1.898   0.580  18.855 -2.0380  0.6355 -0.7190
 1878TIP3    H229830   2.003   0.549  18.751  0.3535 -1.0477  2.0457
 1879TIP3   OH229831   6.755   1.415  17.194  0.5477 -0.1210 -0.0136
 1879TIP3    H129832   6.792   1.475  17.129 -1.2415  0.3635 -0.6261
 1879TIP3    H229833   6.680   1.461  17.230 -0.4651 -1.7090  0.0028
 1880TIP3   OH229834   6.121   1.979  18.226  0.4429  0.0796 -0.4131
 1880TIP3    H129835   6.209   2.010  18.201  0.2764  0.3872 -0.6215
 1880TIP3    H229836   6.069   2.059  18.231 -0.0689 -0.1994 -1.2365
 1881TIP3   OH229837   6.157   5.854  18.572  0.2567  0.1542 -0.2360
 1881TIP3    H129838   6.153   5.913  18.497 -0.6945 -0.3857 -0.6242
 1881TIP3    H229839   6.220   5.787  18.547  0.2797  0.2243 -0.3661
 1882TIP3   OH229840   3.363   1.699  17.520 -0.1631 -0.0320  0.0444
 1882TIP3    H129841   3.385   1.693  17.427  0.1529  2.3093 -0.0932
 1882TIP3    H229842   3.436   1.655  17.564 -1.0338 -2.4777 -0.8124
 1883TIP3   OH229843   6.779   0.094  19.604  0.2268 -0.5098  0.5123
 1883TIP3    H129844   6.834   0.061  19.533 -0.8927  2.1796 -1.7604
 1883TIP3    H229845   6.840   0.103  19.678  1.9801 -1.1094 -0.7754
 1884TIP3   OH229846   3.249   2.049  17.388  0.0704  0.2045 -0.1544
 1884TIP3    H129847   3.274   2.111  17.457 -0.0339 -2.4304  2.4668
 1884TIP3    H229848   3.252   2.100  17.307  2.6998  2.8858  1.4333
 1885TIP3   OH229849   5.290   1.129  18.038  0.0982  0.0188  0.5866
 1885TIP3    H129850   5.356   1.191  18.067  0.7887 -1.0424  1.3328
 1885TIP3    H229851   5.214   1.184  18.016  1.4184  1.3316 -0.9826
 1886TIP3   OH229852   7.403   6.624  19.055  0.4784  0.3060 -0.2869
 1886TIP3    H129853   7.412   6.535  19.091  1.8219  1.0319  1.3404
 1886TIP3    H229854   7.347   6.669  19.119  0.3309  0.8035 -0.7684
 1887TIP3   OH229855   2.370   3.510  17.359 -0.1036  0.5212 -0.5362
 1887TIP3    H129856   2.396   3.425  17.323 -0.0568 -0.2445  1.1858
 1887TIP3    H229857   2.385   3.501  17.453  0.9923  2.8349 -0.4223
 1888TIP3   OH229858   3.807   7.432  18.239 -0.4049 -0.4536  0.3001
 1888TIP3    H129859   3.782   7.415  18.148 -0.8673 -0.5856  0.4524
 1888TIP3    H229860   3.728   7.415  18.290 -1.3177  3.1893  0.3740
 1889TIP3   OH229861   2.050   3.524  17.365 -0.5631  0.1159 -0.0765
 1889TIP3    H129862   2.088   3.537  17.452  1.6793  0.6348 -1.0474
 1889TIP3    H229863   2.051   3.430  17.352 -0.3814  0.0724  0.2451
 1890TIP3   OH229864   1.008   3.195  17.977  0.4546  0.4765  0.3970
 1890TIP3    H129865   0.946   3.266  17.996 -0.8375 -0.1987 -1.0967
 1890TIP3    H229866   0.999   3.135  18.050 -2.6168 -0.8771 -0.9577
 1891TIP3   OH229867   6.454   5.998  17.646 -0.2462  0.0078  0.0858
 1891TIP3    H129868   6.479   6.079  17.602  2.1307 -0.8395 -0.2858
 1891TIP3    H229869   6.474   5.929  17.583  1.0141 -1.0781  1.5982
 1892TIP3   OH229870   7.349   2.387  19.231 -0.5557 -0.1319 -0.0488
 1892TIP3    H129871   7.310   2.381  19.318 -0.9256 -0.3068 -0.2218
 1892TIP3    H229872   7.430   2.336  19.237 -1.3334 -1.4382 -0.2103
 1893TIP3   OH229873   5.600   5.180  18.397 -0.4085  0.0106 -0.5766
 1893TIP3    H129874   5.623   5.089  18.418 -0.8902  0.3304  1.5867
 1893TIP3    H229875   5.526   5.172  18.336  0.0505 -1.0194 -1.0391
 1894TIP3   OH229876   7.097   3.742  19.092  0.2888  0.0811 -0.3654
 1894TIP3    H129877   7.092   3.833  19.123  0.3427  0.0679 -0.3202
 1894TIP3    H229878   7.141   3.749  19.007  0.1311  0.1182 -0.4460
 1895TIP3   OH229879   6.505   2.496  19.000 -0.1659 -0.2020  0.0720
 1895TIP3    H129880   6.485   2.520  19.090 -1.4975 -1.8515  0.2716
 1895TIP3    H229881   6.559   2.418  19.007 -1.1607 -0.9748 -0.5271
 1896TIP3   OH229882   6.129   0.160  18.724  0.3688 -0.0189  0.6627
 1896TIP3    H129883   6.150   0.132  18.635 -0.1153 -1.0871  0.8695
 1896TIP3    H229884   6.213   0.190  18.760  0.9311 -1.2509  0.4337
 1897TIP3   OH229885   2.370   5.594  19.003 -0.1940  0.4328 -0.1906
 1897TIP3    H129886   2.336   5.507  18.982 -0.7792  0.7659 -0.6836
 1897TIP3    H229887   2.445   5.605  18.945 -0.1070  0.2504 -0.1144
 1898TIP3   OH229888   3.948   2.855  19.035 -0.0520  0.2272 -0.4943
 1898TIP3    H129889   3.883   2.794  19.070  1.6577 -0.3776  1.8519
 1898TIP3    H229890   3.987   2.809  18.961 -0.1727 -0.6757 -0.0002
 1899TIP3   OH229891   1.249   6.671  17.188 -0.1941  0.2764 -0.0030
 1899TIP3    H129892   1.177   6.734  17.198 -1.9221 -1.1375 -2.2979
 1899TIP3    H229893   1.328   6.724  17.191 -1.5159  2.4383 -0.8330
 1900TIP3   OH229894   7.004   3.912  17.279 -0.5200 -0.0369  0.3067
 1900TIP3    H129895   6.916   3.948  17.291 -1.6067 -2.0581 -1.0154
 1900TIP3    H229896   7.030   3.939  17.191 -0.1227 -0.0235  0.4256
 1901TIP3   OH229897   5.819   5.236  17.567 -0.4223 -0.2182  0.4472
 1901TIP3    H129898   5.911   5.242  17.540 -0.9464  0.3407 -1.3183
 1901TIP3    H229899   5.791   5.150  17.537 -0.7405  0.0093  0.0842
 1902TIP3   OH229900   0.820   7.496  18.060 -0.1184 -0.3067 -0.4641
 1902TIP3    H129901   0.856   7.479  17.973 -0.1443 -0.1617 -0.5022
 1902TIP3    H229902   0.863   7.576  18.088  0.3831 -0.7091 -0.0713
 1903TIP3   OH229903   7.386   2.293  17.496  0.5096  0.3516  0.2694
 1903TIP3    H129904   7.436   2.310  17.576  1.6966 -1.2877 -0.0775
 1903TIP3    H229905   7.442   2.324  17.425  1.5459 -2.3232 -0.1862
 1904TIP3   OH229906   6.145   5.621  18.074 -0.2941  0.4095  0.6824
 1904TIP3    H129907   6.106   5.643  18.159  0.0215 -0.3298  1.0268
 1904TIP3    H229908   6.144   5.525  18.072  0.7648  0.3926  0.3505
 1905TIP3   OH229909   1.640   5.840  18.166  0.0170 -0.1814  0.1653
 1905TIP3    H129910   1.552   5.870  18.189  0.5007  1.3352  0.1946
 1905TIP3    H229911   1.636   5.821  18.073  0.1205  1.8999 -0.3241
 1906TIP3   OH229912   0.068   7.436  18.756 -0.0854 -0.3794 -0.4302
 1906TIP3    H129913   0.147   7.401  18.715 -0.1134 -1.2714  0.2484
 1906TIP3    H229914   0.007   7.362  18.759 -1.3888  0.5575 -1.9352
 1907TIP3   OH229915   1.860   4.956  18.073 -0.1464 -0.1424  0.0921
 1907TIP3    H129916   1.795   4.927  18.009 -1.0476 -0.8391  1.2877
 1907TIP3    H229917   1.839   5.049  18.087  0.8848  0.3819 -1.5471
 1908TIP3   OH229918   3.114   3.518  17.215 -0.5744 -0.3190  0.9912
 1908TIP3    H129919   3.175   3.487  17.282 -0.5484  0.5449  1.3812
 1908TIP3    H229920   3.114   3.449  17.149  0.5940 -0.4666  1.1276
 1909TIP3   OH229921   7.566   5.397  16.576  0.3825  0.0901 -0.1702
 1909TIP3    H129922   7.632   5.330  16.595 -0.5183 -1.0453 -0.8881
 1909TIP3    H229923   7.483   5.353  16.594 -0.2328  0.9904 -0.7557
 1910TIP3   OH229924   5.676   3.855  19.152  0.1045  0.4344 -0.0795
 1910TIP3    H129925   5.754   3.872  19.099 -0.3193  2.5399 -0.1300
 1910TIP3    H229926   5.657   3.939  19.194 -1.8344 -0.1632  0.3415
 1911TIP3   OH229927   3.327   0.737  17.307  0.4545  0.0823  0.1187
 1911TIP3    H129928   3.367   0.749  17.221  0.1705  0.2624  0.0100
 1911TIP3    H229929   3.366   0.804  17.362 -1.3747  1.8096 -0.5731
 1912TIP3   OH229930   0.854   4.691  18.039  0.2424  0.2647 -1.0915
 1912TIP3    H129931   0.852   4.784  18.019 -1.9904  0.3674 -0.7282
 1912TIP3    H229932   0.936   4.659  18.002  0.8857  2.3031 -1.5077
 1913TIP3   OH229933   4.544   3.333  19.564  0.0020  0.0542 -0.1947
 1913TIP3    H129934   4.516   3.250  19.603  0.8128 -0.3825 -0.5344
 1913TIP3    H229935   4.630   3.315  19.528  1.2187  1.6537  1.7171
 1914TIP3   OH229936   4.150   3.911  17.557 -0.7398  0.1563  1.0517
 1914TIP3    H129937   4.116   3.822  17.547 -0.2428 -0.0864  1.4582
 1914TIP3    H229938   4.228   3.913  17.502 -1.6466  0.8604 -0.2616
 1915TIP3   OH229939   7.550   5.441  16.958  0.2172 -0.0553 -0.3086
 1915TIP3    H129940   7.621   5.445  16.894  0.4586  3.7221 -0.0278
 1915TIP3    H229941   7.487   5.380  16.921  1.8023 -0.4401 -2.5549
 1916TIP3   OH229942   3.025   2.318  18.341  0.7240  0.1939  0.3497
 1916TIP3    H129943   3.106   2.367  18.327 -0.2485  1.9967  0.6575
 1916TIP3    H229944   3.035   2.278  18.427  0.9472  1.1784  0.7981
 1917TIP3   OH229945   7.065   3.658  18.175 -0.2983  0.2209 -0.4650
 1917TIP3    H129946   7.094   3.749  18.184  0.7478 -0.0047 -1.2741
 1917TIP3    H229947   6.981   3.655  18.219 -0.6773  1.7494 -1.0065
 1918TIP3   OH229948   2.176   7.676  18.446  0.3579 -0.3965 -0.0237
 1918TIP3    H129949   2.108   7.661  18.512 -0.4657 -1.2375 -1.0136
 1918TIP3    H229950   2.163   7.766  18.418  0.8770  0.0447  1.1273
 1919TIP3   OH229951   5.747   3.806  17.783 -0.0717 -0.2405 -0.0112
 1919TIP3    H129952   5.747   3.738  17.850  0.2826  0.8715  1.1573
 1919TIP3    H229953   5.833   3.799  17.742 -0.4544 -1.2176 -0.6952
 1920TIP3   OH229954   1.081   1.630  18.972  0.1503 -0.3213 -0.7538
 1920TIP3    H129955   0.995   1.593  18.992 -0.3112  1.4888  0.9454
 1920TIP3    H229956   1.070   1.724  18.982  2.0207  0.0860 -1.8769
 1921TIP3   OH229957   1.999   5.711  17.819  0.3668 -0.8881  0.5253
 1921TIP3    H129958   1.927   5.765  17.851 -0.3995 -1.0479 -0.8874
 1921TIP3    H229959   2.014   5.741  17.730  1.4602 -1.4760  0.4900
 1922TIP3   OH229960   3.060   5.490  19.330  0.1736 -0.6647  0.0999
 1922TIP3    H129961   3.047   5.585  19.341 -1.2871 -0.6187 -1.5867
 1922TIP3    H229962   3.141   5.472  19.378 -0.1858  1.1936  1.5532
 1923TIP3   OH229963   0.394   4.222  18.626 -0.1914 -0.0549  0.3793
 1923TIP3    H129964   0.397   4.158  18.697 -1.1138  1.6111  2.0072
 1923TIP3    H229965   0.428   4.302  18.665 -1.1928  1.0358 -0.9243
 1924TIP3   OH229966   6.736   5.034  18.769 -0.3320  0.0790 -0.0023
 1924TIP3    H129967   6.658   4.990  18.802  1.0311 -1.9303  0.8279
 1924TIP3    H229968   6.761   5.094  18.839  0.6389 -1.6835  1.2434
 1925TIP3   OH229969   1.617   3.393  16.939  0.2526  0.0198 -0.3689
 1925TIP3    H129970   1.696   3.342  16.924 -1.2417 -2.0065 -1.8424
 1925TIP3    H229971   1.638   3.446  17.016  2.7230 -1.0499 -0.1912
 1926TIP3   OH229972   2.564   5.419  19.415  0.1529 -0.5130 -0.0039
 1926TIP3    H129973   2.557   5.385  19.325 -0.1916 -2.8392  0.8393
 1926TIP3    H229974   2.633   5.366  19.455  1.6075  1.7333  0.6396
 1927TIP3   OH229975   4.386   6.955  19.252  0.1336  0.4460  0.0588
 1927TIP3    H129976   4.472   6.993  19.233  0.6800 -0.3523  0.8268
 1927TIP3    H229977   4.366   6.902  19.175  1.2155 -0.8489  0.6125
 1928TIP3   OH229978   2.356   7.412  17.317  0.2757 -0.4230  0.1979
 1928TIP3    H129979   2.280   7.404  17.375  0.7357  0.0573  0.8915
 1928TIP3    H229980   2.422   7.455  17.371  1.0006 -0.7232 -0.4308
 1929TIP3   OH229981   2.810   0.580  19.280 -0.4138 -0.5962 -0.2859
 1929TIP3    H129982   2.778   0.593  19.369  0.8509  0.8273  0.0077
 1929TIP3    H229983   2.897   0.542  19.290 -0.0673  0.0030 -0.8743
 1930TIP3   OH229984   5.440   3.517  19.007  0.3508  0.1331  0.0778
 1930TIP3    H129985   5.467   3.569  19.083 -1.4710  2.3943 -0.6864
 1930TIP3    H229986   5.482   3.561  18.933 -1.7112  1.0294 -0.6473
 1931TIP3   OH229987   7.011   0.548  18.430  0.1227  0.4381 -0.1809
 1931TIP3    H129988   7.038   0.462  18.463 -0.6045  0.1227 -0.3988
 1931TIP3    H229989   7.035   0.548  18.337  0.9670  0.8334  0.0199
 1932TIP3   OH229990   1.837   1.899  17.665 -0.1862  0.0457 -0.3341
 1932TIP3    H129991   1.743   1.905  17.683 -0.4685 -0.3135 -1.5940
 1932TIP3    H229992   1.868   1.989  17.671 -0.6555  0.2000 -0.1468
 1933TIP3   OH229993   1.972   6.457  18.270  0.1293 -0.2421 -0.2725
 1933TIP3    H129994   1.998   6.531  18.324  0.8677 -0.3190 -0.5057
 1933TIP3    H229995   2.003   6.480  18.182  1.1965 -1.2189 -0.1792
 1934TIP3   OH229996   3.423   5.603  17.016 -0.3810  0.5467 -0.1137
 1934TIP3    H129997   3.338   5.580  16.979 -0.2153 -1.3092  0.5713
 1934TIP3    H229998   3.487   5.569  16.954 -0.1220  0.7813  0.0208
 1935TIP3   OH229999   2.702   2.313  19.050  0.8356  0.4425 -0.1577
 1935TIP3    H130000   2.714   2.400  19.011  1.6115  0.6908  0.6027
 1935TIP3    H230001   2.691   2.331  19.143 -0.3903 -0.1868 -0.1576
 1936TIP3   OH230002   7.385   1.696  17.555  0.0072 -0.7370 -0.4621
 1936TIP3    H130003   7.361   1.786  17.576 -1.3532 -1.0867 -0.4079
 1936TIP3    H230004   7.430   1.701  17.471 -0.4844 -0.0549 -0.6896
 1937TIP3   OH230005   5.829   6.340  19.249 -0.2172  0.1142 -0.5822
 1937TIP3    H130006   5.788   6.390  19.319 -0.9517 -0.3987 -0.6355
 1937TIP3    H230007   5.841   6.252  19.286  1.4791  0.4211 -0.3317
 1938TIP3   OH230008   6.616   7.130  18.964 -0.3359 -0.4390 -0.0128
 1938TIP3    H130009   6.623   7.048  18.915  0.8626 -0.8904  0.8866
 1938TIP3    H230010   6.551   7.181  18.915 -0.7592 -1.7262 -0.8436
 1939TIP3   OH230011   5.052   3.708  19.027  0.2351  0.3354  0.2505
 1939TIP3    H130012   4.967   3.726  19.069 -0.0026 -0.2014  0.0096
 1939TIP3    H230013   5.093   3.794  19.019 -0.1972  0.5773  0.5649
 1940TIP3   OH230014   7.235   3.134  19.317  0.2263 -0.3657 -0.2117
 1940TIP3    H130015   7.213   3.224  19.294  0.8396 -0.0384  0.4385
 1940TIP3    H230016   7.314   3.115  19.267 -0.8159 -1.1469 -1.6599
 1941TIP3   OH230017   0.298   6.272  17.504  0.3663  0.6756 -0.5363
 1941TIP3    H130018   0.364   6.279  17.573 -1.6627  0.6205  1.5081
 1941TIP3    H230019   0.298   6.358  17.461  1.2173  0.9143 -0.0781
 1942TIP3   OH230020   5.636   1.457  19.413 -0.0315  0.6008  0.2915
 1942TIP3    H130021   5.721   1.461  19.455  0.0955  1.7590 -0.0356
 1942TIP3    H230022   5.652   1.488  19.323 -0.5955 -0.2276 -0.1145
 1943TIP3   OH230023   1.105   2.911  17.105  0.2725  0.0647 -0.5294
 1943TIP3    H130024   1.201   2.916  17.099  0.3159 -1.0393 -0.8631
 1943TIP3    H230025   1.075   2.907  17.015 -0.0198 -0.6415 -0.4064
 1944TIP3   OH230026   2.840   5.848  16.741 -0.3679 -0.0977 -0.5032
 1944TIP3    H130027   2.916   5.823  16.687  0.7641  0.2844  0.8708
 1944TIP3    H230028   2.862   5.935  16.774 -1.1420 -0.2337  0.3963
 1945TIP3   OH230029   2.599   2.691  18.667  0.4690 -0.6003  0.2016
 1945TIP3    H130030   2.525   2.636  18.690  0.9996 -1.2531  0.3914
 1945TIP3    H230031   2.613   2.674  18.573  0.1781 -0.2288  0.0898
 1946TIP3   OH230032   4.600   2.004  17.648  0.2107  0.0314 -0.5053
 1946TIP3    H130033   4.589   1.954  17.729 -1.0862 -0.2814 -0.8510
 1946TIP3    H230034   4.571   1.946  17.579  2.0774  0.0082 -1.3224
 1947TIP3   OH230035   2.722   6.177  18.817  0.0149 -0.2245  0.6202
 1947TIP3    H130036   2.775   6.164  18.896  0.9334 -0.3619 -0.0030
 1947TIP3    H230037   2.712   6.272  18.810  0.0719 -0.2040  0.8176
 1948TIP3   OH230038   7.488   5.241  19.243 -0.3044  0.5770 -0.0152
 1948TIP3    H130039   7.398   5.218  19.221 -0.1680 -0.8490  0.7896
 1948TIP3    H230040   7.481   5.319  19.297 -1.1661 -0.1700  0.9884
 1949TIP3   OH230041   0.222   2.029  19.537  0.4779  0.0722  0.0006
 1949TIP3    H130042   0.245   2.033  19.445 -0.7886  2.3315 -0.2882
 1949TIP3    H230043   0.175   1.946  19.546  1.0780 -0.4274 -1.2518
 1950TIP3   OH230044   0.732   5.820  16.950  0.0648  0.0744  1.4128
 1950TIP3    H130045   0.758   5.737  16.990  0.7586 -1.2433 -1.5133
 1950TIP3    H230046   0.814   5.869  16.942  0.7193 -1.2580 -1.6014
 1951TIP3   OH230047   4.041   2.006  19.145  0.0442  0.3648  0.2624
 1951TIP3    H130048   4.114   2.061  19.119  0.5506 -0.2511  0.3447
 1951TIP3    H230049   3.969   2.032  19.088  0.5166  0.5182 -0.2730
 1952TIP3   OH230050   6.631   5.234  16.658  0.3481 -0.3972 -1.0178
 1952TIP3    H130051   6.639   5.146  16.696  0.1341 -0.1466 -0.3721
 1952TIP3    H230052   6.601   5.288  16.731  2.3103  0.5930 -0.8832
 1953TIP3   OH230053   7.146   6.941  16.961 -0.4610 -0.0303  0.4654
 1953TIP3    H130054   7.148   7.037  16.963  1.4640 -0.0166 -0.0476
 1953TIP3    H230055   7.169   6.919  16.870  0.8210 -0.9654  0.9905
 1954TIP3   OH230056   1.371   2.902  18.903 -0.1290  0.2687  0.3890
 1954TIP3    H130057   1.421   2.832  18.860  1.5365  1.8776 -0.4404
 1954TIP3    H230058   1.415   2.914  18.987 -0.8704 -0.1527  0.8448
 1955TIP3   OH230059   6.124   3.014  19.243 -0.4119 -0.0930 -0.5948
 1955TIP3    H130060   6.214   3.045  19.247 -0.4575  0.0102 -0.3795
 1955TIP3    H230061   6.130   2.932  19.194 -0.3392  0.4041 -1.4300
 1956TIP3   OH230062   2.193   3.361  19.009 -0.2291 -0.4975 -0.3027
 1956TIP3    H130063   2.192   3.362  19.105 -1.7699  0.7653 -0.2988
 1956TIP3    H230064   2.286   3.358  18.986  0.1763 -0.1845  1.2252
 1957TIP3   OH230065   4.639   0.747  19.300 -0.2884  0.1246  0.3208
 1957TIP3    H130066   4.603   0.803  19.368 -0.8008  0.6202 -0.3358
 1957TIP3    H230067   4.575   0.677  19.290 -0.1915  0.0274  0.3842
 1958TIP3   OH230068   0.670   3.094  16.901 -0.2407  0.3180  0.2616
 1958TIP3    H130069   0.615   3.018  16.880 -0.0916  0.1512  0.4689
 1958TIP3    H230070   0.758   3.057  16.910 -0.1881  0.4971  0.4795
 1959TIP3   OH230071   2.081   3.092  16.864  0.3208  0.1594 -0.4676
 1959TIP3    H130072   2.062   3.006  16.901  2.0932  0.7145  2.0054
 1959TIP3    H230073   2.101   3.075  16.772  2.6832 -2.4323  0.3962
 1960TIP3   OH230074   3.965   0.250  17.535 -0.0023 -0.0279  0.1802
 1960TIP3    H130075   4.045   0.296  17.507  0.6068  0.5457  2.6585
 1960TIP3    H230076   3.994   0.192  17.605 -1.4529 -1.3592 -0.2597
 1961TIP3   OH230077   0.659   4.114  18.901 -0.8318 -0.0427 -0.6881
 1961TIP3    H130078   0.733   4.122  18.840 -1.6344  1.0844 -1.5654
 1961TIP3    H230079   0.699   4.117  18.988  0.1038  1.4470 -1.1314
 1962TIP3   OH230080   0.657   6.319  18.824 -0.7168  0.0408  0.0588
 1962TIP3    H130081   0.661   6.280  18.737  1.2646  0.2663  0.0180
 1962TIP3    H230082   0.643   6.412  18.808 -1.8907 -0.1206  0.0535
 1963TIP3   OH230083   0.242   0.601  17.745  0.3842  0.1661 -0.1465
 1963TIP3    H130084   0.328   0.583  17.707  0.1584 -1.1904 -0.0763
 1963TIP3    H230085   0.248   0.567  17.835 -0.1852  0.1825 -0.0986
 1964TIP3   OH230086   1.859   4.588  19.250  0.0530  0.3812 -0.0021
 1964TIP3    H130087   1.766   4.596  19.269  0.3670 -0.6878  2.3154
 1964TIP3    H230088   1.889   4.677  19.235 -1.0457  0.9208  0.8882
 1965TIP3   OH230089   6.534   3.694  19.306 -0.2004  0.0123  0.1453
 1965TIP3    H130090   6.480   3.716  19.230  1.9167  0.5813 -1.2923
 1965TIP3    H230091   6.571   3.608  19.285  0.8792  0.4407  0.2274
 1966TIP3   OH230092   3.600   1.545  18.689  0.2658  0.4872  0.5101
 1966TIP3    H130093   3.528   1.577  18.744 -1.4376 -1.1126 -0.6608
 1966TIP3    H230094   3.669   1.522  18.751 -1.1195 -0.0871  1.9129
 1967TIP3   OH230095   5.597   7.671  18.735  0.0787 -0.1527  0.1741
 1967TIP3    H130096   5.569   7.733  18.802  0.1031  1.9038 -1.5901
 1967TIP3    H230097   5.685   7.700  18.710  0.7153 -1.8543  0.3365
 1968TIP3   OH230098   5.910   3.926  19.616  0.0273  0.0948 -0.2080
 1968TIP3    H130099   5.830   3.911  19.567  1.0180 -1.0675 -1.5522
 1968TIP3    H230100   5.885   3.988  19.684 -1.2065  2.4970 -2.6845
 1969TIP3   OH230101   2.264   5.276  17.523  0.2443 -0.7334  0.0591
 1969TIP3    H130102   2.283   5.307  17.612 -0.7013  0.0474  0.0038
 1969TIP3    H230103   2.346   5.288  17.476  0.1455  0.9798  0.2526
 1970TIP3   OH230104   7.166   7.123  19.250 -0.2236  0.0890  0.1639
 1970TIP3    H130105   7.218   7.138  19.171  0.3167  3.6471  1.0190
 1970TIP3    H230106   7.076   7.114  19.218 -0.0194  1.4482 -0.9355
 1971TIP3   OH230107   5.355   5.965  18.559  0.3497 -0.2644 -0.2157
 1971TIP3    H130108   5.415   5.903  18.517  0.2065 -2.0474  2.0451
 1971TIP3    H230109   5.409   6.043  18.576  1.1233 -0.5810 -1.1480
 1972TIP3   OH230110   3.413   0.109  19.357 -0.6957  0.1737 -0.4043
 1972TIP3    H130111   3.409   0.062  19.441  1.5733 -0.7250 -0.7470
 1972TIP3    H230112   3.436   0.042  19.293  0.5218  1.3527 -1.2474
 1973TIP3   OH230113   1.076   5.538  18.094  0.2230  0.0807  0.0748
 1973TIP3    H130114   1.093   5.627  18.063  0.2747  0.6196  1.5586
 1973TIP3    H230115   0.999   5.510  18.045  1.4160  0.1123 -1.9394
 1974TIP3   OH230116   5.377   5.018  18.990 -0.0555 -0.2472  0.0944
 1974TIP3    H130117   5.375   4.972  19.074 -0.1823 -0.0690  0.1907
 1974TIP3    H230118   5.292   5.061  18.984  0.9628  2.0616  1.1858
 1975TIP3   OH230119   6.755   5.711  19.585  0.1676  0.4809 -0.1532
 1975TIP3    H130120   6.768   5.710  19.490  1.4232 -1.8955 -0.0475
 1975TIP3    H230121   6.790   5.795  19.614 -1.9917  2.1277 -1.9200
 1976TIP3   OH230122   4.092   3.187  19.160 -0.3556 -0.1468 -0.1630
 1976TIP3    H130123   4.051   3.171  19.075  1.0866 -1.8826 -0.5805
 1976TIP3    H230124   4.148   3.263  19.145  0.5827 -0.9872 -1.0333
 1977TIP3   OH230125   3.106   6.975  17.029 -0.1213 -0.0397  0.1056
 1977TIP3    H130126   3.077   7.054  16.984  1.3813  0.8014  0.5388
 1977TIP3    H230127   3.101   6.996  17.122  0.3898 -0.4093  0.2246
 1978TIP3   OH230128   2.404   5.756  18.146  0.5566 -0.0711 -0.4600
 1978TIP3    H130129   2.340   5.764  18.075  1.0948  2.3124 -0.7488
 1978TIP3    H230130   2.484   5.726  18.103  0.9268  1.5170 -0.9574
 1979TIP3   OH230131   6.624   6.881  17.505 -0.0752 -0.5985 -0.3786
 1979TIP3    H130132   6.671   6.950  17.553 -1.3420 -0.6222  0.9775
 1979TIP3    H230133   6.631   6.906  17.413  2.0999 -0.3270 -0.1834
 1980TIP3   OH230134   7.500   6.978  17.252 -0.0800 -0.3451 -0.5233
 1980TIP3    H130135   7.560   6.989  17.178  0.1336 -0.6764 -0.4001
 1980TIP3    H230136   7.433   6.917  17.221 -0.2736 -0.0927 -0.6106
 1981TIP3   OH230137   3.938   2.989  17.659  0.4322 -0.0940  0.2258
 1981TIP3    H130138   3.988   2.914  17.626 -0.7980 -0.7292 -0.2547
 1981TIP3    H230139   3.952   3.058  17.594  0.8460 -0.1896  0.2095
 1982TIP3   OH230140   5.862   4.784  17.984  0.0056 -0.2948 -0.0874
 1982TIP3    H130141   5.816   4.860  17.948 -0.8634  0.2547  2.0282
 1982TIP3    H230142   5.805   4.710  17.963 -1.1324  0.1814  1.1620
 1983TIP3   OH230143   5.490   7.029  18.996 -0.1199 -0.6760  0.1435
 1983TIP3    H130144   5.551   7.103  19.000  0.7850 -1.3365 -0.8440
 1983TIP3    H230145   5.534   6.960  19.045 -0.0833 -1.1346 -0.5187
 1984TIP3   OH230146   1.097   5.490  17.194  0.0698 -0.3258 -0.2670
 1984TIP3    H130147   1.191   5.494  17.175  0.1153  0.3086  0.0444
 1984TIP3    H230148   1.069   5.582  17.192 -0.6786 -0.5595 -0.9991
 1985TIP3   OH230149   2.719   2.853  18.227 -0.0318  0.1151 -0.1921
 1985TIP3    H130150   2.766   2.770  18.218 -0.0232  0.1895 -0.8421
 1985TIP3    H230151   2.750   2.906  18.154 -1.0297  0.2189 -0.5470
 1986TIP3   OH230152   5.721   1.077  18.234  0.0670  0.0367 -0.7732
 1986TIP3    H130153   5.629   1.063  18.257 -0.0973  0.1379 -1.3553
 1986TIP3    H230154   5.755   1.134  18.303 -0.2668 -0.1272 -0.4724
 1987TIP3   OH230155   3.057   4.613  19.281 -0.3093  0.5030 -0.1149
 1987TIP3    H130156   3.111   4.555  19.336 -0.2416  1.3589  0.7568
 1987TIP3    H230157   3.114   4.634  19.207  0.4331  1.0801  0.5978
 1988TIP3   OH230158   2.656   5.336  18.768  0.2248  0.4826  0.5003
 1988TIP3    H130159   2.581   5.281  18.746  2.3499 -1.6567 -2.1333
 1988TIP3    H230160   2.686   5.303  18.852 -1.5844  1.2635  1.5171
 1989TIP3   OH230161   0.132   2.800  17.418  0.7538  0.1163 -0.5801
 1989TIP3    H130162   0.132   2.795  17.322 -0.1688 -2.7198 -0.5250
 1989TIP3    H230163   0.054   2.852  17.439  1.2414  1.2005 -1.3176
 1990TIP3   OH230164   4.798   0.643  19.107  0.2859 -0.7906  0.0938
 1990TIP3    H130165   4.730   0.657  19.041  0.0776 -1.4905  0.1529
 1990TIP3    H230166   4.781   0.709  19.174 -0.3352 -0.9614  0.1060
 1991TIP3   OH230167   6.006   0.890  17.958  0.1704  0.0268 -0.2632
 1991TIP3    H130168   5.965   0.912  17.874 -0.3862  0.1798  0.0361
 1991TIP3    H230169   6.100   0.891  17.941  0.0430 -0.5810 -1.0331
 1992TIP3   OH230170   3.621   7.105  18.756 -0.4247 -0.1055  0.3927
 1992TIP3    H130171   3.687   7.168  18.730 -0.0578 -1.3786 -2.0046
 1992TIP3    H230172   3.560   7.155  18.811  1.1947  1.6590  0.6764
 1993TIP3   OH230173   1.390   2.277  18.241  0.1894  0.3092  0.3301
 1993TIP3    H130174   1.353   2.276  18.153  0.6519 -2.1728  0.0864
 1993TIP3    H230175   1.314   2.272  18.299 -0.0500  0.4344  0.0284
 1994TIP3   OH230176   6.350   7.480  16.585 -0.0399 -0.3766 -0.8953
 1994TIP3    H130177   6.374   7.486  16.677 -2.4360  0.6787 -0.2502
 1994TIP3    H230178   6.383   7.561  16.546  0.1041 -0.3531 -0.7241
 1995TIP3   OH230179   0.526   1.999  19.294  0.0776 -0.0409 -0.2209
 1995TIP3    H130180   0.454   1.943  19.322  1.1398 -1.2493  0.1699
 1995TIP3    H230181   0.605   1.950  19.316  1.1793  2.5918  2.5095
 1996TIP3   OH230182   7.097   4.653  19.330 -0.6062  0.0432 -0.1712
 1996TIP3    H130183   7.017   4.628  19.377 -1.2034  2.8444  0.5186
 1996TIP3    H230184   7.065   4.694  19.250  0.2862 -1.1896 -1.1878
 1997TIP3   OH230185   1.627   1.300  17.812 -0.4043 -0.5117 -0.0104
 1997TIP3    H130186   1.709   1.332  17.849  0.1139 -1.6183 -0.1912
 1997TIP3    H230187   1.624   1.207  17.834 -2.3711 -0.2002  1.3835
 1998TIP3   OH230188   5.216   0.449  18.282  0.2469  0.2219 -0.2875
 1998TIP3    H130189   5.131   0.414  18.258  0.3547  0.2612 -0.7249
 1998TIP3    H230190   5.199   0.539  18.308 -0.0570 -0.1842  0.9992
 1999TIP3   OH230191   0.789   1.169  17.246 -0.1443  0.2112  0.8620
 1999TIP3    H130192   0.849   1.202  17.179  0.2813 -0.9492  0.6457
 1999TIP3    H230193   0.818   1.079  17.262 -0.5176  0.3209  2.2938
 2000TIP3   OH230194   6.546   6.436  18.088 -0.1736 -0.2131 -0.2624
 2000TIP3    H130195   6.542   6.375  18.014  0.4876  0.6488 -1.0297
 2000TIP3    H230196   6.611   6.399  18.147 -0.0259 -0.4219 -0.5577
 2001TIP3   OH230197   2.565   4.494  17.860  0.3011 -0.2541 -0.1248
 2001TIP3    H130198   2.554   4.407  17.823 -0.7947  0.3021 -1.1596
 2001TIP3    H230199   2.540   4.485  17.951  2.4651 -1.5197  0.4222
 2002TIP3   OH230200   4.163   6.950  17.965  0.4852  0.2386  0.1491
 2002TIP3    H130201   4.146   6.921  18.055  0.9818  0.1960  0.2300
 2002TIP3    H230202   4.176   7.045  17.973 -3.4671  1.0319 -0.4052
 2003TIP3   OH230203   2.980   2.018  17.294 -0.0455  0.0619  0.0896
 2003TIP3    H130204   2.975   2.005  17.200 -0.7809  1.8669 -0.1604
 2003TIP3    H230205   3.039   2.093  17.305 -0.9946  0.7002  0.9721
 2004TIP3   OH230206   2.840   1.388  19.403 -0.1726 -0.3921 -0.5089
 2004TIP3    H130207   2.916   1.331  19.392  0.6130  0.7490 -1.2553
 2004TIP3    H230208   2.787   1.371  19.325  0.5763  0.6209 -1.2626
 2005TIP3   OH230209   4.274   0.809  17.617 -0.5487 -0.3011  0.1367
 2005TIP3    H130210   4.206   0.821  17.551 -0.4362  1.0807  0.2370
 2005TIP3    H230211   4.269   0.888  17.671 -0.3683 -1.2134  1.5449
 2006TIP3   OH230212   6.877   2.234  18.386  0.1099 -0.6019 -0.0347
 2006TIP3    H130213   6.969   2.255  18.404  0.4967 -2.2486  0.1194
 2006TIP3    H230214   6.836   2.318  18.366  1.0235  0.5592  2.5275
 2007TIP3   OH230215   4.192   2.043  17.160 -0.0553 -0.3524 -0.0445
 2007TIP3    H130216   4.283   2.072  17.166 -0.0972 -0.2427  0.0637
 2007TIP3    H230217   4.144   2.107  17.212 -0.1619 -0.5593  0.1080
 2008TIP3   OH230218   3.370   6.990  17.671 -0.0998  0.1751 -0.1930
 2008TIP3    H130219   3.341   6.922  17.732  1.7392 -1.2645 -0.8302
 2008TIP3    H230220   3.449   7.027  17.710  1.0298 -0.6747 -1.5464
 2009TIP3   OH230221   5.209   3.498  19.502 -0.0661  0.2364  0.4593
 2009TIP3    H130222   5.145   3.563  19.474 -0.2650  0.4594  1.4009
 2009TIP3    H230223   5.200   3.427  19.438 -0.6297  0.6452  0.0724
 2010TIP3   OH230224   5.536   3.280  19.413 -0.0704  0.2617  0.1790
 2010TIP3    H130225   5.534   3.284  19.318  0.0107  0.2477  0.1770
 2010TIP3    H230226   5.614   3.329  19.438 -0.3093  0.6001  0.2567
 2011TIP3   OH230227   6.407   2.741  16.651 -0.0209  0.1083 -0.4252
 2011TIP3    H130228   6.444   2.662  16.613 -0.6014 -0.3463 -0.0798
 2011TIP3    H230229   6.314   2.719  16.665 -0.0807  0.6784  0.1145
 2012TIP3   OH230230   6.477   3.663  17.610  0.6370  0.4166  0.3668
 2012TIP3    H130231   6.453   3.570  17.607  0.1638  0.4930  1.5605
 2012TIP3    H230232   6.531   3.672  17.688  0.1798  1.2497  0.6055
 2013TIP3   OH230233   0.312   4.125  17.230 -0.0907 -0.0132 -0.2118
 2013TIP3    H130234   0.240   4.162  17.180  0.7654  1.6040 -0.3105
 2013TIP3    H230235   0.384   4.117  17.168 -0.8119 -4.0288 -0.7771
 2014TIP3   OH230236   5.605   0.214  18.015 -0.4061  0.6877 -0.6571
 2014TIP3    H130237   5.609   0.263  18.097  2.1932  0.2022 -0.3969
 2014TIP3    H230238   5.627   0.278  17.947  1.6560  0.2535 -0.4604
 2015TIP3   OH230239   0.969   7.463  17.832 -0.2638  0.6514  0.0371
 2015TIP3    H130240   1.033   7.404  17.872 -1.7779 -1.1192 -0.0466
 2015TIP3    H230241   0.948   7.422  17.748 -2.9870  0.0461  0.9201
 2016TIP3   OH230242   2.643   5.264  18.038 -0.2369 -0.0615 -0.3179
 2016TIP3    H130243   2.565   5.250  17.984 -0.1388 -0.2275 -0.4196
 2016TIP3    H230244   2.609   5.283  18.125 -0.4009  0.2902 -0.4541
 2017TIP3   OH230245   6.210   1.942  17.564 -0.2256  0.1968  0.6831
 2017TIP3    H130246   6.223   1.968  17.473  1.3562 -0.8845  0.5465
 2017TIP3    H230247   6.276   1.992  17.613  1.2009 -1.6008  0.7376
 2018TIP3   OH230248   4.483   1.008  18.515  0.7002  0.0841 -0.4685
 2018TIP3    H130249   4.528   1.086  18.483  0.5207 -0.0410 -1.0335
 2018TIP3    H230250   4.403   1.042  18.555  1.3835  0.3261  0.7303
 2019TIP3   OH230251   2.187   5.989  19.128 -0.1694 -0.0350  0.3034
 2019TIP3    H130252   2.247   6.034  19.069 -1.1912 -1.8087 -2.2950
 2019TIP3    H230253   2.240   5.920  19.168  0.1271 -0.0277 -0.0679
 2020TIP3   OH230254   0.530   1.643  17.951  0.3777  0.4982 -0.2634
 2020TIP3    H130255   0.584   1.601  17.883  1.6319  0.8332  0.4836
 2020TIP3    H230256   0.472   1.702  17.903  0.2105 -0.3596 -1.1475
 2021TIP3   OH230257   1.939   4.687  18.139 -0.0965 -0.1089 -0.5675
 2021TIP3    H130258   1.884   4.764  18.150 -0.6734 -0.7302  1.2966
 2021TIP3    H230259   1.878   4.613  18.148  0.6510 -0.7839 -0.9559
 2022TIP3   OH230260   5.591   6.642  17.484  0.2933 -0.5424 -0.4279
 2022TIP3    H130261   5.642   6.688  17.417 -0.5166 -1.5773 -1.8105
 2022TIP3    H230262   5.614   6.550  17.473  0.8654 -0.6575  1.4011
 2023TIP3   OH230263   4.278   2.309  18.569  0.1107  0.8538  0.0087
 2023TIP3    H130264   4.252   2.272  18.653 -1.6267  3.4509  0.7368
 2023TIP3    H230265   4.365   2.272  18.552  1.1578  1.3039  3.6431
 2024TIP3   OH230266   6.237   4.521  19.256 -0.4246 -0.6126 -0.1104
 2024TIP3    H130267   6.258   4.612  19.274 -0.8107 -0.8930  1.9856
 2024TIP3    H230268   6.150   4.523  19.217 -0.6306 -0.1220  0.3795
 2025TIP3   OH230269   1.630   0.424  18.944  0.0202  1.2555  0.0940
 2025TIP3    H130270   1.693   0.481  18.989  0.4666  0.7917  0.0687
 2025TIP3    H230271   1.676   0.340  18.935 -1.3838  0.1601  2.1385
 2026TIP3   OH230272   2.692   5.342  17.007 -0.6902  0.5109  0.5724
 2026TIP3    H130273   2.631   5.283  16.964  0.1440 -0.5572  0.7895
 2026TIP3    H230274   2.663   5.430  16.982 -1.2780 -0.0188 -0.7159
 2027TIP3   OH230275   5.120   0.539  17.994  0.0749  0.2474  0.6053
 2027TIP3    H130276   5.033   0.501  17.997 -0.3221  1.0239 -0.4209
 2027TIP3    H230277   5.108   0.631  18.016  0.2824  0.8474 -1.4817
 2028TIP3   OH230278   6.913   0.199  17.404 -0.6804  0.6248 -0.2885
 2028TIP3    H130279   6.871   0.144  17.338  0.0194 -0.4876  0.1567
 2028TIP3    H230280   6.981   0.143  17.442 -1.3948  1.0256  1.7361
 2029TIP3   OH230281   4.183   2.371  18.309  0.2885 -0.5887 -0.0270
 2029TIP3    H130282   4.233   2.367  18.390  1.1535 -1.5064 -0.5802
 2029TIP3    H230283   4.181   2.281  18.277  1.5264 -0.0075 -1.9258
 2030TIP3   OH230284   3.211   4.756  17.017  0.1568  0.2150  0.2433
 2030TIP3    H130285   3.177   4.728  16.933  2.7006  2.2957 -1.6324
 2030TIP3    H230286   3.301   4.723  17.019 -0.1522 -0.6819  2.6583
 2031TIP3   OH230287   7.048   6.677  19.270 -0.2330  0.5605  0.0417
 2031TIP3    H130288   7.047   6.633  19.355  0.9296  0.1163 -0.1572
 2031TIP3    H230289   7.058   6.606  19.206  0.0934  0.9856 -0.3878
 2032TIP3   OH230290   4.471   1.868  17.433 -0.8393 -0.3426 -0.2648
 2032TIP3    H130291   4.488   1.847  17.341 -2.4140 -0.7783 -0.4780
 2032TIP3    H230292   4.395   1.815  17.457 -0.4596 -0.2425  1.3035
 2033TIP3   OH230293   3.321   0.632  18.394  0.0997 -0.1753 -0.1707
 2033TIP3    H130294   3.264   0.560  18.421  1.3987 -1.2727 -0.2540
 2033TIP3    H230295   3.262   0.707  18.385 -1.1578 -1.0119  0.7361
 2034TIP3   OH230296   3.717   6.224  18.349 -0.0082  0.1205  0.0603
 2034TIP3    H130297   3.717   6.129  18.336  0.3148  0.1859 -0.4432
 2034TIP3    H230298   3.799   6.241  18.396 -0.3641  0.0822  0.7084
 2035TIP3   OH230299   4.901   7.113  16.807 -0.0439  0.1992  0.1554
 2035TIP3    H130300   4.926   7.119  16.899 -2.9240  0.3592  1.0106
 2035TIP3    H230301   4.882   7.020  16.794  1.4189 -0.0308 -0.6643
 2036TIP3   OH230302   4.184   0.645  17.806 -0.9090  0.1229  0.2572
 2036TIP3    H130303   4.103   0.695  17.816 -1.0926 -0.0270 -0.4142
 2036TIP3    H230304   4.238   0.700  17.750  0.2466  1.1323  2.2506
 2037TIP3   OH230305   6.774   6.618  18.629 -0.2545 -0.1040 -0.3855
 2037TIP3    H130306   6.774   6.710  18.656  1.3812 -0.2127  0.0596
 2037TIP3    H230307   6.771   6.568  18.711  0.5199 -0.4400 -0.5540
 2038TIP3   OH230308   1.878   2.878  16.666  0.0823  0.1671  0.1336
 2038TIP3    H130309   1.955   2.848  16.716 -0.5470  0.9005  1.6137
 2038TIP3    H230310   1.804   2.861  16.725 -0.7076  0.9897 -0.6023
 2039TIP3   OH230311   4.656   2.400  17.968  0.3683 -0.0612 -0.4180
 2039TIP3    H130312   4.637   2.364  17.881 -0.0402  1.2986 -0.9235
 2039TIP3    H230313   4.605   2.481  17.972  0.8609  0.2144  0.8647
 2040TIP3   OH230314   0.862   7.203  18.814  0.3301  0.2527 -0.7090
 2040TIP3    H130315   0.790   7.203  18.877 -0.2033 -0.7680 -1.2887
 2040TIP3    H230316   0.821   7.224  18.731  1.0112  1.4778 -0.7509
 2041TIP3   OH230317  -0.010   5.045  19.231  0.1191  0.5169 -0.1048
 2041TIP3    H130318  -0.074   5.111  19.255 -0.2283  0.2593 -0.3174
 2041TIP3    H230319  -0.059   4.979  19.182  0.3966 -0.0370  0.3325
 2042TIP3   OH230320   3.903   2.322  19.109  0.2143  0.6091 -0.4007
 2042TIP3    H130321   3.909   2.307  19.204  1.2492  2.2192 -0.1729
 2042TIP3    H230322   3.980   2.376  19.088  3.5298 -4.4519 -3.2494
 2043TIP3   OH230323   4.140   6.642  19.073 -0.1000  0.0933  0.5524
 2043TIP3    H130324   4.214   6.695  19.042 -0.5968  1.1365  1.0985
 2043TIP3    H230325   4.119   6.677  19.159 -0.8689 -0.5700  0.6538
 2044TIP3   OH230326   5.183   6.836  18.908 -0.2925 -0.1392 -0.1301
 2044TIP3    H130327   5.207   6.747  18.882  0.1246 -0.1877  0.4135
 2044TIP3    H230328   5.089   6.831  18.925 -0.2944 -0.4510 -0.2188
 2045TIP3   OH230329   6.715   4.668  16.899  0.1518  0.1490 -0.2141
 2045TIP3    H130330   6.786   4.713  16.945  0.5448 -0.8112  0.1391
 2045TIP3    H230331   6.720   4.701  16.809 -1.1685  2.7121  0.5544
 2046TIP3   OH230332   1.482   4.204  19.137  0.1536 -0.2620 -0.1466
 2046TIP3    H130333   1.476   4.267  19.209 -0.6685 -1.7282  1.1498
 2046TIP3    H230334   1.575   4.186  19.129  0.2734  0.0255  0.4943
 2047TIP3   OH230335   4.548   3.076  17.682 -0.1261 -0.4536 -0.0634
 2047TIP3    H130336   4.614   3.096  17.615  0.1365  2.7050  0.9646
 2047TIP3    H230337   4.594   3.088  17.765 -1.4654 -0.2177  0.6757
 2048TIP3   OH230338   1.888   1.957  18.370 -0.5783  0.1827 -0.3998
 2048TIP3    H130339   1.967   1.917  18.405  0.6797  2.1330 -0.8633
 2048TIP3    H230340   1.829   1.883  18.352  0.5263 -1.1912  1.3609
 2049TIP3   OH230341   7.009   0.226  18.460 -0.3176 -0.1070  0.2060
 2049TIP3    H130342   7.093   0.240  18.417 -0.7731  1.4510 -0.2287
 2049TIP3    H230343   7.015   0.137  18.495  0.4434 -1.1104 -2.2254
 2050TIP3   OH230344   7.171   0.984  18.709  0.0148 -0.0374 -0.3498
 2050TIP3    H130345   7.144   0.902  18.669  0.2930 -1.3852  2.0519
 2050TIP3    H230346   7.266   0.975  18.721  0.1273  0.8422 -0.4892
 2051TIP3   OH230347   2.993   7.309  17.367  0.0545  0.4116  0.5183
 2051TIP3    H130348   2.926   7.259  17.321  1.3051 -0.2301 -0.6577
 2051TIP3    H230349   2.967   7.400  17.354 -0.0331  0.2108 -0.8141
 2052TIP3   OH230350   2.479   3.664  17.156  0.1174 -0.6524 -0.6649
 2052TIP3    H130351   2.433   3.625  17.230  2.3128 -1.7648  0.1910
 2052TIP3    H230352   2.530   3.592  17.119  0.0720  0.1928 -2.4936
 2053TIP3   OH230353   7.026   6.696  18.164  0.7820 -0.3643  0.0857
 2053TIP3    H130354   6.933   6.687  18.184  0.8348  0.7041  0.9319
 2053TIP3    H230355   7.065   6.728  18.246  1.9625 -1.1684 -0.1413
 2054TIP3   OH230356   2.526   2.452  16.414 -0.7798 -0.1594  0.4356
 2054TIP3    H130357   2.453   2.410  16.458 -0.9820 -0.1988  0.0576
 2054TIP3    H230358   2.535   2.537  16.458 -0.8545 -0.2797  0.6838
 2055TIP3   OH230359   3.302   3.014  19.054  0.0340 -0.2089  1.1285
 2055TIP3    H130360   3.352   3.094  19.070  0.1765  0.0241 -0.3877
 2055TIP3    H230361   3.219   3.028  19.100 -0.2459  1.1494  0.2702
 2056TIP3   OH230362   1.699   4.352  18.665 -0.2450  0.0337  1.1497
 2056TIP3    H130363   1.736   4.420  18.721 -1.6949  2.2267 -0.4233
 2056TIP3    H230364   1.607   4.348  18.690 -0.5944  0.0374 -0.0732
 2057TIP3   OH230365   1.829   5.658  18.651  0.1611  0.3210  0.0051
 2057TIP3    H130366   1.833   5.571  18.611  0.4802  1.1883 -1.9327
 2057TIP3    H230367   1.748   5.696  18.618  0.0376  0.7928  0.8211
 2058TIP3   OH230368   6.683   5.197  17.951  0.2657  0.0020 -0.3973
 2058TIP3    H130369   6.708   5.259  18.019 -1.0831 -1.3509  1.4314
 2058TIP3    H230370   6.765   5.174  17.907  1.2295  0.6570  1.0061
 2059TIP3   OH230371   1.184   1.147  18.532  0.1839  0.3046  0.1707
 2059TIP3    H130372   1.256   1.084  18.539 -1.3899 -1.6531 -0.4969
 2059TIP3    H230373   1.189   1.197  18.613  1.1713 -1.0299  0.9796
 2060TIP3   OH230374   3.350   1.242  17.221 -0.2019 -0.4565 -0.2852
 2060TIP3    H130375   3.338   1.152  17.194  0.0460 -0.5812  0.0084
 2060TIP3    H230376   3.287   1.292  17.170 -1.0121 -0.9131  0.2593
 2061TIP3   OH230377   6.587   4.240  17.209 -0.1483  0.5792 -0.9180
 2061TIP3    H130378   6.600   4.274  17.297  1.6391 -0.5532 -0.6915
 2061TIP3    H230379   6.637   4.299  17.153 -0.6507  0.8450 -1.0999
 2062TIP3   OH230380   7.715   1.734  16.747  0.5458  0.0243 -0.3590
 2062TIP3    H130381   7.689   1.647  16.776  1.2091 -0.4043 -1.0005
 2062TIP3    H230382   7.632   1.781  16.735  0.2484  0.1683  1.9589
 2063TIP3   OH230383   3.563   6.181  18.627 -0.0520  0.1680 -0.1338
 2063TIP3    H130384   3.616   6.193  18.548 -0.0606  0.6211 -0.0689
 2063TIP3    H230385   3.611   6.228  18.696  0.4739 -1.0384  0.3530
 2064TIP3   OH230386   4.540   3.364  17.751  0.1412  0.0052 -0.4086
 2064TIP3    H130387   4.453   3.346  17.715  0.0465 -0.7857  0.1735
 2064TIP3    H230388   4.586   3.280  17.747  0.0190 -0.2124  1.5260
 2065TIP3   OH230389   0.410   2.370  17.412 -0.2186  0.9430 -0.2000
 2065TIP3    H130390   0.492   2.413  17.386  2.6950 -3.7446  0.0983
 2065TIP3    H230391   0.388   2.315  17.336 -1.8113  0.4085  0.6188
 2066TIP3   OH230392   7.537   5.781  18.769  0.3975  0.3230  0.0662
 2066TIP3    H130393   7.611   5.721  18.784  0.0726  0.1520  1.0178
 2066TIP3    H230394   7.524   5.825  18.853 -0.8952 -0.0013  0.0552
 2067TIP3   OH230395   0.992   3.838  18.577 -0.0394  0.3224 -0.2544
 2067TIP3    H130396   1.059   3.806  18.637  0.6916  1.7083 -0.2799
 2067TIP3    H230397   1.011   3.931  18.568 -1.5264  0.5924 -0.8634
 2068TIP3   OH230398   4.533   5.209  17.557 -0.1129 -0.4019 -0.3879
 2068TIP3    H130399   4.453   5.159  17.542 -0.4014  0.7434 -3.3964
 2068TIP3    H230400   4.576   5.211  17.471  2.5406  0.0743  0.8552
 2069TIP3   OH230401   1.107   7.236  18.954 -0.5676 -0.4819 -0.0150
 2069TIP3    H130402   1.068   7.218  18.869 -2.7830  0.1860  0.7888
 2069TIP3    H230403   1.103   7.331  18.963 -0.6004 -0.5633  0.9290
 2070TIP3   OH230404   4.698   3.395  18.557 -0.4713 -0.3600  0.7025
 2070TIP3    H130405   4.666   3.367  18.643 -2.1252  2.4473  1.1204
 2070TIP3    H230406   4.749   3.474  18.574  0.6690 -0.7337 -0.7612
 2071TIP3   OH230407   1.293   2.637  17.820  0.3912 -0.3836  0.0479
 2071TIP3    H130408   1.350   2.711  17.798 -0.8159  0.8719  0.9047
 2071TIP3    H230409   1.207   2.677  17.831 -0.6135 -2.1639 -0.8767
 2072TIP3   OH230410   5.002   0.450  19.030  0.1765  0.6598 -0.0058
 2072TIP3    H130411   5.047   0.417  19.108 -0.7724  1.1797  0.7858
 2072TIP3    H230412   4.954   0.527  19.061  0.6582  1.5443 -1.3518
 2073TIP3   OH230413   4.646   2.788  19.695  0.0013  0.0539 -1.2370
 2073TIP3    H130414   4.709   2.734  19.743  0.7585  2.7375  1.0433
 2073TIP3    H230415   4.685   2.800  19.608  1.9746  0.5158 -0.3196
 2074TIP3   OH230416   2.142   6.120  17.679  0.2835  0.0905  0.2385
 2074TIP3    H130417   2.107   6.205  17.651 -0.7555 -0.5747 -0.5868
 2074TIP3    H230418   2.079   6.056  17.645  1.8399 -1.1151 -0.5079
 2075TIP3   OH230419   0.662   2.165  17.639 -0.4806 -0.5592  0.3643
 2075TIP3    H130420   0.654   2.184  17.545  0.1412 -1.8208  0.0292
 2075TIP3    H230421   0.675   2.070  17.642 -1.6014 -0.6945  1.8054
 2076TIP3   OH230422   7.096   5.080  17.667  0.3286  0.1283 -0.3869
 2076TIP3    H130423   7.152   5.013  17.705 -0.0260 -0.3571 -0.6980
 2076TIP3    H230424   7.149   5.160  17.668  1.0889 -0.3558 -0.8375
 2077TIP3   OH230425   5.823   4.328  18.959  0.0919 -0.2832  0.2979
 2077TIP3    H130426   5.752   4.295  19.014  1.2702 -0.0718  2.0404
 2077TIP3    H230427   5.780   4.388  18.898 -1.4846 -1.7766 -0.1397
 2078TIP3   OH230428   7.357   2.979  19.575  0.2150 -0.1850 -0.2004
 2078TIP3    H130429   7.401   2.915  19.518  4.2791 -0.1367  2.4949
 2078TIP3    H230430   7.365   3.062  19.528  3.1565 -0.2046  0.0414
 2079TIP3   OH230431   2.407   6.570  17.289 -0.0300  0.6049 -0.0854
 2079TIP3    H130432   2.363   6.612  17.215  1.9982  0.9765 -1.1444
 2079TIP3    H230433   2.420   6.479  17.262 -1.3857  0.1000  0.8294
 2080TIP3   OH230434   1.731   4.059  19.143 -0.0429  0.0182  0.5163
 2080TIP3    H130435   1.778   4.062  19.060  0.0991 -1.1410  0.5387
 2080TIP3    H230436   1.771   4.127  19.196 -2.3967  3.2615 -1.4866
 2081TIP3   OH230437   0.405   2.536  17.969  0.4037  0.3430 -0.2907
 2081TIP3    H130438   0.443   2.534  17.881  1.6570 -0.6115  0.2465
 2081TIP3    H230439   0.337   2.468  17.968 -0.4022  1.1445 -0.8607
 2082TIP3   OH230440   4.203   7.216  17.938  0.3836 -0.1095  0.3124
 2082TIP3    H130441   4.132   7.280  17.945 -0.2318 -0.7844  0.3974
 2082TIP3    H230442   4.281   7.268  17.920 -0.3763  0.5459 -1.2733
 2083TIP3   OH230443   7.451   1.458  18.327  0.2150 -0.6468 -0.2996
 2083TIP3    H130444   7.375   1.402  18.342 -0.6640  0.9277  1.4656
 2083TIP3    H230445   7.526   1.398  18.329 -0.8393 -2.0215 -0.5806
 2084TIP3   OH230446   1.645   2.910  19.052 -0.8337 -0.6234 -0.1533
 2084TIP3    H130447   1.640   2.832  19.108 -1.1862 -1.1537 -0.9109
 2084TIP3    H230448   1.677   2.979  19.110 -3.2953 -0.6033  1.3137
 2085TIP3   OH230449   3.935   0.375  18.017 -0.1038  0.0095  0.1545
 2085TIP3    H130450   3.911   0.462  18.048  1.8441  0.6535 -0.0071
 2085TIP3    H230451   3.857   0.321  18.033 -1.7892  2.0170 -0.8336
 2086TIP3   OH230452   2.447   6.268  18.674 -0.4346 -0.0740 -0.2896
 2086TIP3    H130453   2.356   6.283  18.649 -0.9650 -0.7494  1.1095
 2086TIP3    H230454   2.471   6.345  18.725 -0.8610 -0.7107  0.9208
 2087TIP3   OH230455   2.518   5.369  18.273 -0.1228 -0.1955  0.2635
 2087TIP3    H130456   2.483   5.425  18.342 -0.8264 -0.1458 -0.1217
 2087TIP3    H230457   2.440   5.337  18.226  0.3094 -0.7909 -0.0636
 2088TIP3   OH230458   1.753   6.192  17.623  0.0531 -0.5422  0.1312
 2088TIP3    H130459   1.666   6.215  17.657  0.7155  0.2827  1.3558
 2088TIP3    H230460   1.784   6.123  17.682  0.7390  0.0774  0.5167
 2089TIP3   OH230461   3.173   2.747  18.754 -0.1025 -0.0658 -0.1432
 2089TIP3    H130462   3.235   2.725  18.823 -0.1859 -0.7417 -0.2751
 2089TIP3    H230463   3.206   2.828  18.717 -0.4182  0.6688  1.1180
 2090TIP3   OH230464   2.909   5.089  17.254  0.8272  0.0344 -0.1901
 2090TIP3    H130465   2.857   5.109  17.176  0.0683 -1.4848 -0.1163
 2090TIP3    H230466   2.970   5.022  17.225  0.2908 -0.8130  0.5957
 2091TIP3   OH230467   6.816   1.974  18.145 -0.3853 -0.2276 -0.0429
 2091TIP3    H130468   6.897   2.024  18.160  0.3084 -1.1310 -0.6809
 2091TIP3    H230469   6.842   1.883  18.156 -1.0580 -0.6027 -1.3289
 2092TIP3   OH230470   5.228   4.952  19.392  0.2436 -0.5555  0.4115
 2092TIP3    H130471   5.228   4.941  19.488 -0.0135 -1.2982  0.3344
 2092TIP3    H230472   5.150   4.906  19.363  0.5506 -0.6985 -0.1983
 2093TIP3   OH230473   0.267   3.276  16.872  0.2679 -0.0530  0.1310
 2093TIP3    H130474   0.257   3.214  16.801  0.8556  0.3230 -0.2936
 2093TIP3    H230475   0.249   3.361  16.833 -1.7088 -0.0406  0.9811
 2094TIP3   OH230476   1.852   5.714  18.924  0.6422 -0.7212 -0.1626
 2094TIP3    H130477   1.836   5.722  18.830 -2.4467  2.4891  0.4110
 2094TIP3    H230478   1.943   5.741  18.935  1.1577 -1.4228 -2.2215
 2095TIP3   OH230479   7.240   6.234  17.672 -1.3112  0.5086 -0.3257
 2095TIP3    H130480   7.323   6.212  17.630 -0.4145  2.7279  0.1329
 2095TIP3    H230481   7.210   6.152  17.710  2.0849  0.0314  1.8227
 2096TIP3   OH230482   0.495   3.546  16.534  0.6711 -0.3563 -0.4674
 2096TIP3    H130483   0.580   3.572  16.497  0.9377 -1.7780 -0.9099
 2096TIP3    H230484   0.431   3.590  16.479  1.1076 -0.8018 -1.3629
 2097TIP3   OH230485   7.301   6.564  18.762 -0.4118 -0.0305  0.1041
 2097TIP3    H130486   7.333   6.615  18.837  0.3475  0.2697 -0.4168
 2097TIP3    H230487   7.333   6.475  18.778  0.0992  0.1219 -0.0694
 2098TIP3   OH230488   4.675   4.627  17.887 -0.0090  0.5810 -0.9371
 2098TIP3    H130489   4.666   4.713  17.929  1.2541  0.5980 -0.6725
 2098TIP3    H230490   4.589   4.612  17.846 -1.1963  0.7423  1.3168
 2099TIP3   OH230491   4.623   6.588  18.334  0.3321 -0.8071 -0.3926
 2099TIP3    H130492   4.639   6.522  18.267  1.0863  0.3526 -1.3970
 2099TIP3    H230493   4.528   6.602  18.330  0.5943  0.9163 -2.9291
 2100TIP3   OH230494   0.831   5.028  17.810 -0.2446  0.4700  0.3761
 2100TIP3    H130495   0.756   5.086  17.818 -0.9130 -0.5018  1.4543
 2100TIP3    H230496   0.813   4.974  17.734 -0.9004 -0.1106  0.9352
 2101TIP3   OH230497   4.759   4.250  18.767  0.0021  0.2125  0.0985
 2101TIP3    H130498   4.697   4.177  18.772  1.0886 -0.6623  2.9316
 2101TIP3    H230499   4.727   4.312  18.833 -2.2849  3.6583 -3.8068
 2102TIP3   OH230500   4.209   6.368  19.091  0.0486  0.0573  0.9617
 2102TIP3    H130501   4.158   6.448  19.086  0.1929  0.1435  0.8837
 2102TIP3    H230502   4.247   6.369  19.179 -0.9246 -0.5174  1.4119
 2103TIP3   OH230503   0.432   4.799  19.591 -0.5340 -0.2453 -0.2713
 2103TIP3    H130504   0.463   4.890  19.589  0.6632 -0.6501 -0.3857
 2103TIP3    H230505   0.346   4.805  19.634  0.2161  0.7573  1.1702
 2104TIP3   OH230506   7.021   0.708  17.091 -0.0101  0.1515 -0.4858
 2104TIP3    H130507   7.038   0.745  17.004 -1.1167  0.2360 -0.6888
 2104TIP3    H230508   7.040   0.615  17.082 -0.6940  0.0513 -1.0052
 2105TIP3   OH230509   1.387   0.972  18.582  0.3909 -0.1755  0.2795
 2105TIP3    H130510   1.399   0.885  18.545  0.4275  0.0514 -0.2582
 2105TIP3    H230511   1.467   1.019  18.560  1.0512 -0.4689  1.9334
 2106TIP3   OH230512   1.450   1.055  17.539 -0.0327 -0.2346 -0.0143
 2106TIP3    H130513   1.543   1.035  17.549  0.1706  0.3637 -0.6505
 2106TIP3    H230514   1.413   0.978  17.496  0.0754 -0.6557  0.6270
 2107TIP3   OH230515   1.058   6.487  18.022  0.6040  0.1793 -0.1077
 2107TIP3    H130516   1.114   6.434  18.079  0.1995 -0.7092 -0.5071
 2107TIP3    H230517   1.107   6.567  18.007  1.0550  0.0929  0.8535
 2108TIP3   OH230518   7.090   5.396  19.467  0.2783  0.2689 -0.0619
 2108TIP3    H130519   7.018   5.404  19.530 -0.8331 -1.2760 -1.0762
 2108TIP3    H230520   7.168   5.383  19.521 -0.4482  0.2522  1.0179
 2109TIP3   OH230521   5.118   4.797  18.974  0.7707 -0.3690 -0.0319
 2109TIP3    H130522   5.171   4.724  18.943 -1.0875 -0.5722 -3.1070
 2109TIP3    H230523   5.031   4.782  18.936  0.6744  4.1986 -2.3336
 2110TIP3   OH230524   1.077   6.237  17.532  0.1073  0.4692 -0.5234
 2110TIP3    H130525   1.065   6.146  17.503  0.8093  0.1166  0.2262
 2110TIP3    H230526   1.132   6.276  17.465  2.6041 -0.6403  0.7268
 2111TIP3   OH230527   4.979   5.663  16.805  0.0669 -0.0962  0.2565
 2111TIP3    H130528   4.914   5.601  16.773  1.1743 -0.3252 -1.7264
 2111TIP3    H230529   4.929   5.726  16.856 -1.4446 -1.2292  0.2333
 2112TIP3   OH230530   1.539   5.102  18.995 -0.2826  0.4066  0.5243
 2112TIP3    H130531   1.609   5.160  18.966 -1.1775  1.8809  1.1780
 2112TIP3    H230532   1.482   5.094  18.918  0.3021 -0.3497  0.1596
 2113TIP3   OH230533   2.353   2.872  17.163  0.0043  0.1349  0.0407
 2113TIP3    H130534   2.439   2.915  17.158  0.2552 -0.0732  1.7620
 2113TIP3    H230535   2.346   2.844  17.255 -2.0773  0.4775  0.0330
 2114TIP3   OH230536   4.792   0.024  17.176 -0.5852 -0.0006 -0.2835
 2114TIP3    H130537   4.739   0.043  17.098  1.7069  1.0650 -1.6672
 2114TIP3    H230538   4.869  -0.021  17.142  0.1661 -0.0820  1.4661
 2115TIP3   OH230539   5.413   5.583  17.634  0.2839 -0.2545 -0.3115
 2115TIP3    H130540   5.502   5.587  17.599  0.1966 -0.0570 -0.5124
 2115TIP3    H230541   5.361   5.546  17.562 -0.5047  3.0489 -1.6235
 2116TIP3   OH230542   5.896   0.429  18.655 -0.0166 -0.1306  0.1777
 2116TIP3    H130543   5.855   0.491  18.595 -0.3335 -0.1906  0.3280
 2116TIP3    H230544   5.926   0.357  18.599  0.8592  0.4166 -0.0667
 2117TIP3   OH230545   2.331   5.777  19.186  0.0207 -0.0392  0.0505
 2117TIP3    H130546   2.344   5.728  19.105 -0.4659 -0.4440  0.2084
 2117TIP3    H230547   2.413   5.767  19.234  0.3200  0.2308 -0.4054
 2118TIP3   OH230548   5.576   1.988  18.955  0.5726 -1.2043  0.4109
 2118TIP3    H130549   5.554   1.955  18.868  1.5041  1.3782 -0.8918
 2118TIP3    H230550   5.492   1.996  19.000 -0.2478 -0.1191 -1.2268
 2119TIP3   OH230551   3.375   4.364  17.337  0.5821  0.3821 -0.7088
 2119TIP3    H130552   3.349   4.282  17.379 -0.3760  0.8106 -0.4322
 2119TIP3    H230553   3.366   4.347  17.243 -1.8124  0.8062 -0.6329
 2120TIP3   OH230554   6.495   0.614  16.874  0.4926 -0.2352  0.1404
 2120TIP3    H130555   6.498   0.521  16.851  0.2126 -0.2189  0.0337
 2120TIP3    H230556   6.584   0.645  16.860  0.8743 -0.7535  1.3049
 2121TIP3   OH230557   7.220   5.996  19.335 -0.4021 -0.3301  0.0450
 2121TIP3    H130558   7.230   5.921  19.276 -0.4396  0.1070 -0.5284
 2121TIP3    H230559   7.180   6.064  19.281 -0.7983 -0.0440  0.6859
 2122TIP3   OH230560   5.635   4.418  18.774 -0.2304  0.5817 -0.2044
 2122TIP3    H130561   5.622   4.397  18.681 -1.2538  1.7644 -0.3570
 2122TIP3    H230562   5.546   4.434  18.806  0.1824  0.8047  0.8303
 2123TIP3   OH230563   7.110   0.041  18.796 -0.3715  0.4481  0.0107
 2123TIP3    H130564   7.157  -0.031  18.837  1.6755  0.1233 -2.6180
 2123TIP3    H230565   7.121   0.115  18.857  2.3780 -0.0223  0.2260
 2124TIP3   OH230566   0.698   5.632  18.720 -0.1410 -0.2166  0.0001
 2124TIP3    H130567   0.615   5.652  18.764  1.6607  1.2946  3.0979
 2124TIP3    H230568   0.673   5.606  18.632 -3.9753 -1.2109  1.1815
 2125TIP3   OH230569   6.724   3.866  18.040  0.1865 -0.1540 -0.1868
 2125TIP3    H130570   6.679   3.948  18.058  1.1183  0.3146  0.0477
 2125TIP3    H230571   6.805   3.892  17.996  0.6163 -0.9243  0.1294
 2126TIP3   OH230572   4.662   4.719  18.945 -0.1719  0.1319  0.4013
 2126TIP3    H130573   4.698   4.633  18.922  2.1085  1.6058 -2.2043
 2126TIP3    H230574   4.726   4.781  18.911 -3.0043  2.9321 -0.3000
 2127TIP3   OH230575   4.262   4.922  18.800 -0.2180  0.7555 -0.3996
 2127TIP3    H130576   4.275   4.839  18.847  0.3803 -0.6821 -2.9243
 2127TIP3    H230577   4.346   4.937  18.756 -0.7299  2.0747 -0.9514
 2128TIP3   OH230578   0.827   5.134  18.885 -0.5897 -0.0176  0.0737
 2128TIP3    H130579   0.824   5.138  18.789  0.5027 -1.0455 -0.0322
 2128TIP3    H230580   0.909   5.179  18.907 -0.3667 -0.6128  0.4562
 2129TIP3   OH230581   6.946   1.380  18.868  0.2187  0.2700  0.3380
 2129TIP3    H130582   6.943   1.285  18.854  0.4268  0.1883  0.8280
 2129TIP3    H230583   6.963   1.417  18.781  0.5793 -0.1649  0.2226
 2130TIP3   OH230584   6.857   6.091  18.190 -0.1414 -0.3220 -0.6062
 2130TIP3    H130585   6.878   6.143  18.113 -0.9581  0.9483 -0.0156
 2130TIP3    H230586   6.766   6.063  18.176 -0.5344  0.5069  0.1812
 2131TIP3   OH230587   6.182   2.343  18.925 -0.0799 -0.0040 -0.1900
 2131TIP3    H130588   6.242   2.279  18.962 -0.9067 -0.2385  0.7941
 2131TIP3    H230589   6.106   2.292  18.897 -0.9609  0.5664  1.0621
 2132TIP3   OH230590   4.181   3.230  19.488 -0.3052  0.1961  0.1840
 2132TIP3    H130591   4.208   3.297  19.551  1.0597 -0.9333  0.8618
 2132TIP3    H230592   4.146   3.280  19.414 -0.5758  1.5998  1.2081
 2133TIP3   OH230593   2.435   2.158  18.425  0.2599 -0.4413 -0.2569
 2133TIP3    H130594   2.454   2.223  18.357 -0.5305 -0.3324 -0.3840
 2133TIP3    H230595   2.516   2.151  18.475  0.7297 -0.2355 -0.9715
 2134TIP3   OH230596   4.507   0.723  17.179  0.5743  0.3818  0.0171
 2134TIP3    H130597   4.507   0.632  17.149  0.2471  0.6163 -0.7206
 2134TIP3    H230598   4.415   0.742  17.198  0.7620  0.2733  1.0870
 2135TIP3   OH230599   5.565   6.134  18.458 -0.0930 -0.7043 -0.2135
 2135TIP3    H130600   5.641   6.119  18.513 -0.1270 -1.2671 -0.3197
 2135TIP3    H230601   5.567   6.228  18.440  1.3726 -0.9138 -1.3787
 2136TIP3   OH230602   1.897   2.828  17.560  0.4054 -0.1702 -0.2252
 2136TIP3    H130603   1.975   2.867  17.521  1.3938 -0.3083  1.5167
 2136TIP3    H230604   1.909   2.734  17.548  0.5052 -0.1910  0.0333
 2137TIP3   OH230605   4.781   5.939  19.276 -0.2839  0.2415 -0.2017
 2137TIP3    H130606   4.743   6.024  19.299 -0.2735  0.3221 -0.4682
 2137TIP3    H230607   4.827   5.910  19.354 -1.5618 -0.2290  0.3903
 2138TIP3   OH230608   3.320   4.100  17.450 -0.1328 -0.4302 -0.0391
 2138TIP3    H130609   3.318   4.105  17.545  2.2462 -0.4090  0.0764
 2138TIP3    H230610   3.284   4.014  17.430 -2.4582  0.3036  0.7015
 2139TIP3   OH230611   5.982   5.358  17.859 -0.1734  0.1220 -0.1019
 2139TIP3    H130612   6.009   5.325  17.944  1.5958 -0.7448 -0.9539
 2139TIP3    H230613   6.060   5.403  17.825 -1.5073  2.4099 -0.3620
 2140TIP3   OH230614   2.369   2.958  16.809 -0.5210 -0.0398  0.2504
 2140TIP3    H130615   2.304   2.991  16.747 -0.7343  0.1616  0.5799
 2140TIP3    H230616   2.348   2.865  16.819 -1.7816  0.3425  1.5764
 2141TIP3   OH230617   4.927   2.480  17.970 -0.4051  0.2577 -0.0098
 2141TIP3    H130618   4.906   2.484  17.877 -1.4765 -1.1097  0.1396
 2141TIP3    H230619   4.850   2.440  18.010  0.0199  0.8612  1.4795
 2142TIP3   OH230620   0.890   4.685  19.637  0.2060  0.5392 -0.3390
 2142TIP3    H130621   0.820   4.647  19.583  0.6360 -1.5564  0.5033
 2142TIP3    H230622   0.859   4.774  19.656 -2.1662 -0.2501 -0.1333
 2143TIP3   OH230623   3.682   6.386  18.786 -0.1766  0.8507 -0.2758
 2143TIP3    H130624   3.677   6.453  18.854 -0.3080  0.3058  0.2571
 2143TIP3    H230625   3.767   6.400  18.745  0.1672  0.8146  0.4017
 2144TIP3   OH230626   3.769   1.629  18.491 -0.3163  0.5727  0.0210
 2144TIP3    H130627   3.702   1.602  18.553 -0.6661  1.4093  0.0298
 2144TIP3    H230628   3.748   1.581  18.411 -1.6721  1.7104 -0.3429
 2145TIP3   OH230629   0.766   5.383  17.665 -0.7251  0.2598 -0.3285
 2145TIP3    H130630   0.713   5.452  17.624 -0.8798 -0.4189 -1.3220
 2145TIP3    H230631   0.737   5.303  17.622  0.5478 -0.2290 -0.3128
 2146TIP3   OH230632   2.631   3.552  19.390 -0.1578 -0.3962  0.3805
 2146TIP3    H130633   2.595   3.640  19.381  0.6531 -0.1236 -0.2779
 2146TIP3    H230634   2.555   3.497  19.411 -1.4066 -0.1790 -2.9105
 2147TIP3   OH230635   3.543   3.200  18.312  0.0428 -0.5172 -0.0307
 2147TIP3    H130636   3.614   3.144  18.344  1.0869  0.4270 -0.5845
 2147TIP3    H230637   3.521   3.164  18.226 -1.2992 -1.7775  0.7934
 2148TIP3   OH230638   6.341   2.575  16.931  0.6083 -0.1459 -0.2382
 2148TIP3    H130639   6.358   2.493  16.883 -0.3778 -0.4584 -0.0733
 2148TIP3    H230640   6.247   2.586  16.926  0.5334  0.0268  1.3086
 2149TIP3   OH230641   4.537   5.465  16.934 -0.5720  0.3557  0.0981
 2149TIP3    H130642   4.461   5.436  16.884 -0.0802 -0.1713 -0.3626
 2149TIP3    H230643   4.578   5.532  16.879 -1.0776  1.1507  0.6595
 2150TIP3   OH230644   7.447   2.544  19.570  0.3786 -0.3149 -0.6033
 2150TIP3    H130645   7.512   2.481  19.540 -1.2576 -1.4236 -2.0326
 2150TIP3    H230646   7.365   2.515  19.531 -0.6234  2.2586 -0.6521
 2151TIP3   OH230647   5.177   0.558  19.529  0.2979 -0.1349  0.1453
 2151TIP3    H130648   5.104   0.528  19.584  0.0504 -1.9051 -1.0776
 2151TIP3    H230649   5.192   0.649  19.557 -1.9263  0.0660  0.8963
 2152TIP3   OH230650   2.041   2.320  18.356 -0.6836 -0.0399  0.1255
 2152TIP3    H130651   2.017   2.283  18.272 -1.5693 -0.4406  0.5463
 2152TIP3    H230652   2.086   2.402  18.334 -0.9577 -0.1122 -0.7264
 2153TIP3   OH230653   0.680   0.103  19.450 -0.0953  0.2118  0.1921
 2153TIP3    H130654   0.653   0.194  19.438  1.0265  0.4653 -0.5725
 2153TIP3    H230655   0.753   0.091  19.389  1.2644 -0.5468  1.8781
 2154TIP3   OH230656   1.497   7.208  17.433  0.4269 -0.0694 -0.6203
 2154TIP3    H130657   1.403   7.212  17.413  0.3015 -0.3283 -0.1095
 2154TIP3    H230658   1.538   7.183  17.351 -0.1721 -2.0409 -0.3785
 2155TIP3   OH230659   4.418   4.674  17.774  0.0691 -0.9906  0.1000
 2155TIP3    H130660   4.370   4.752  17.803  1.5978  1.0057 -2.2410
 2155TIP3    H230661   4.360   4.633  17.709  0.1845 -0.4146 -0.3799
 2156TIP3   OH230662   1.850   0.089  18.011 -0.4177 -0.5471  0.0910
 2156TIP3    H130663   1.844   0.168  17.957  1.2004 -1.0251 -0.8663
 2156TIP3    H230664   1.907   0.114  18.083 -0.4629 -0.6607  0.1656
 2157TIP3   OH230665   5.257   5.849  17.082  0.1071  0.3032 -0.4401
 2157TIP3    H130666   5.297   5.895  17.155 -2.0648  0.3335  0.8096
 2157TIP3    H230667   5.208   5.777  17.122 -0.4773 -0.1788 -1.9187
 2158TIP3   OH230668   4.440   3.364  17.378 -0.1132 -0.5135  0.0205
 2158TIP3    H130669   4.431   3.310  17.457  1.6262  0.5811  1.0399
 2158TIP3    H230670   4.464   3.302  17.309 -1.3190 -1.4440  0.3976
 2159TIP3   OH230671   4.996   3.759  17.791  0.2157 -0.1627 -0.5909
 2159TIP3    H130672   4.956   3.708  17.721 -1.5120  1.1790 -0.6595
 2159TIP3    H230673   5.048   3.825  17.747  0.1686 -0.1140 -0.5735
 2160TIP3   OH230674   3.859   0.586  16.959  0.2822 -0.1999 -0.2582
 2160TIP3    H130675   3.886   0.674  16.988  2.4834 -1.2142  1.0978
 2160TIP3    H230676   3.942   0.541  16.943 -0.7881 -2.1757 -0.4303
 2161TIP3   OH230677   0.946   3.933  17.662 -0.2462 -0.6075 -0.1319
 2161TIP3    H130678   0.941   3.966  17.573 -1.6289 -0.5778 -0.0734
 2161TIP3    H230679   0.924   4.009  17.717  0.1661 -0.7311  0.2083
 2162TIP3   OH230680   2.030   6.771  16.925 -0.3951  0.8285 -0.5871
 2162TIP3    H130681   1.960   6.708  16.941  0.6913 -0.0009  1.2901
 2162TIP3    H230682   1.992   6.856  16.949 -0.1648  0.1303  2.6959
 2163TIP3   OH230683   5.038   5.313  19.312 -0.4166  0.0620 -0.1458
 2163TIP3    H130684   5.062   5.307  19.405  1.5805  2.5666 -0.3982
 2163TIP3    H230685   4.976   5.386  19.308 -0.0973  0.2947 -0.8537
 2164TIP3   OH230686   0.051   4.802  17.325  0.3473 -0.1239 -0.2186
 2164TIP3    H130687   0.055   4.853  17.244  2.7658  2.4289  1.3213
 2164TIP3    H230688   0.116   4.733  17.313  0.3385 -0.0589 -0.6500
 2165TIP3   OH230689   2.457   3.908  16.921  0.0166 -0.2282  0.6176
 2165TIP3    H130690   2.403   3.975  16.964 -1.3634  0.1481 -1.5265
 2165TIP3    H230691   2.539   3.953  16.900 -0.3688  0.3956  0.4150
 2166TIP3   OH230692   0.625   3.327  16.694  0.0588 -0.1925 -0.3616
 2166TIP3    H130693   0.549   3.356  16.643 -0.9155 -0.2276  1.0111
 2166TIP3    H230694   0.595   3.247  16.737  0.8377 -0.1402  0.2822
 2167TIP3   OH230695   3.027   7.366  17.678  0.0168  0.2036  0.1358
 2167TIP3    H130696   3.011   7.277  17.646  0.8794 -0.0054  0.2438
 2167TIP3    H230697   3.004   7.422  17.604  0.2799 -0.1708 -0.2434
 2168TIP3   OH230698   3.769   2.089  19.493 -0.1890 -0.2669  0.4238
 2168TIP3    H130699   3.816   2.007  19.476 -2.1681 -1.3421 -0.1797
 2168TIP3    H230700   3.696   2.064  19.549  0.6577  1.5873  2.4758
 2169TIP3   OH230701   1.585   1.133  17.248 -0.1541 -0.2609 -0.0810
 2169TIP3    H130702   1.555   1.080  17.175 -0.0375 -0.4056 -0.0261
 2169TIP3    H230703   1.615   1.070  17.313 -1.3321 -0.1779  0.5689
 2170TIP3   OH230704   4.784   3.283  17.128 -0.2920  0.3095  0.0196
 2170TIP3    H130705   4.822   3.353  17.075 -1.3976  0.8494 -0.1037
 2170TIP3    H230706   4.851   3.215  17.131  0.1107  0.6125 -1.3869
 2171TIP3   OH230707   2.186   4.776  18.511 -0.2146  0.4234  0.0242
 2171TIP3    H130708   2.144   4.699  18.471  2.9185 -2.4460  1.6837
 2171TIP3    H230709   2.114   4.823  18.553 -2.5133 -0.6439 -2.3767
 2172TIP3   OH230710   6.148   6.396  18.485  0.0811  0.8892  0.2328
 2172TIP3    H130711   6.215   6.415  18.551 -0.2315 -2.4889  1.6865
 2172TIP3    H230712   6.197   6.389  18.403  1.1079  0.9514  0.8205
 2173TIP3   OH230713   4.524   4.273  18.379 -0.0656  0.2855  0.6529
 2173TIP3    H130714   4.454   4.211  18.359 -0.9120  1.2993  0.3219
 2173TIP3    H230715   4.482   4.359  18.372  0.9076  0.8830  1.7011
 2174TIP3   OH230716   6.306   0.781  18.837 -0.2075  0.2753  0.1850
 2174TIP3    H130717   6.300   0.688  18.856  0.0166  0.4264  1.0253
 2174TIP3    H230718   6.362   0.786  18.760 -0.8938 -0.3305 -0.3713
 2175TIP3   OH230719   0.134   4.369  17.911  0.6600  0.1951  0.3662
 2175TIP3    H130720   0.150   4.291  17.964  2.5730  0.6347  0.5100
 2175TIP3    H230721   0.219   4.389  17.872 -0.6462 -0.1462 -2.9769
 2176TIP3   OH230722   3.091   7.031  19.270 -0.4140 -0.7932  0.3149
 2176TIP3    H130723   2.995   7.026  19.273 -0.4649 -0.7596 -0.8780
 2176TIP3    H230724   3.110   7.096  19.203  0.4500  0.1082  1.3926
 2177TIP3   OH230725   0.366   0.828  19.209 -0.4977 -0.5318 -0.4277
 2177TIP3    H130726   0.428   0.787  19.150  0.9643  0.3254  0.4525
 2177TIP3    H230727   0.382   0.786  19.294 -0.0440  0.7389  0.1413
 2178TIP3   OH230728   2.992   5.158  18.072  0.5836 -0.2142 -0.0320
 2178TIP3    H130729   2.923   5.105  18.032 -0.6587 -0.3956  2.1647
 2178TIP3    H230730   2.997   5.127  18.162  1.6745  1.6241  0.6027
 2179TIP3   OH230731   0.209   0.351  18.428  0.3211  0.5998  0.2642
 2179TIP3    H130732   0.128   0.312  18.459  0.4142 -0.3356 -0.6241
 2179TIP3    H230733   0.252   0.281  18.379 -0.1429  2.1525 -2.5500
 2180TIP3   OH230734   3.182   5.626  18.041  0.2691 -0.3074  0.2565
 2180TIP3    H130735   3.105   5.681  18.027 -0.4659 -0.7041  2.4695
 2180TIP3    H230736   3.202   5.635  18.134  1.9936 -1.4196  0.0371
 2181TIP3   OH230737   4.523   2.079  18.003  0.4002 -0.5271 -0.1171
 2181TIP3    H130738   4.598   2.139  18.008  0.1286 -0.0240 -1.5544
 2181TIP3    H230739   4.448   2.136  17.986  0.0453 -1.2134 -0.9238
 2182TIP3   OH230740   1.337   6.808  18.868  0.0037  0.4770 -0.0333
 2182TIP3    H130741   1.413   6.786  18.814 -0.4461 -0.4579 -0.3180
 2182TIP3    H230742   1.358   6.772  18.954 -0.4783 -0.5857 -0.3437
 2183TIP3   OH230743   0.348   6.464  18.489  0.4640 -0.1745 -0.0177
 2183TIP3    H130744   0.320   6.534  18.430 -0.4587 -0.2373  0.3235
 2183TIP3    H230745   0.432   6.434  18.454 -0.4402 -0.7565 -1.7846
 2184TIP3   OH230746   5.988   2.752  17.706 -0.5071 -0.7138 -0.1933
 2184TIP3    H130747   5.893   2.750  17.692 -0.7876 -1.3418  1.5403
 2184TIP3    H230748   6.002   2.825  17.766 -0.1333 -1.7367  0.9961
 2185TIP3   OH230749   5.923   0.182  18.441 -0.3707 -0.1399  0.4116
 2185TIP3    H130750   5.914   0.107  18.383  0.5138 -1.1610  1.5259
 2185TIP3    H230751   6.003   0.164  18.492 -1.0314  0.7492  1.8458
 2186TIP3   OH230752   3.359   6.983  17.396 -0.0861  0.9467 -0.0044
 2186TIP3    H130753   3.337   7.002  17.487 -0.0129 -1.5348  0.6076
 2186TIP3    H230754   3.281   7.008  17.346 -0.8633  0.5461  0.9944
 2187TIP3   OH230755   3.175   0.863  18.392 -0.4094 -0.1174  0.4309
 2187TIP3    H130756   3.095   0.882  18.441 -0.8040 -1.2278  0.2563
 2187TIP3    H230757   3.150   0.877  18.300  0.0525  1.0249  0.4626
 2188TIP3   OH230758   4.840   5.427  18.620 -0.1686  0.0189  0.0878
 2188TIP3    H130759   4.911   5.491  18.621  0.5232 -0.5726  3.8177
 2188TIP3    H230760   4.882   5.343  18.605 -0.9203  0.0997 -3.3927
 2189TIP3   OH230761   6.822   5.894  18.642 -0.1314  0.0414  0.1116
 2189TIP3    H130762   6.803   5.808  18.602  0.0510  0.2870 -0.5238
 2189TIP3    H230763   6.897   5.927  18.593  1.3642 -0.4876  1.9656
 2190TIP3   OH230764   1.909   7.705  18.608 -0.0809  0.1774 -0.2989
 2190TIP3    H130765   1.921   7.701  18.703 -3.1033 -0.1640  0.1450
 2190TIP3    H230766   1.832   7.760  18.595  0.2218  0.1608 -2.5681
 2191TIP3   OH230767   5.870   1.319  18.397  0.3950  0.6207 -0.0241
 2191TIP3    H130768   5.808   1.386  18.424 -1.0476 -0.6154 -0.0964
 2191TIP3    H230769   5.912   1.355  18.319 -0.2665  1.4794  0.0060
 2192TIP3   OH230770   6.011   6.983  16.883 -0.2431  0.4862 -0.4685
 2192TIP3    H130771   6.088   6.927  16.869  0.5982  1.4923  0.0153
 2192TIP3    H230772   6.035   7.039  16.956 -1.2841  1.1246 -0.6000
 2193TIP3   OH230773   7.403   2.270  18.266  0.3055 -0.8783 -0.1655
 2193TIP3    H130774   7.412   2.183  18.226  1.5410 -1.8407  2.0428
 2193TIP3    H230775   7.490   2.310  18.256 -0.7758  1.1226 -3.0958
 2194TIP3   OH230776   5.478   1.068  18.360  0.7521  0.3255  0.0434
 2194TIP3    H130777   5.438   1.144  18.317 -0.3625  0.1333  0.7008
 2194TIP3    H230778   5.509   1.101  18.444  0.6066  0.1279  0.1740
 2195TIP3   OH230779   4.608   3.149  19.290  0.0396  0.2027 -0.0021
 2195TIP3    H130780   4.577   3.138  19.380  3.5904  0.2541  1.3552
 2195TIP3    H230781   4.538   3.199  19.247 -2.1514 -0.5535  2.4234
 2196TIP3   OH230782   3.863   1.119  19.456 -0.0785  0.2342  0.5234
 2196TIP3    H130783   3.943   1.093  19.502 -1.1667 -1.9274  1.3409
 2196TIP3    H230784   3.816   1.174  19.519 -0.1291 -0.1372  0.8165
 2197TIP3   OH230785   0.051   6.202  17.667  0.2899  0.3915 -0.2760
 2197TIP3    H130786   0.060   6.108  17.683 -0.0887  0.1226 -1.5066
 2197TIP3    H230787   0.140   6.232  17.649  0.4556  0.3369  0.4344
 2198TIP3   OH230788   6.626   1.732  16.412  0.3444 -0.0882  0.0496
 2198TIP3    H130789   6.608   1.674  16.337  0.1334 -0.4691  0.3891
 2198TIP3    H230790   6.581   1.690  16.485 -0.9567  1.2173  0.0312
 2199TIP3   OH230791   6.217   5.148  19.672  0.8951 -0.3494 -0.1334
 2199TIP3    H130792   6.236   5.217  19.609  1.6875 -0.3786  0.0524
 2199TIP3    H230793   6.123   5.133  19.665  0.9596 -0.3164 -1.2701
 2200TIP3   OH230794   4.096   7.624  17.952  0.1064 -0.0035  0.0159
 2200TIP3    H130795   4.172   7.583  17.994  0.6147 -0.1249 -1.0016
 2200TIP3    H230796   4.046   7.662  18.025 -0.5085 -2.5876  1.0503
 2201TIP3   OH230797   0.677   1.881  17.588  0.0553 -0.0814  0.4561
 2201TIP3    H130798   0.598   1.835  17.559  0.5091 -0.1198 -0.7942
 2201TIP3    H230799   0.735   1.878  17.511  0.1523  2.4427  0.3758
 2202TIP3   OH230800   7.432   7.055  17.773 -0.3456  0.1004 -0.4030
 2202TIP3    H130801   7.356   7.003  17.747 -0.8355  0.7551 -0.3281
 2202TIP3    H230802   7.476   7.075  17.690 -0.3652 -0.1237 -0.4673
 2203TIP3   OH230803   3.044   4.544  18.855 -0.5118  0.4225 -0.1697
 2203TIP3    H130804   3.079   4.625  18.890 -1.7765  1.4171 -1.1043
 2203TIP3    H230805   2.958   4.568  18.820 -0.8854 -1.3022 -0.5366
 2204TIP3   OH230806   7.172   5.526  17.990  0.1546 -0.5687 -0.4828
 2204TIP3    H130807   7.129   5.480  18.062  0.1136 -1.0291 -0.7999
 2204TIP3    H230808   7.101   5.550  17.931  0.3042 -1.1896 -0.9282
 2205TIP3   OH230809   6.075   1.258  17.224  0.0818  0.3558  0.3577
 2205TIP3    H130810   5.998   1.226  17.177  0.1577  0.6525  0.0328
 2205TIP3    H230811   6.059   1.233  17.315 -0.2872  0.2076  0.2541
 2206TIP3   OH230812   1.143   4.133  19.228 -0.1753 -0.0435 -0.0022
 2206TIP3    H130813   1.224   4.084  19.240  0.2247  0.2472 -1.3631
 2206TIP3    H230814   1.088   4.077  19.174 -0.9860 -0.3317  1.0945
 2207TIP3   OH230815   1.730   1.952  17.211 -0.5209  0.1562  0.3844
 2207TIP3    H130816   1.798   2.020  17.206 -2.5964  2.3950  0.6663
 2207TIP3    H230817   1.735   1.908  17.126  1.2565  0.2412  0.3985
 2208TIP3   OH230818   1.186   5.283  18.880  0.0937 -0.8812 -0.4910
 2208TIP3    H130819   1.140   5.316  18.804 -1.8790  1.2135  1.4565
 2208TIP3    H230820   1.213   5.361  18.929 -0.3173 -2.0922  1.8398
 2209TIP3   OH230821   5.106   4.360  18.003 -0.5008  0.0187  0.2520
 2209TIP3    H130822   5.034   4.411  17.965 -0.9466  0.8482  2.1131
 2209TIP3    H230823   5.184   4.390  17.957 -1.0719  0.6625 -0.3089
 2210TIP3   OH230824   4.545   5.861  18.298  0.2120 -0.1205  0.1046
 2210TIP3    H130825   4.456   5.882  18.324 -0.0560 -1.0183 -0.0514
 2210TIP3    H230826   4.572   5.790  18.356  0.9697  0.3902  0.4025
 2211TIP3   OH230827   3.297   4.505  19.513 -0.2706 -0.1691  0.5168
 2211TIP3    H130828   3.261   4.421  19.484 -1.4511  0.0502  1.2612
 2211TIP3    H230829   3.373   4.481  19.566 -1.1963 -0.8542  1.5803
 2212TIP3   OH230830   4.883   4.286  17.256  0.2507 -0.0302 -0.5856
 2212TIP3    H130831   4.802   4.270  17.208 -0.6263 -1.2549  1.1975
 2212TIP3    H230832   4.856   4.333  17.335  1.4643  0.6917 -0.5740
 2213TIP3   OH230833   1.928   6.795  19.093 -0.2296 -0.4161  0.3577
 2213TIP3    H130834   1.849   6.743  19.085 -2.1315  2.1931  0.7285
 2213TIP3    H230835   1.997   6.732  19.114 -1.6089 -3.1456 -2.5631
 2214TIP3   OH230836   1.434   3.610  18.034  0.2242  0.1020  0.1920
 2214TIP3    H130837   1.342   3.613  18.006  0.2668 -1.2786 -0.2176
 2214TIP3    H230838   1.483   3.645  17.959  0.0711  0.2308  0.1511
 2215TIP3   OH230839   0.816   0.073  18.828  0.1903  0.8961  0.3201
 2215TIP3    H130840   0.884   0.010  18.804 -1.6563 -0.7177 -0.8818
 2215TIP3    H230841   0.815   0.070  18.924  0.0972 -0.9903  0.3042
 2216TIP3   OH230842   0.258   5.397  18.632  0.0290 -0.1099  0.1841
 2216TIP3    H130843   0.319   5.459  18.673 -0.3798  0.4507 -0.0311
 2216TIP3    H230844   0.238   5.334  18.702 -1.0078  1.0943  1.0248
 2217TIP3   OH230845   2.226   4.386  19.581 -0.0687 -0.1154  0.5545
 2217TIP3    H130846   2.305   4.434  19.605  0.6555 -1.2580  0.5361
 2217TIP3    H230847   2.249   4.342  19.499 -0.6937 -0.5415  0.6006
 2218TIP3   OH230848   5.860   2.282  19.209  0.2577  0.2118  0.3099
 2218TIP3    H130849   5.840   2.249  19.296  1.5340 -2.8891 -0.4501
 2218TIP3    H230850   5.949   2.316  19.215  0.2691  0.1919  0.2604
 2219TIP3   OH230851   4.744   3.947  17.114  0.3551 -0.2516  0.4110
 2219TIP3    H130852   4.653   3.977  17.124  0.5245 -0.1570  1.7310
 2219TIP3    H230853   4.736   3.859  17.077 -0.2474  0.0262 -0.1406
 2220TIP3   OH230854   3.293   1.471  18.578 -0.0622  0.1514  0.3153
 2220TIP3    H130855   3.272   1.521  18.499 -2.5627 -0.3368  0.5752
 2220TIP3    H230856   3.344   1.532  18.632 -0.6871  1.4614 -0.5265
 2221TIP3   OH230857   4.204   3.083  18.911 -0.1472 -0.3345 -0.4022
 2221TIP3    H130858   4.257   3.161  18.898 -1.6972  0.4494 -2.4131
 2221TIP3    H230859   4.256   3.030  18.972  1.9733  1.2572 -0.6844
 2222TIP3   OH230860   3.656   7.331  19.271  0.2841  0.2452  0.0041
 2222TIP3    H130861   3.582   7.291  19.317  0.6859  0.5376  0.9455
 2222TIP3    H230862   3.700   7.258  19.228 -2.0265  0.3516 -2.8478
 2223TIP3   OH230863   5.666   4.569  18.063 -0.0984 -0.0571 -0.3373
 2223TIP3    H130864   5.583   4.530  18.033 -0.3319  0.4835 -0.4060
 2223TIP3    H230865   5.651   4.589  18.155 -0.2702  0.6307 -0.5111
 2224TIP3   OH230866   3.890   0.237  18.899  0.2718  0.9127  0.0952
 2224TIP3    H130867   3.894   0.320  18.946 -0.6789  0.8201  0.3471
 2224TIP3    H230868   3.830   0.253  18.826  0.0993  0.4561  0.1335
 2225TIP3   OH230869   3.406   3.340  18.519 -0.2112 -0.6533 -0.2372
 2225TIP3    H130870   3.451   3.299  18.445  1.6964 -0.4816  0.7712
 2225TIP3    H230871   3.477   3.373  18.575 -1.6261  0.5057  0.9483
 2226TIP3   OH230872   1.664   0.718  16.617  0.6020  0.1454 -0.1770
 2226TIP3    H130873   1.609   0.649  16.656  0.9895  0.8749  1.7971
 2226TIP3    H230874   1.604   0.769  16.563  0.2593 -1.5554 -1.5118
 2227TIP3   OH230875   5.187   3.481  19.124  0.5665  0.0644  0.1895
 2227TIP3    H130876   5.152   3.547  19.064 -0.2839  1.2133  1.8548
 2227TIP3    H230877   5.281   3.482  19.108  0.3869  0.4322 -1.0044
 2228TIP3   OH230878   7.409   7.396  18.819  0.2662 -0.7070 -0.0054
 2228TIP3    H130879   7.403   7.352  18.734  0.1247  0.3800 -0.5804
 2228TIP3    H230880   7.475   7.348  18.867  3.8086  1.2949 -2.4309
 2229TIP3   OH230881   4.865   5.342  17.577 -0.4064  0.0584  0.6670
 2229TIP3    H130882   4.944   5.395  17.585 -1.4151  1.7204  0.2661
 2229TIP3    H230883   4.855   5.329  17.483 -0.5893 -0.1800  0.7197
 2230TIP3   OH230884   7.261   3.173  18.388 -0.4826  0.2296  0.2076
 2230TIP3    H130885   7.199   3.230  18.433 -1.4088 -0.1438 -0.5730
 2230TIP3    H230886   7.311   3.131  18.459 -0.3654  1.3554  0.8093
 2231TIP3   OH230887   2.965   4.916  19.415  0.0585 -0.1802  0.0333
 2231TIP3    H130888   2.900   4.919  19.345 -0.3348 -0.6900  0.3699
 2231TIP3    H230889   3.007   4.830  19.406 -1.7480 -1.3661  1.9485
 2232TIP3   OH230890   5.622   6.813  16.400 -0.3726 -0.1530  0.1020
 2232TIP3    H130891   5.598   6.903  16.421 -0.7836 -0.5685  1.6032
 2232TIP3    H230892   5.553   6.782  16.342  0.1471  0.6895 -1.0056
 2233TIP3   OH230893   0.359   2.192  17.167  0.0216 -0.1157 -0.3889
 2233TIP3    H130894   0.365   2.114  17.112  1.1508  0.0506 -0.5371
 2233TIP3    H230895   0.276   2.233  17.142  0.5873  0.0557 -2.1305
 2234TIP3   OH230896   5.599   7.625  18.279 -0.3085 -0.1246 -0.5866
 2234TIP3    H130897   5.589   7.685  18.353  2.4129 -2.0110  1.5142
 2234TIP3    H230898   5.664   7.668  18.223 -1.5705  0.8022 -1.3938
 2235TIP3   OH230899   3.962   7.385  17.960  0.2835  0.1019  0.8840
 2235TIP3    H130900   4.015   7.465  17.954  0.5054 -0.0603  0.6903
 2235TIP3    H230901   3.926   7.373  17.872 -1.3449  1.0719  1.3710
 2236TIP3   OH230902   3.844   6.157  18.746  0.4009  0.5633 -0.1095
 2236TIP3    H130903   3.890   6.176  18.665 -1.2592  2.0249 -0.7623
 2236TIP3    H230904   3.891   6.208  18.813  0.6803  0.7688 -0.4603
 2237TIP3   OH230905   7.460   0.040  17.827  0.4210 -0.0374  0.0969
 2237TIP3    H130906   7.505   0.123  17.810  0.2940 -0.2916 -1.6387
 2237TIP3    H230907   7.525  -0.027  17.804  0.0014 -0.4038 -0.0238
 2238TIP3   OH230908   0.007   5.587  17.142  0.3249 -0.0417 -0.0607
 2238TIP3    H130909  -0.041   5.530  17.082  0.5644  1.0127 -1.3101
 2238TIP3    H230910   0.029   5.664  17.089  0.5526  0.9333  1.4006
 2239TIP3   OH230911   3.363   0.692  18.092 -0.1923  0.0185  0.0878
 2239TIP3    H130912   3.278   0.734  18.100  0.1330  0.5958  0.5995
 2239TIP3    H230913   3.379   0.654  18.178  0.1438  0.0661  0.0487
 2240TIP3   OH230914   0.308   5.672  19.312 -0.1209  0.6446 -0.4302
 2240TIP3    H130915   0.329   5.745  19.372 -0.2480  1.1368 -0.9745
 2240TIP3    H230916   0.360   5.599  19.344  1.3363  1.4484 -0.9094
 2241TIP3   OH230917   1.801   6.702  19.540 -0.6437  0.4437  0.4112
 2241TIP3    H130918   1.873   6.766  19.541 -0.4433  0.2245  1.1914
 2241TIP3    H230919   1.723   6.755  19.524 -0.3250  0.7026 -0.3268
 2242TIP3   OH230920   4.063   4.518  16.875 -0.0044 -0.4216 -0.2431
 2242TIP3    H130921   3.985   4.553  16.831 -0.8477 -0.9225  0.7957
 2242TIP3    H230922   4.131   4.519  16.807 -0.5002  1.3810 -0.7855
 2243TIP3   OH230923   2.883   1.962  17.613 -0.2336  0.2812 -0.1320
 2243TIP3    H130924   2.968   1.925  17.593  0.3795  1.4105  0.2962
 2243TIP3    H230925   2.864   2.020  17.538 -0.7189 -0.1030 -0.3166
 2244TIP3   OH230926   3.304   2.983  18.520 -0.0888  0.4244 -0.5257
 2244TIP3    H130927   3.358   2.906  18.501 -0.7336  0.0800 -0.9697
 2244TIP3    H230928   3.307   2.991  18.615 -0.6966 -0.6529 -0.4026
 2245TIP3   OH230929   0.285   3.513  16.742  0.2359  0.0971 -0.2722
 2245TIP3    H130930   0.220   3.583  16.746  0.9610  0.7781 -0.0314
 2245TIP3    H230931   0.366   3.557  16.715  0.3764 -0.8912 -1.5964
 2246TIP3   OH230932   2.409   3.668  18.759  0.4605 -0.0634 -0.0306
 2246TIP3    H130933   2.360   3.711  18.829  0.6130 -0.4790  0.3358
 2246TIP3    H230934   2.399   3.726  18.684 -1.0463 -0.4116 -0.1232
 2247TIP3   OH230935   5.542   4.648  17.729  0.4302  0.6285  0.1005
 2247TIP3    H130936   5.568   4.558  17.749 -3.2493 -0.3506  1.3957
 2247TIP3    H230937   5.572   4.699  17.805  0.6673  0.0874  0.3747
 2248TIP3   OH230938   0.417   2.524  17.689 -0.5953 -0.4300  0.1663
 2248TIP3    H130939   0.375   2.486  17.613 -0.5681 -1.5999  0.7161
 2248TIP3    H230940   0.400   2.618  17.681 -1.8978 -0.6917 -0.4790
 2249TIP3   OH230941   6.584   0.919  17.399 -0.6726  0.2582  0.3426
 2249TIP3    H130942   6.493   0.906  17.371 -0.4524 -1.6845  0.4114
 2249TIP3    H230943   6.609   0.835  17.437  1.7604  0.1382 -1.3308
 2250TIP3   OH230944   1.785   5.245  18.558 -0.0532  0.5709 -0.2615
 2250TIP3    H130945   1.788   5.157  18.520  0.8639 -0.4892  2.0878
 2250TIP3    H230946   1.841   5.298  18.500 -0.3502 -0.4383 -1.5199
 2251TIP3   OH230947   6.770   2.208  17.217  0.1562  0.0301 -0.1049
 2251TIP3    H130948   6.703   2.251  17.272 -0.2425 -0.6054 -0.0864
 2251TIP3    H230949   6.851   2.253  17.239 -0.2342  0.6879  0.0153
 2252TIP3   OH230950   0.306   0.650  17.319  0.2009  0.8994  0.5697
 2252TIP3    H130951   0.364   0.592  17.368  0.1798  0.0518 -0.3740
 2252TIP3    H230952   0.283   0.600  17.240 -2.5316  0.8300  1.3058
 2253TIP3   OH230953   1.760   0.778  18.247  0.4488 -0.1456  0.3270
 2253TIP3    H130954   1.744   0.804  18.338 -2.1610 -0.8145  0.1492
 2253TIP3    H230955   1.716   0.693  18.238  0.4223  0.0163 -1.6068
 2254TIP3   OH230956   2.439   6.586  18.713 -0.2270 -0.3725  0.5622
 2254TIP3    H130957   2.444   6.612  18.621  1.3949 -0.8662  0.4807
 2254TIP3    H230958   2.351   6.613  18.740 -0.8454 -0.4672 -1.1930
 2255TIP3   OH230959   5.568   2.475  17.539  0.7075 -0.7025 -0.4338
 2255TIP3    H130960   5.557   2.411  17.469 -1.4477 -0.4214 -0.4401
 2255TIP3    H230961   5.506   2.545  17.517  1.6945  0.5256  0.5271
 2256TIP3   OH230962   1.124   6.667  18.769 -0.1362  0.2592 -0.3892
 2256TIP3    H130963   1.080   6.617  18.838 -1.5913 -0.4976 -1.7881
 2256TIP3    H230964   1.211   6.686  18.804 -0.9516  0.2456  1.7871
 2257TIP3   OH230965   5.551   7.310  18.940  0.1862 -0.2951 -0.3265
 2257TIP3    H130966   5.639   7.348  18.946  0.9360 -2.1670  1.5251
 2257TIP3    H230967   5.507   7.337  19.020  0.2953 -2.1832  0.4137
 2258TIP3   OH230968   0.312   7.086  18.053 -0.2195 -0.1640  0.0020
 2258TIP3    H130969   0.293   7.179  18.069 -0.8231 -0.1585 -0.7111
 2258TIP3    H230970   0.398   7.073  18.092 -0.0434  0.7439 -0.0492
 2259TIP3   OH230971   3.277   1.904  18.312 -0.2834 -0.0354  0.0346
 2259TIP3    H130972   3.287   1.982  18.367 -2.8495  0.2762  0.2169
 2259TIP3    H230973   3.302   1.832  18.369 -1.3601  0.4168  1.1428
 2260TIP3   OH230974   6.103   1.104  19.615  0.2414 -0.1438 -0.5712
 2260TIP3    H130975   6.133   1.041  19.550 -1.3638 -0.8756 -0.6398
 2260TIP3    H230976   6.014   1.078  19.635  0.4249  0.5383  1.3728
 2261TIP3   OH230977   2.898   0.116  18.999 -0.0433  0.1067 -0.1302
 2261TIP3    H130978   2.872   0.126  18.907  0.8745 -0.8579 -0.5292
 2261TIP3    H230979   2.827   0.156  19.049 -1.5865 -1.1628 -1.1962
 2262TIP3   OH230980   6.847   2.360  18.123 -0.5729 -0.7893 -0.2661
 2262TIP3    H130981   6.848   2.270  18.157 -0.7050 -0.9092 -0.5732
 2262TIP3    H230982   6.939   2.381  18.109 -0.5822 -1.1937 -1.0078
 2263TIP3   OH230983   0.306   2.174  18.360  0.0461  0.3640  0.2120
 2263TIP3    H130984   0.298   2.109  18.429 -0.1461  1.0926  0.8976
 2263TIP3    H230985   0.279   2.129  18.280 -2.2896  0.2127  1.0202
 2264TIP3   OH230986   7.343   0.807  18.420  0.0194 -0.2711 -0.4708
 2264TIP3    H130987   7.362   0.833  18.510 -1.0509 -0.9091 -0.0364
 2264TIP3    H230988   7.350   0.888  18.370 -2.8156  0.8732  0.7755
 2265TIP3   OH230989   0.356   0.132  19.396 -0.3033  0.1026  0.1071
 2265TIP3    H130990   0.386   0.106  19.309 -0.3064  1.6768 -0.4014
 2265TIP3    H230991   0.427   0.107  19.455  0.1829 -0.0010 -0.5095
 2266TIP3   OH230992   3.097   5.553  17.650 -0.3088  0.1920  0.3272
 2266TIP3    H130993   3.166   5.510  17.600 -0.4598  1.6854 -1.2689
 2266TIP3    H230994   3.144   5.602  17.718  0.1876  0.7773 -0.4193
 2267TIP3   OH230995   7.749   1.783  19.559 -0.1040  0.2484  0.0478
 2267TIP3    H130996   7.736   1.722  19.632 -0.7275 -0.2356 -0.4572
 2267TIP3    H230997   7.770   1.727  19.484 -1.3228  0.5841 -0.5727
 2268TIP3   OH230998   2.616   3.259  17.450 -1.1558 -0.1291  0.5067
 2268TIP3    H130999   2.683   3.326  17.464 -0.3511 -0.7720 -0.1382
 2268TIP3    H231000   2.570   3.287  17.371 -2.2192  0.7405  1.3981
 2269TIP3   OH231001   6.266   0.610  17.197  0.2886 -0.2999 -0.7376
 2269TIP3    H131002   6.276   0.691  17.146 -0.6489  0.8043  0.7658
 2269TIP3    H231003   6.335   0.615  17.263 -0.5820 -0.0724  0.1675
 2270TIP3   OH231004   0.042   6.426  18.365 -0.1863  0.2673  0.3115
 2270TIP3    H131005  -0.032   6.418  18.304  0.5692  4.2284 -1.5020
 2270TIP3    H231006   0.118   6.397  18.314 -0.0512 -0.7254  1.0457
 2271TIP3   OH231007   5.979   7.674  17.178  0.2687  0.6694 -0.1382
 2271TIP3    H131008   5.947   7.632  17.257  0.9269  0.0887 -0.1675
 2271TIP3    H231009   5.918   7.647  17.109 -1.1177  2.2880  0.3961
 2272TIP3   OH231010   1.760   5.629  19.313 -0.3182 -0.3985 -0.5879
 2272TIP3    H131011   1.671   5.603  19.334 -0.1632  0.0967  0.7864
 2272TIP3    H231012   1.806   5.547  19.295 -0.9424 -0.6818 -0.9295
 2273TIP3   OH231013   7.545   5.891  19.028  0.5749 -0.5736  0.1964
 2273TIP3    H131014   7.557   5.966  18.969 -0.6396  1.0759  1.9028
 2273TIP3    H231015   7.633   5.869  19.057  1.0131 -0.2617 -0.8427
 2274TIP3   OH231016   2.295   4.540  18.277  0.7863 -0.2531 -0.4381
 2274TIP3    H131017   2.345   4.504  18.349  1.5962 -0.0542 -0.8955
 2274TIP3    H231018   2.204   4.541  18.309  0.9073 -1.5720  0.0174
 2275TIP3   OH231019   6.139   6.107  17.411  0.0942 -0.0686 -0.0369
 2275TIP3    H131020   6.079   6.121  17.484 -1.5560 -0.9339 -1.1601
 2275TIP3    H231021   6.192   6.187  17.407 -0.7936  0.6055  1.1520
 2276TIP3   OH231022   6.682   5.326  18.366  0.4296  0.0335 -0.1080
 2276TIP3    H131023   6.758   5.271  18.350  0.3785  0.1925 -0.9852
 2276TIP3    H231024   6.715   5.416  18.358  0.0837  0.1050 -0.9488
 2277TIP3   OH231025   5.337   7.657  18.609 -0.0652  0.2355  0.0896
 2277TIP3    H131026   5.319   7.736  18.557  0.2703  1.1736  1.3593
 2277TIP3    H231027   5.420   7.676  18.654 -0.8047 -0.1568  1.6851
 2278TIP3   OH231028   7.079   5.917  18.836  0.2650 -0.1810  0.1127
 2278TIP3    H131029   7.001   5.861  18.844 -1.7099  2.4380  0.5373
 2278TIP3    H231030   7.088   5.930  18.741  1.5552 -2.1911 -0.0855
 2279TIP3   OH231031   4.432   0.578  17.580 -0.0697  0.5114  1.0357
 2279TIP3    H131032   4.465   0.634  17.650  2.3074 -0.3604  0.6965
 2279TIP3    H231033   4.345   0.613  17.561  1.2124  4.0592  0.8873
 2280TIP3   OH231034   6.827   4.562  19.347 -0.2088 -0.4513  0.5380
 2280TIP3    H131035   6.759   4.582  19.283  0.3277 -1.6401 -0.4436
 2280TIP3    H231036   6.792   4.594  19.430 -1.9995 -1.0916  0.0704
 2281TIP3   OH231037   2.646   1.598  19.469  0.7029  0.2708  0.4503
 2281TIP3    H131038   2.588   1.549  19.528 -0.9765 -0.9607 -2.0352
 2281TIP3    H231039   2.724   1.543  19.462  0.6173  0.0753  0.9588
 2282TIP3   OH231040   0.251   5.804  18.601 -0.6493 -0.1776 -0.0287
 2282TIP3    H131041   0.229   5.859  18.676 -1.3107 -1.9343  1.1326
 2282TIP3    H231042   0.169   5.797  18.552 -0.3655  0.4923 -0.6110
 2283TIP3   OH231043   5.745   4.706  17.569  0.4479  0.5949 -0.2618
 2283TIP3    H131044   5.810   4.679  17.634 -0.6111 -1.1876  0.1476
 2283TIP3    H231045   5.661   4.686  17.610 -0.3971  2.7444 -0.8155
 2284TIP3   OH231046   4.194   1.295  17.892  0.3471 -0.1518  0.0977
 2284TIP3    H131047   4.176   1.350  17.968 -0.4517 -0.0965 -0.1299
 2284TIP3    H231048   4.275   1.331  17.856  0.4904  0.1032  0.6553
 2285TIP3   OH231049   7.268   6.273  17.260 -0.2033 -0.2518  0.2738
 2285TIP3    H131050   7.194   6.237  17.308 -0.8478  0.5215 -0.1210
 2285TIP3    H231051   7.229   6.330  17.194  0.7474  0.4752  0.3129
 2286TIP3   OH231052   6.564   2.372  17.057  0.2685  0.1915  0.2437
 2286TIP3    H131053   6.578   2.428  16.981  0.6528 -0.8692 -0.4856
 2286TIP3    H231054   6.598   2.287  17.031  1.5759  0.0997  2.0435
 2287TIP3   OH231055   6.226   4.175  18.673 -0.2298  0.2447  0.7859
 2287TIP3    H131056   6.269   4.242  18.725  1.1202 -1.1835  1.5975
 2287TIP3    H231057   6.291   4.105  18.665 -1.3280 -0.6733 -0.6296
 2288TIP3   OH231058   1.903   2.173  17.614 -0.0671 -0.0831 -0.3118
 2288TIP3    H131059   1.939   2.189  17.526  1.3490  0.3372  0.3114
 2288TIP3    H231060   1.922   2.253  17.662 -0.1386 -0.6040  0.5978
 2289TIP3   OH231061   0.556   7.656  18.716 -0.1772  0.4046 -0.2812
 2289TIP3    H131062   0.636   7.705  18.735 -0.0901  0.1291  0.0697
 2289TIP3    H231063   0.485   7.716  18.738 -0.0716  0.6705 -0.6457
 2290TIP3   OH231064   3.671   5.657  18.366 -0.0929 -0.2679  0.2924
 2290TIP3    H131065   3.667   5.587  18.431  0.8911 -0.3317  0.2983
 2290TIP3    H231066   3.581   5.665  18.334 -0.7209  0.1460  2.0366
 2291TIP3   OH231067   2.821   2.880  17.748  0.0090 -0.2790  0.0949
 2291TIP3    H131068   2.733   2.909  17.725  0.1017 -0.4344 -0.4831
 2291TIP3    H231069   2.878   2.925  17.685  0.3168 -0.3585  0.3176
 2292TIP3   OH231070   0.994   1.966  18.065 -0.0102  0.2586 -0.2193
 2292TIP3    H131071   1.015   1.917  17.985  0.2053 -0.4449  0.2628
 2292TIP3    H231072   1.042   1.921  18.134 -0.4572  0.6706  0.3670
 2293TIP3   OH231073   2.892   3.606  19.401 -0.5646 -0.1820  0.1158
 2293TIP3    H131074   2.806   3.596  19.442 -1.4454  0.8239 -1.3780
 2293TIP3    H231075   2.876   3.587  19.309  0.9658 -0.5666 -0.0883
 2294TIP3   OH231076   2.198   3.107  17.774  0.2731 -0.0984  0.2888
 2294TIP3    H131077   2.258   3.180  17.789  1.5107 -0.6608 -1.6078
 2294TIP3    H231078   2.150   3.131  17.695 -0.3959 -0.6828  0.5056
 2295TIP3   OH231079   0.088   3.144  18.348 -0.2216 -0.0365 -0.2661
 2295TIP3    H131080   0.126   3.200  18.416 -0.0711  0.8070 -1.0267
 2295TIP3    H231081   0.131   3.172  18.267 -0.5974 -0.8374 -0.7588
 2296TIP3   OH231082   4.613   5.949  18.679  0.6704 -0.5109  0.3321
 2296TIP3    H131083   4.646   6.036  18.705  0.9970 -0.4268 -0.3187
 2296TIP3    H231084   4.544   5.968  18.615 -0.4235 -0.7011  1.4443
 2297TIP3   OH231085   6.048   1.165  19.063  0.1750  0.0641 -0.3482
 2297TIP3    H131086   6.089   1.233  19.116  2.3395 -0.4705 -1.2212
 2297TIP3    H231087   6.009   1.105  19.127  1.1261  0.3831  0.5616
 2298TIP3   OH231088   1.744   0.265  18.293  0.5713 -0.0080 -0.0374
 2298TIP3    H131089   1.793   0.306  18.222 -0.2898  1.4469  0.1560
 2298TIP3    H231090   1.656   0.301  18.285  0.3686 -0.0583  1.5455
 2299TIP3   OH231091   0.697   1.444  18.750 -0.5601  0.4123  0.7451
 2299TIP3    H131092   0.748   1.509  18.701  0.2464 -1.0023 -0.3759
 2299TIP3    H231093   0.752   1.423  18.825 -1.1212  1.4762  1.4792
 2300TIP3   OH231094   3.394   4.723  19.393  0.6345 -0.2027 -0.0885
 2300TIP3    H131095   3.337   4.651  19.421  0.9583  0.7875  3.6622
 2300TIP3    H231096   3.344   4.803  19.414  0.9645  0.7704 -2.5926
 2301TIP3   OH231097   1.965   5.544  17.355  0.3935  0.1192 -0.0395
 2301TIP3    H131098   1.940   5.521  17.444 -0.2544 -0.2433 -0.3026
 2301TIP3    H231099   2.052   5.582  17.363  1.2479 -1.8285  0.5122
 2302TIP3   OH231100   5.368   4.385  17.585 -0.4647  0.4731  0.0608
 2302TIP3    H131101   5.435   4.394  17.516  0.8442  2.4410  1.4771
 2302TIP3    H231102   5.301   4.449  17.561 -2.1618 -1.7580 -1.5617
 2303TIP3   OH231103   5.753   0.787  16.948  0.3248 -0.4993  0.2593
 2303TIP3    H131104   5.833   0.813  16.994 -2.0941  3.3101  2.8657
 2303TIP3    H231105   5.718   0.716  17.001  0.9330 -0.7740  0.3101
 2304TIP3   OH231106   5.217   3.880  18.798 -0.7753 -0.0085  0.2461
 2304TIP3    H131107   5.230   3.937  18.722  0.5967 -1.8695 -0.9998
 2304TIP3    H231108   5.203   3.941  18.871 -2.2312  1.8506 -1.4535
 2305TIP3   OH231109   7.264   6.160  18.355 -0.0919 -0.2085 -0.5992
 2305TIP3    H131110   7.253   6.225  18.424  0.0001  0.2528 -1.0160
 2305TIP3    H231111   7.306   6.086  18.399 -0.9061 -0.3046  0.0474
 2306TIP3   OH231112   6.146   6.413  16.864  0.0368  0.9211 -0.2343
 2306TIP3    H131113   6.176   6.331  16.903 -0.4407  0.8553  0.0038
 2306TIP3    H231114   6.222   6.472  16.870  0.7529  0.1652 -1.4313
 2307TIP3   OH231115   5.626   6.369  17.423  0.3073 -0.2795 -0.3930
 2307TIP3    H131116   5.707   6.323  17.401  1.3258 -0.5622  3.1883
 2307TIP3    H231117   5.571   6.302  17.463 -1.3396  0.1390 -1.8637
 2308TIP3   OH231118   4.117   6.087  17.085 -0.4766  0.3985  0.0450
 2308TIP3    H131119   4.076   6.160  17.039 -0.4518  0.7482  0.5611
 2308TIP3    H231120   4.172   6.129  17.151  0.5610 -0.0657 -0.5079
 2309TIP3   OH231121   0.848   0.342  18.752 -0.5802 -0.4533  0.2864
 2309TIP3    H131122   0.850   0.248  18.772 -0.8873 -0.1296  2.0415
 2309TIP3    H231123   0.754   0.364  18.755 -0.4593  0.0315  0.5692
 2310TIP3   OH231124   6.004   0.806  17.062 -0.2673  0.0029  0.0380
 2310TIP3    H131125   6.066   0.855  17.007  1.0142 -0.9165  0.6093
 2310TIP3    H231126   6.016   0.842  17.150  1.4302 -1.9104  0.6727
 2311TIP3   OH231127   2.907   4.111  19.014 -0.5108 -0.0721 -0.3546
 2311TIP3    H131128   2.865   4.182  19.062 -0.4903 -0.4632  0.2515
 2311TIP3    H231129   2.991   4.148  18.986  0.4901 -0.5207  1.8564
 2312TIP3   OH231130   6.954   6.845  17.126 -0.1687 -0.2101  0.2250
 2312TIP3    H131131   7.013   6.855  17.052 -0.3791  0.6275  0.1558
 2312TIP3    H231132   6.921   6.756  17.119 -0.1031 -0.1731 -0.6193
 2313TIP3   OH231133   6.770   3.357  17.517  0.2489  1.1632  0.2098
 2313TIP3    H131134   6.696   3.298  17.527  0.1479  1.2282 -0.1446
 2313TIP3    H231135   6.839   3.303  17.477  0.3769  1.1160  0.4886
 2314TIP3   OH231136   0.153   3.074  17.868 -0.1755 -0.3053 -0.0298
 2314TIP3    H131137   0.202   3.049  17.790 -3.8278 -1.6822 -2.1207
 2314TIP3    H231138   0.121   3.163  17.849 -0.4800 -0.3579  0.2286
 2315TIP3   OH231139   1.770   4.997  18.342  0.1271 -0.3090 -0.2249
 2315TIP3    H131140   1.844   4.975  18.286 -2.1670 -0.9807 -3.2435
 2315TIP3    H231141   1.719   5.061  18.292 -1.9470 -0.7647  1.1434
 2316TIP3   OH231142   0.556   4.393  18.819 -0.1545  0.4284  0.1853
 2316TIP3    H131143   0.570   4.323  18.882 -1.6244  0.5315  0.6539
 2316TIP3    H231144   0.610   4.465  18.850  1.0792 -0.3464 -0.0953
 2317TIP3   OH231145   5.226   6.550  18.859 -0.2395 -0.1908 -0.1934
 2317TIP3    H131146   5.271   6.490  18.800 -1.7828 -0.2168 -1.4204
 2317TIP3    H231147   5.260   6.529  18.946  0.7700 -1.4095 -0.8552
 2318TIP3   OH231148   6.072   7.204  17.562 -0.6427  0.3673  0.1377
 2318TIP3    H131149   6.165   7.217  17.578 -0.7308  1.7786 -0.3246
 2318TIP3    H231150   6.028   7.261  17.625 -1.0684  2.5388 -1.9607
 2319TIP3   OH231151   0.725   6.193  19.214  0.6075 -0.1515  0.0487
 2319TIP3    H131152   0.756   6.128  19.277 -0.1780 -1.1010 -0.5303
 2319TIP3    H231153   0.636   6.214  19.244  0.8607  0.6823  0.2447
 2320TIP3   OH231154   0.659   4.535  19.151  0.4669  0.2676  0.1723
 2320TIP3    H131155   0.719   4.479  19.103 -0.1406  2.2646 -3.2877
 2320TIP3    H231156   0.625   4.480  19.221  1.7298 -2.8540 -1.4820
 2321TIP3   OH231157   6.499   1.342  17.353  0.7003  0.1373 -0.3777
 2321TIP3    H131158   6.511   1.437  17.348 -0.3149  0.4186  1.4618
 2321TIP3    H231159   6.488   1.324  17.447  3.5337 -2.1695 -0.3212
 2322TIP3   OH231160   5.494   2.162  18.180 -0.5018 -0.2032 -0.8433
 2322TIP3    H131161   5.431   2.232  18.200 -2.1653 -2.0593  1.0024
 2322TIP3    H231162   5.457   2.117  18.104 -0.8069 -0.5582 -0.4945
 2323TIP3   OH231163   5.591   1.211  18.566 -0.5639 -0.0651 -0.1070
 2323TIP3    H131164   5.564   1.220  18.657 -0.8268 -1.0107 -0.0744
 2323TIP3    H231165   5.627   1.296  18.542  0.7619 -0.1944  1.2996
 2324TIP3   OH231166   4.465   7.311  17.912 -0.1598 -0.1598  0.3218
 2324TIP3    H131167   4.530   7.378  17.933 -1.5145  2.1545 -2.1457
 2324TIP3    H231168   4.514   7.247  17.860  0.7279  0.0181  0.9052
 2325TIP3   OH231169   2.454   5.217  16.921 -0.3207 -0.6754  0.4510
 2325TIP3    H131170   2.446   5.255  16.834 -0.1806  1.6110  1.3630
 2325TIP3    H231171   2.416   5.129  16.913 -0.7258 -0.3475 -1.7729
 2326TIP3   OH231172   0.667   2.174  19.068 -0.2632 -0.2179 -0.0224
 2326TIP3    H131173   0.621   2.241  19.119  0.0528  0.0460 -0.0836
 2326TIP3    H231174   0.725   2.223  19.010 -1.3037 -0.4782 -1.3128
 2327TIP3   OH231175   5.956   3.975  17.213 -0.2060 -0.0016  0.4691
 2327TIP3    H131176   6.014   3.938  17.146 -0.0835  0.8476  0.0971
 2327TIP3    H231177   5.922   4.055  17.173  0.5156  0.9590  1.7325
 2328TIP3   OH231178   5.147   3.134  19.365 -0.3302 -0.2742  0.1632
 2328TIP3    H131179   5.164   3.063  19.304  1.4501  1.8744 -2.0549
 2328TIP3    H231180   5.185   3.105  19.448  2.6817 -0.9788 -1.3144
 2329TIP3   OH231181   6.522   0.416  18.086  0.0225 -0.0853 -0.3374
 2329TIP3    H131182   6.430   0.401  18.104 -0.4567 -0.1261 -2.5679
 2329TIP3    H231183   6.568   0.382  18.162 -1.7544 -0.7917  0.4522
 2330TIP3   OH231184   6.670   4.715  18.475 -0.6495  0.1425 -0.1896
 2330TIP3    H131185   6.712   4.797  18.501  1.5940 -0.8419 -0.5240
 2330TIP3    H231186   6.623   4.737  18.395  0.7990  0.9056 -0.8759
 2331TIP3   OH231187   7.287   0.264  18.396  0.7440 -0.3283  0.1425
 2331TIP3    H131188   7.308   0.339  18.452  1.6784  0.0874 -0.7209
 2331TIP3    H231189   7.300   0.188  18.451  1.9274  0.0581  0.4306
 2332TIP3   OH231190   1.520   4.318  19.396  0.0247  0.2798 -0.2176
 2332TIP3    H131191   1.517   4.240  19.451  0.3325 -0.0748 -0.6893
 2332TIP3    H231192   1.455   4.377  19.434  0.6132  0.2645  0.8414
 2333TIP3   OH231193   7.571   2.249  19.225  0.0276  0.5400  0.0681
 2333TIP3    H131194   7.600   2.231  19.135 -1.6458  0.0628 -0.4054
 2333TIP3    H231195   7.540   2.165  19.257 -1.9451  1.2296  0.0960
 2334TIP3   OH231196   7.473   3.108  19.174  0.1192 -0.0468 -0.3468
 2334TIP3    H131197   7.562   3.119  19.208  0.3971 -2.1011 -0.2255
 2334TIP3    H231198   7.483   3.109  19.079 -0.0589  1.6987 -0.3762
 2335TIP3   OH231199   4.061   6.688  16.950 -0.3103  0.5140  0.4303
 2335TIP3    H131200   4.000   6.745  16.997 -0.1144  1.6006 -0.5733
 2335TIP3    H231201   4.014   6.606  16.938  0.4237 -0.7324  4.4969
 2336TIP3   OH231202   6.571   0.033  17.821  0.0044 -0.1587  0.1163
 2336TIP3    H131203   6.507  -0.027  17.861  0.4940 -0.3076  0.6876
 2336TIP3    H231204   6.636   0.048  17.890  1.5116 -1.3456 -0.9847
 2337TIP3   OH231205   6.492   6.193  17.909 -0.4891 -0.3729  0.3720
 2337TIP3    H131206   6.526   6.250  17.840 -1.1457 -0.7099 -0.2401
 2337TIP3    H231207   6.400   6.182  17.888 -0.3281 -1.8839  0.3114
 2338TIP3   OH231208   4.044   7.010  16.856  0.2452  0.4989  0.3941
 2338TIP3    H131209   4.001   6.925  16.845 -1.4903  1.5068 -1.2347
 2338TIP3    H231210   4.129   6.999  16.815 -0.0760 -0.3905 -0.0576
 2339TIP3   OH231211   4.491   5.247  18.063 -0.5778  0.0366 -0.1383
 2339TIP3    H131212   4.412   5.226  18.112 -0.8681 -0.0513 -0.6425
 2339TIP3    H231213   4.467   5.321  18.007  0.1020  0.9468  0.7429
 2340TIP3   OH231214   5.979   0.792  18.466 -0.2593 -0.0791  0.2098
 2340TIP3    H131215   5.937   0.808  18.381  1.3237 -2.6129 -1.1908
 2340TIP3    H231216   5.909   0.760  18.522 -1.2967  1.4469 -0.1297
 2341TIP3   OH231217   7.364   2.850  18.120 -0.2120  0.3667 -0.4825
 2341TIP3    H131218   7.459   2.857  18.133 -0.0958 -1.2387 -0.2851
 2341TIP3    H231219   7.347   2.907  18.044  0.9438  0.4879 -0.6771
 2342TIP3   OH231220   3.790   4.504  19.035 -0.1125  0.0947  0.9235
 2342TIP3    H131221   3.698   4.486  19.018  0.0363  1.5704 -2.3417
 2342TIP3    H231222   3.798   4.599  19.026  1.6519  0.0580  1.6260
 2343TIP3   OH231223   4.027   5.711  17.733  0.1937 -0.3300 -0.1512
 2343TIP3    H131224   3.945   5.729  17.778  0.5292 -0.8099  0.6760
 2343TIP3    H231225   4.013   5.743  17.644 -0.5358  0.4887  0.2423
 2344TIP3   OH231226   5.011   1.093  17.779  0.4182 -0.1475  0.0113
 2344TIP3    H131227   4.987   1.176  17.821  1.1586 -0.3665  0.8946
 2344TIP3    H231228   5.095   1.111  17.737  0.0953 -0.1776 -0.6675
 2345TIP3   OH231229   0.338   3.099  18.691  0.1336  0.3239  0.5453
 2345TIP3    H131230   0.299   3.175  18.649 -0.0666  0.2888  0.6650
 2345TIP3    H231231   0.388   3.056  18.621 -0.0257  0.3814  0.3955
 2346TIP3   OH231232   6.171   5.359  18.057  0.3028 -0.1863 -0.0449
 2346TIP3    H131233   6.259   5.365  18.018  0.8537  2.0081  1.3764
 2346TIP3    H231234   6.159   5.265  18.073  2.1104 -0.6056 -0.8590
 2347TIP3   OH231235   2.469   6.938  19.603  0.9261 -0.0114 -0.1118
 2347TIP3    H131236   2.512   7.013  19.562 -0.3057  0.4781 -0.5287
 2347TIP3    H231237   2.484   6.952  19.697  0.4269  0.9417 -0.1601
 2348TIP3   OH231238   1.229   3.382  19.278  0.1973  0.0604  0.0230
 2348TIP3    H131239   1.305   3.427  19.241  0.3140 -1.4385 -1.7180
 2348TIP3    H231240   1.192   3.444  19.341  2.8049  0.8773  0.8945
 2349TIP3   OH231241   4.963   1.744  19.458 -0.2931 -0.1301 -0.1608
 2349TIP3    H131242   4.989   1.831  19.426  1.8695 -0.3908  0.6498
 2349TIP3    H231243   4.927   1.761  19.545 -2.5587  0.1847 -1.0932
 2350TIP3   OH231244   1.390   6.750  19.143 -0.6277  0.1758 -0.2358
 2350TIP3    H131245   1.423   6.738  19.232  1.5491  0.0801 -1.0001
 2350TIP3    H231246   1.295   6.752  19.153 -0.4359  0.3164  2.0967
 2351TIP3   OH231247   1.768   6.551  18.637 -0.2704 -0.0920 -0.2877
 2351TIP3    H131248   1.803   6.624  18.585 -1.5426 -0.6897 -2.1065
 2351TIP3    H231249   1.804   6.473  18.596  0.7440 -0.5581  1.3858
 2352TIP3   OH231250   6.693   6.054  18.828 -0.3768  0.2143  0.2718
 2352TIP3    H131251   6.753   6.055  18.754  0.7242 -1.1573  1.0918
 2352TIP3    H231252   6.746   6.024  18.902 -2.3857 -2.6123  0.7140
 2353TIP3   OH231253   5.030   0.819  18.090  0.7044  0.2550  0.3031
 2353TIP3    H131254   5.079   0.839  18.170 -0.8171 -0.8209  1.5685
 2353TIP3    H231255   4.962   0.758  18.119 -0.5798  0.7160 -1.6249
 2354TIP3   OH231256   1.385   5.824  18.365 -0.4233 -0.6909  0.6212
 2354TIP3    H131257   1.405   5.746  18.313 -2.3490 -0.0220 -1.2289
 2354TIP3    H231258   1.343   5.790  18.444  1.7710 -1.6640  1.4646
 2355TIP3   OH231259   3.599   1.384  17.191  0.9922  0.0586  0.0988
 2355TIP3    H131260   3.523   1.340  17.230  0.4669  0.4051 -0.5019
 2355TIP3    H231261   3.561   1.451  17.134  1.7752  1.4882  1.1850
 2356TIP3   OH231262   6.895   5.549  17.492 -0.2341 -0.3998 -0.5455
 2356TIP3    H131263   6.884   5.616  17.560 -1.3978 -0.3850 -0.7181
 2356TIP3    H231264   6.850   5.584  17.416  0.9173 -0.4945 -1.2909
 2357TIP3   OH231265   7.478   5.099  19.701  0.0546  0.2219  0.1839
 2357TIP3    H131266   7.560   5.118  19.748  0.4866 -1.1428  0.0252
 2357TIP3    H231267   7.498   5.020  19.650 -1.2928  0.0084 -0.0357
 2358TIP3   OH231268   5.165   3.307  17.219 -0.0731  0.0246  0.0553
 2358TIP3    H131269   5.206   3.295  17.134  0.7324 -0.2713  0.4712
 2358TIP3    H231270   5.082   3.260  17.212 -0.1827  0.3169 -0.6827
 2359TIP3   OH231271   6.418   1.125  17.729  0.2119 -0.5357  0.3029
 2359TIP3    H131272   6.424   1.220  17.723  1.4463 -0.5794  0.4637
 2359TIP3    H231273   6.497   1.094  17.684 -1.4049 -1.5904 -2.0154
 2360TIP3   OH231274   6.923   1.131  19.124  0.3846 -0.7668 -0.0547
 2360TIP3    H131275   7.007   1.151  19.166  0.4443 -0.0195 -0.5148
 2360TIP3    H231276   6.936   1.044  19.086  0.5639 -1.1445  0.8446
 2361TIP3   OH231277   4.274   4.192  18.058 -0.6511 -0.0411  0.0622
 2361TIP3    H131278   4.263   4.273  18.010 -0.2710  0.4322  0.7573
 2361TIP3    H231279   4.260   4.123  17.993 -1.8213  0.5675 -0.3418
 2362TIP3   OH231280   3.785   4.868  19.539  0.1320  0.1286  0.2709
 2362TIP3    H131281   3.850   4.807  19.505  2.2307  2.1758  0.4099
 2362TIP3    H231282   3.776   4.845  19.632 -0.2403 -0.8957 -0.0091
 2363TIP3   OH231283   5.467   0.800  19.141  0.0315  0.0966  0.4086
 2363TIP3    H131284   5.457   0.783  19.047  0.1472  1.7736  0.0500
 2363TIP3    H231285   5.384   0.770  19.179  0.0485 -0.7564 -0.1952
 2364TIP3   OH231286   3.573   7.335  18.337  0.1746  0.0747  0.4132
 2364TIP3    H131287   3.480   7.312  18.325  0.2844 -0.8323  1.1871
 2364TIP3    H231288   3.616   7.252  18.356  0.4877  0.8998  4.0277
 2365TIP3   OH231289   5.945   2.217  18.834  0.3004  0.4110  0.4730
 2365TIP3    H131290   5.889   2.159  18.886  3.2270 -0.8814  2.3900
 2365TIP3    H231291   5.944   2.179  18.746 -0.2822 -0.7225  0.9511
 2366TIP3   OH231292   3.961   1.006  18.355 -0.2929 -0.7478 -0.0836
 2366TIP3    H131293   3.941   0.915  18.331 -1.8820 -0.5594  0.4164
 2366TIP3    H231294   3.980   1.003  18.449 -0.0618 -0.5979 -0.1246
 2367TIP3   OH231295   1.653   4.812  18.518  0.1695  0.1418 -0.2467
 2367TIP3    H131296   1.630   4.860  18.597  0.6601  0.4371 -0.2789
 2367TIP3    H231297   1.691   4.878  18.460 -0.0207 -0.1051 -0.6592
 2368TIP3   OH231298   6.134   5.641  19.692 -0.1630 -0.6592  0.4388
 2368TIP3    H131299   6.225   5.618  19.709  0.1499  0.8166  0.9346
 2368TIP3    H231300   6.132   5.737  19.699 -1.7099 -0.6524  0.2345
 2369TIP3   OH231301   4.702   7.484  17.996 -0.2804 -0.1501  0.4828
 2369TIP3    H131302   4.649   7.561  18.016  1.4301  1.3428 -0.4064
 2369TIP3    H231303   4.778   7.519  17.949 -0.7471 -2.6440 -2.4427
 2370TIP3   OH231304   6.292   6.376  18.253  0.3908 -0.4311 -0.1169
 2370TIP3    H131305   6.348   6.414  18.185  0.1409  0.1338 -0.0181
 2370TIP3    H231306   6.301   6.282  18.242  0.1995 -0.3545 -1.0755
 2371TIP3   OH231307   1.676   4.888  19.368  0.1389  0.3776  0.2272
 2371TIP3    H131308   1.675   4.899  19.463 -0.2187  0.4782  0.2118
 2371TIP3    H231309   1.677   4.793  19.354  2.7241  0.3237  0.3523
 2372TIP3   OH231310   0.730   2.228  19.359  0.1919  0.4015  0.7310
 2372TIP3    H131311   0.659   2.291  19.345 -1.5783 -1.4357  1.0583
 2372TIP3    H231312   0.701   2.148  19.316  2.4451 -0.2135  0.2108
 2373TIP3   OH231313   4.845   4.509  18.658 -0.0801  0.5789 -0.8247
 2373TIP3    H131314   4.809   4.422  18.674 -0.8566  1.1583  0.7203
 2373TIP3    H231315   4.778   4.554  18.607 -0.8526  1.1097  0.6220
 2374TIP3   OH231316   4.154   0.034  19.175  0.1004  0.6514 -0.3110
 2374TIP3    H131317   4.171  -0.057  19.150 -0.8451  0.7156 -1.2833
 2374TIP3    H231318   4.060   0.045  19.163  0.0137  1.4337  0.9397
 2375TIP3   OH231319   5.178   5.765  16.638 -0.1086 -0.4038 -0.5398
 2375TIP3    H131320   5.248   5.700  16.643 -1.6651 -2.3213 -1.9630
 2375TIP3    H231321   5.111   5.732  16.699 -1.0617 -0.3522 -1.5349
 2376TIP3   OH231322   6.995   0.652  17.929 -0.1796 -0.0551 -0.1478
 2376TIP3    H131323   7.080   0.610  17.912 -1.1674 -1.3961 -2.2522
 2376TIP3    H231324   6.974   0.698  17.847 -0.7688  1.6248  0.9105
 2377TIP3   OH231325   2.978   2.041  17.006 -0.1785  0.2777 -0.0164
 2377TIP3    H131326   3.036   1.999  16.942 -0.0428  1.0813 -0.4265
 2377TIP3    H231327   2.893   2.044  16.964 -0.5910 -1.0519  0.6493
 2378TIP3   OH231328   2.666   7.575  18.804  0.2610 -0.4864  0.2337
 2378TIP3    H131329   2.671   7.555  18.711  0.7293 -0.6121  0.2866
 2378TIP3    H231330   2.658   7.671  18.807 -1.6901 -0.5930 -0.0010
 2379TIP3   OH231331   5.041   2.861  18.450  0.0024 -0.1056 -0.3002
 2379TIP3    H131332   5.081   2.908  18.377 -0.4236  0.6221 -0.0720
 2379TIP3    H231333   5.010   2.930  18.509 -0.8812 -0.6701 -0.0938
 2380TIP3   OH231334   2.771   0.691  18.138 -0.5048  0.2360 -0.4168
 2380TIP3    H131335   2.848   0.719  18.088  0.8182  1.8424  2.2426
 2380TIP3    H231336   2.795   0.710  18.229 -3.4753 -0.7112  0.6601
 2381TIP3   OH231337   2.289   1.229  17.374  0.2876  0.2496 -0.6302
 2381TIP3    H131338   2.194   1.222  17.361  0.2554  1.7211 -1.4108
 2381TIP3    H231339   2.315   1.304  17.320  2.0740 -0.7704 -1.2790
 2382TIP3   OH231340   3.616   5.420  18.088 -0.7604 -0.0899 -0.5202
 2382TIP3    H131341   3.565   5.480  18.143 -1.4897 -0.5589 -0.6878
 2382TIP3    H231342   3.553   5.357  18.054  0.3373 -2.5895  1.7190
 2383TIP3   OH231343   4.856   1.976  17.547 -0.1662 -0.3715 -0.3296
 2383TIP3    H131344   4.873   2.057  17.595  0.1951 -1.2572  1.0862
 2383TIP3    H231345   4.763   1.961  17.558 -0.5232  0.5252 -1.7502
 2384TIP3   OH231346   7.476   1.856  17.834  0.0024 -0.0001 -0.0334
 2384TIP3    H131347   7.451   1.945  17.809  0.7703 -0.0702 -1.1191
 2384TIP3    H231348   7.405   1.826  17.890  0.4298  1.8260  1.6105
 2385TIP3   OH231349   2.440   7.374  18.066  0.1762  0.2410  0.2918
 2385TIP3    H131350   2.529   7.371  18.031 -0.0120  3.4212 -0.7649
 2385TIP3    H231351   2.387   7.408  17.994 -2.1646 -2.4186  0.5848
 2386TIP3   OH231352   4.330   5.726  18.602 -0.1825 -0.1053 -0.1155
 2386TIP3    H131353   4.236   5.719  18.617 -0.3487  1.0269 -0.5610
 2386TIP3    H231354   4.344   5.817  18.578  0.5633 -0.8849 -3.0720
 2387TIP3   OH231355   6.295   7.215  17.920 -0.3391  0.2322 -0.1141
 2387TIP3    H131356   6.219   7.171  17.959  0.5340 -1.3474 -0.1041
 2387TIP3    H231357   6.346   7.245  17.995 -0.9409  1.3131 -0.1207
 2388TIP3   OH231358   5.362   2.803  18.329  0.6153  0.2737 -0.2556
 2388TIP3    H131359   5.432   2.773  18.271  0.3668  0.2869 -0.5642
 2388TIP3    H231360   5.286   2.811  18.272  0.4620  0.6470  0.0041
 2389TIP3   OH231361   5.893   0.061  18.802 -0.1134 -0.4576 -0.3192
 2389TIP3    H131362   5.895   0.098  18.890  0.5589 -0.8899 -0.1492
 2389TIP3    H231363   5.965   0.104  18.756  0.4822 -1.3179 -0.2077
 2390TIP3   OH231364   4.582   3.869  17.372  0.3959  0.1336 -0.0843
 2390TIP3    H131365   4.619   3.806  17.310  0.9077 -0.9914  1.3148
 2390TIP3    H231366   4.657   3.900  17.423  0.0358  1.3081 -0.2363
 2391TIP3   OH231367   6.814   5.667  17.274  0.3435 -0.5014 -0.2296
 2391TIP3    H131368   6.904   5.661  17.243 -0.0180 -0.6517 -1.3139
 2391TIP3    H231369   6.781   5.749  17.236 -1.0972 -2.2418 -3.1016
 2392TIP3   OH231370   3.912   4.042  17.466 -0.7318  0.2253  0.3677
 2392TIP3    H131371   3.862   3.964  17.443 -1.1152  0.4348  0.4756
 2392TIP3    H231372   4.003   4.016  17.456 -0.8725  0.0383 -0.4768
 2393TIP3   OH231373   3.086   6.050  18.279 -0.0833 -0.1013 -0.1443
 2393TIP3    H131374   3.040   6.091  18.206  0.4554  0.7195 -0.0322
 2393TIP3    H231375   3.132   5.976  18.239 -0.7322 -0.3616 -0.4215
 2394TIP3   OH231376   1.591   4.734  18.868  0.0834  0.0829 -0.3597
 2394TIP3    H131377   1.569   4.758  18.957  5.5496 -1.9214  1.9816
 2394TIP3    H231378   1.654   4.801  18.840 -0.7561  0.1051 -2.3640
 2395TIP3   OH231379   2.717   2.085  17.859 -0.6846 -0.1524 -0.4126
 2395TIP3    H131380   2.710   1.990  17.866 -1.3523 -0.0969 -0.2424
 2395TIP3    H231381   2.794   2.108  17.911 -0.3081 -0.6354 -0.7610
 2396TIP3   OH231382   2.224   3.883  17.167 -0.2888  0.2407  0.0461
 2396TIP3    H131383   2.219   3.839  17.252 -0.3154  1.1243  0.5197
 2396TIP3    H231384   2.275   3.962  17.185 -3.3231  2.3417  0.1186
 2397TIP3   OH231385   0.988   7.349  19.245  0.2515 -0.0732 -0.2911
 2397TIP3    H131386   0.894   7.343  19.227  0.0791 -0.2712  0.6376
 2397TIP3    H231387   1.019   7.419  19.187 -0.4295 -0.1195 -0.7266
 2398TIP3   OH231388   4.281   4.041  17.846  0.0839 -0.1770 -0.1126
 2398TIP3    H131389   4.304   3.948  17.841 -1.4882 -0.6291  0.3278
 2398TIP3    H231390   4.263   4.067  17.756 -0.3782 -0.5701 -0.1397
 2399TIP3   OH231391   7.454   3.284  16.844 -0.0196 -0.2279 -0.4179
 2399TIP3    H131392   7.481   3.355  16.902  0.5152  2.3570 -3.5347
 2399TIP3    H231393   7.359   3.287  16.846 -0.1139  2.6279 -2.5172
 2400TIP3   OH231394   3.362   2.770  18.931 -0.1339 -0.1654 -0.6577
 2400TIP3    H131395   3.342   2.850  18.979  0.0569 -0.6625  0.2668
 2400TIP3    H231396   3.447   2.787  18.890  0.9429 -0.6205  1.2567
 2401TIP3   OH231397   1.699   4.907  17.859  0.1660  0.5408 -0.2578
 2401TIP3    H131398   1.727   4.972  17.794  0.5293 -1.3460 -2.0807
 2401TIP3    H231399   1.639   4.849  17.812 -1.2072  0.2832  1.6817
 2402TIP3   OH231400   3.274   2.885  18.150  0.5755  0.1669  0.1265
 2402TIP3    H131401   3.314   2.822  18.210  0.3793 -0.5686 -0.4998
 2402TIP3    H231402   3.184   2.894  18.181  0.3771 -0.4718 -0.2531
 2403TIP3   OH231403   0.410   2.953  16.850 -0.1080  0.4028 -0.6851
 2403TIP3    H131404   0.318   2.940  16.874 -0.0681  1.3007  0.0453
 2403TIP3    H231405   0.409   3.025  16.787  0.1270  0.8528 -0.1911
 2404TIP3   OH231406   4.437   2.477  16.887  0.6134  0.3429  0.0374
 2404TIP3    H131407   4.454   2.421  16.812  0.7865  0.1308  0.2327
 2404TIP3    H231408   4.373   2.541  16.856  0.0339 -0.2674 -0.0470
 2405TIP3   OH231409   2.600   1.749  17.399 -0.3200  0.1158  0.0609
 2405TIP3    H131410   2.583   1.719  17.488  1.6609  2.1202  1.2131
 2405TIP3    H231411   2.558   1.684  17.343 -3.1639 -0.2890  2.4365
 2406TIP3   OH231412   6.825   5.906  16.998 -0.0892  0.1314 -0.4347
 2406TIP3    H131413   6.919   5.887  16.992  0.2531  1.4365  0.4476
 2406TIP3    H231414   6.813   5.941  17.086 -1.3876  0.1326 -0.5932
 2407TIP3   OH231415   7.327   5.975  17.983  0.9836 -0.2658 -0.2939
 2407TIP3    H131416   7.258   6.024  18.028  1.2914  0.4186 -0.5650
 2407TIP3    H231417   7.290   5.958  17.896  0.8746 -0.5276 -0.1971
 2408TIP3   OH231418   0.442   3.832  19.431  0.0814  0.8505  0.3325
 2408TIP3    H131419   0.508   3.771  19.464  0.8661  1.8406  0.6851
 2408TIP3    H231420   0.359   3.788  19.445  0.7147 -1.5509 -2.4428
 2409TIP3   OH231421   0.267   6.319  18.743  0.2705 -0.3799  0.4097
 2409TIP3    H131422   0.298   6.312  18.653 -2.5796  1.7825 -0.9111
 2409TIP3    H231423   0.270   6.413  18.762 -0.8319 -0.6111  1.9120
 2410TIP3   OH231424   7.609   5.481  17.912 -0.0389  0.0741  0.5960
 2410TIP3    H131425   7.646   5.533  17.841 -0.9323 -0.0744  0.0200
 2410TIP3    H231426   7.638   5.527  17.992  1.2852  0.0232  0.1718
 2411TIP3   OH231427   0.050   5.595  17.421 -0.2111 -0.0733 -0.0579
 2411TIP3    H131428   0.138   5.559  17.432 -0.4403 -0.7583 -0.3977
 2411TIP3    H231429   0.031   5.582  17.328 -1.4706 -1.8265  0.3934
 2412TIP3   OH231430   2.878   2.804  19.155  0.0366  0.2313 -0.3917
 2412TIP3    H131431   2.840   2.852  19.082  1.3483  0.5820 -0.8713
 2412TIP3    H231432   2.891   2.870  19.223  1.0545  0.4099 -0.7433
 2413TIP3   OH231433   1.234   3.160  18.813  0.0796 -0.5477  0.1641
 2413TIP3    H131434   1.303   3.093  18.813 -0.4945 -1.1397  0.1019
 2413TIP3    H231435   1.255   3.215  18.889  0.4590 -0.8903  0.3164
 2414TIP3   OH231436   4.554   7.050  18.105 -0.2713  0.3359  0.2773
 2414TIP3    H131437   4.490   7.014  18.167 -1.2396 -0.6115 -1.1979
 2414TIP3    H231438   4.523   7.139  18.087 -0.0753  0.5577  1.0125
 2415TIP3   OH231439   0.410   6.965  18.928 -0.1236  0.6380 -0.7697
 2415TIP3    H131440   0.504   6.978  18.937 -0.0254 -1.2128  1.8868
 2415TIP3    H231441   0.401   6.912  18.848  1.2813 -0.6753 -0.0935
 2416TIP3   OH231442   1.184   2.647  17.035 -0.2392 -0.0217  0.1928
 2416TIP3    H131443   1.142   2.732  17.052  0.8558  0.4515  0.6277
 2416TIP3    H231444   1.123   2.583  17.069 -0.5485  0.6572  0.9544
 2417TIP3   OH231445   1.463   1.251  16.554  0.1051  0.5921 -0.6596
 2417TIP3    H131446   1.413   1.294  16.485  0.5657  2.4156  0.0971
 2417TIP3    H231447   1.397   1.217  16.615 -0.2456  1.5905 -0.4770
 2418TIP3   OH231448   7.514   3.911  18.567  0.1286 -0.0601 -0.3226
 2418TIP3    H131449   7.585   3.873  18.515 -1.0713  0.2509 -2.3187
 2418TIP3    H231450   7.439   3.853  18.550 -0.4633  0.4209  0.5750
 2419TIP3   OH231451   1.043   3.516  18.087 -0.3637 -0.6269 -0.9524
 2419TIP3    H131452   0.974   3.538  18.025 -1.4649 -2.4580 -0.4477
 2419TIP3    H231453   0.999   3.470  18.158  1.3080 -1.4486 -0.3832
 2420TIP3   OH231454   3.986   4.468  18.642 -0.6698 -0.4940 -0.1046
 2420TIP3    H131455   3.934   4.397  18.677  0.6007 -1.0626  0.6943
 2420TIP3    H231456   4.074   4.431  18.632  0.0784  1.0074  0.5609
 2421TIP3   OH231457   6.752   6.710  18.208 -0.0230 -0.5087  0.0362
 2421TIP3    H131458   6.705   6.637  18.248 -0.1695 -1.1931 -1.3084
 2421TIP3    H231459   6.695   6.786  18.223 -0.8085 -1.0345 -0.2071
 2422TIP3   OH231460   1.137   6.875  17.503 -0.5902 -0.0544  0.2675
 2422TIP3    H131461   1.043   6.885  17.512 -0.5109  2.7332 -1.0127
 2422TIP3    H231462   1.153   6.874  17.409  0.7132  0.8045  0.4483
 2423TIP3   OH231463   0.419   4.662  16.899 -0.7965  0.2454 -0.4721
 2423TIP3    H131464   0.442   4.592  16.838 -0.2172 -0.1898  0.2396
 2423TIP3    H231465   0.323   4.663  16.900 -0.8857 -2.1790  1.3318
 2424TIP3   OH231466   2.323   4.405  19.056 -0.5182 -0.2994  0.0993
 2424TIP3    H131467   2.232   4.418  19.033 -0.3587 -1.3468 -1.2102
 2424TIP3    H231468   2.369   4.395  18.972  0.5759 -1.1363  0.7589
 2425TIP3   OH231469   0.263   0.413  18.706 -0.1430  0.4726  0.8717
 2425TIP3    H131470   0.234   0.419  18.615  1.2717  0.0969  0.3577
 2425TIP3    H231471   0.234   0.495  18.746  1.1968  1.7261 -0.5596
 2426TIP3   OH231472   7.664   6.635  17.387 -0.1917  0.1136  0.3577
 2426TIP3    H131473   7.591   6.574  17.396 -0.5082  0.5230  0.5889
 2426TIP3    H231474   7.657   6.694  17.462  0.7833 -0.2583  0.7622
 2427TIP3   OH231475   1.294   4.297  18.428 -0.1167  0.1166  0.5605
 2427TIP3    H131476   1.317   4.219  18.479  0.9655 -1.1546 -1.6936
 2427TIP3    H231477   1.214   4.272  18.382 -0.3717  0.7546  0.6542
 2428TIP3   OH231478   6.357   2.452  17.211 -0.0648  0.2898 -0.2009
 2428TIP3    H131479   6.446   2.419  17.194 -0.0497 -0.1588  0.6883
 2428TIP3    H231480   6.346   2.524  17.149  0.9621  0.4189 -0.2476
 2429TIP3   OH231481   2.692   5.613  19.037  0.3877 -0.6923  0.6733
 2429TIP3    H131482   2.783   5.584  19.026  0.2375 -0.7091 -0.6541
 2429TIP3    H231483   2.661   5.630  18.948 -0.8827 -0.5820  1.1163
 2430TIP3   OH231484   3.081   7.252  19.106 -0.0631  0.0566  0.4959
 2430TIP3    H131485   3.035   7.330  19.139  0.6554  0.7328 -0.0567
 2430TIP3    H231486   3.095   7.270  19.013  0.4980 -0.5416  0.4559
 2431TIP3   OH231487   2.071   1.843  17.915  0.2495  0.2873  0.1784
 2431TIP3    H131488   2.062   1.937  17.897  0.1221  0.8939  2.9720
 2431TIP3    H231489   1.995   1.821  17.969  1.1208 -1.0332  0.9181
 2432TIP3   OH231490   1.511   4.577  18.476  0.3545  0.8480  0.1739
 2432TIP3    H131491   1.575   4.556  18.407 -0.6345  2.2314 -1.2246
 2432TIP3    H231492   1.541   4.660  18.512  0.7942  0.1928  1.3979
 2433TIP3   OH231493   3.141   4.125  17.937 -0.0162 -0.8177  0.3304
 2433TIP3    H131494   3.061   4.174  17.954  0.3576  0.3478 -1.0247
 2433TIP3    H231495   3.162   4.083  18.020 -0.7703  0.7185  1.3446
 2434TIP3   OH231496   5.605   1.708  17.793 -0.5649 -0.4400  0.5025
 2434TIP3    H131497   5.522   1.727  17.751  0.4370  2.5434 -0.3754
 2434TIP3    H231498   5.670   1.753  17.739  1.4716 -1.5861  1.8730
 2435TIP3   OH231499   5.129   3.963  19.046 -0.2475  0.0972  0.3372
 2435TIP3    H131500   5.075   4.033  19.010  1.1612  0.9603 -0.2040
 2435TIP3    H231501   5.194   4.008  19.100  1.3474 -0.6224 -0.8706
 2436TIP3   OH231502   6.096   1.395  17.637 -0.6638  0.1779  0.5883
 2436TIP3    H131503   6.114   1.466  17.576  0.3858 -0.4078  0.1883
 2436TIP3    H231504   6.103   1.316  17.584  0.9002 -0.3872  1.5683
 2437TIP3   OH231505   4.912   1.344  18.262  0.0544 -0.1014 -0.1461
 2437TIP3    H131506   4.948   1.416  18.314 -2.6450  1.2862 -0.0329
 2437TIP3    H231507   4.978   1.274  18.269  1.8202  1.5976  1.4467
 2438TIP3   OH231508   6.452   7.150  17.336 -0.3087 -0.1809 -0.3357
 2438TIP3    H131509   6.397   7.200  17.397 -1.4170 -0.5327 -1.0289
 2438TIP3    H231510   6.426   7.059  17.349 -2.7085 -0.0782 -3.3173
 2439TIP3   OH231511   0.466   2.262  18.764  0.3963 -0.3871 -0.2461
 2439TIP3    H131512   0.553   2.286  18.731 -0.3217 -0.2926 -2.1453
 2439TIP3    H231513   0.477   2.172  18.796  1.2964 -0.2054 -0.0068
 2440TIP3   OH231514   4.931   7.239  17.738 -0.4169 -0.2582  0.1066
 2440TIP3    H131515   4.885   7.322  17.729  0.9629  0.4508 -0.6832
 2440TIP3    H231516   5.015   7.252  17.693  0.8352 -1.2919  1.9821
 2441TIP3   OH231517   3.444   3.741  18.674 -0.3058  0.5819  0.1746
 2441TIP3    H131518   3.376   3.728  18.607  1.2244 -1.2422 -1.1393
 2441TIP3    H231519   3.510   3.796  18.630 -0.0234  0.7127  0.7536
 2442TIP3   OH231520   2.813   0.298  17.940  0.0046 -0.8841 -0.8278
 2442TIP3    H131521   2.765   0.300  17.857 -2.9489 -1.0364  0.7348
 2442TIP3    H231522   2.757   0.345  18.002  2.2383 -0.4909  1.0759
 2443TIP3   OH231523   2.198   2.688  17.053  0.0981 -0.7805 -0.3208
 2443TIP3    H131524   2.256   2.669  16.980 -0.0847  1.4498 -1.1270
 2443TIP3    H231525   2.241   2.759  17.100 -1.5845  0.4165 -0.5000
 2444TIP3   OH231526   0.682   5.504  18.472  0.0648  0.0038 -0.0722
 2444TIP3    H131527   0.754   5.485  18.411  0.9603 -0.4393  1.0899
 2444TIP3    H231528   0.627   5.426  18.467 -1.2930  1.0093 -2.1981
 2445TIP3   OH231529   0.583   3.824  17.534  0.1740  0.3649 -0.1279
 2445TIP3    H131530   0.644   3.896  17.523  0.4357 -0.0350 -1.4891
 2445TIP3    H231531   0.505   3.850  17.485  1.0724 -1.1481 -2.5102
 2446TIP3   OH231532   2.868   5.123  16.974  0.0016 -0.2973 -0.0141
 2446TIP3    H131533   2.812   5.198  16.991  0.7066 -0.2462  2.5486
 2446TIP3    H231534   2.844   5.094  16.886 -0.1233  3.0237 -1.1852
 2447TIP3   OH231535   7.582   0.344  18.424  0.1795 -0.2937 -0.2127
 2447TIP3    H131536   7.555   0.433  18.402 -0.5081 -0.6196 -0.7170
 2447TIP3    H231537   7.578   0.339  18.519 -0.7609 -0.0834 -0.2328
 2448TIP3   OH231538   3.682   4.826  17.588  0.1673  0.0840 -0.6383
 2448TIP3    H131539   3.738   4.749  17.596  0.7872  0.5259 -0.6608
 2448TIP3    H231540   3.593   4.791  17.583  0.2849 -0.5517  1.0819
 2449TIP3   OH231541   4.636   1.235  19.445 -0.6989  0.0835  0.2878
 2449TIP3    H131542   4.623   1.146  19.478  2.4255  0.2549  2.3694
 2449TIP3    H231543   4.725   1.234  19.410 -0.6927  2.3116  0.1622
 2450TIP3   OH231544   4.629   6.284  17.934  0.4097 -0.0984 -0.7738
 2450TIP3    H131545   4.701   6.327  17.888  1.5072 -1.2742 -0.1855
 2450TIP3    H231546   4.669   6.213  17.984 -1.4081 -2.2548 -2.1813
 2451TIP3   OH231547   1.745   3.130  17.678 -0.2595  0.2820  0.1176
 2451TIP3    H131548   1.741   3.159  17.770  1.1998 -0.0902  0.3230
 2451TIP3    H231549   1.838   3.118  17.661 -0.5509 -0.1418 -1.2790
 2452TIP3   OH231550   5.877   5.263  18.568 -0.2710  0.1681 -0.4347
 2452TIP3    H131551   5.782   5.257  18.567 -0.5246  1.6377  2.6062
 2452TIP3    H231552   5.907   5.176  18.593 -0.7445 -0.4536 -1.9765
 2453TIP3   OH231553   5.658   4.104  18.288 -0.0697 -0.4553  0.5956
 2453TIP3    H131554   5.695   4.057  18.363 -0.8920 -1.1892  0.5581
 2453TIP3    H231555   5.688   4.055  18.211  0.3828  0.0214  0.4593
 2454TIP3   OH231556   4.416   3.956  17.077  0.1653  0.0184 -0.2200
 2454TIP3    H131557   4.342   3.998  17.032  1.5891  1.9263 -0.9313
 2454TIP3    H231558   4.433   3.877  17.027 -0.4998  0.2941 -0.8976
 2455TIP3   OH231559   6.403   4.740  19.582 -0.0583  0.1079  0.6111
 2455TIP3    H131560   6.389   4.808  19.648  3.7281  1.7357  0.0339
 2455TIP3    H231561   6.379   4.781  19.500 -0.1238 -0.1645  0.4932
 2456TIP3   OH231562   0.695   4.137  19.234 -0.0800 -0.5206  0.1115
 2456TIP3    H131563   0.601   4.120  19.237 -0.6319  1.7901 -1.7033
 2456TIP3    H231564   0.720   4.148  19.326 -1.9464  0.5890  0.5377
 2457TIP3   OH231565   1.520   4.434  18.856 -0.2348  0.0014 -0.1259
 2457TIP3    H131566   1.434   4.398  18.874 -0.4084  0.1903 -0.5520
 2457TIP3    H231567   1.569   4.423  18.938 -0.9411  0.7131  0.4007
 2458TIP3   OH231568   5.514   4.939  17.588 -0.0022 -0.3374 -0.1560
 2458TIP3    H131569   5.486   4.979  17.506  1.7993 -0.0229 -0.6515
 2458TIP3    H231570   5.603   4.972  17.602 -0.3501 -0.1950  2.0456
 2459TIP3   OH231571   5.874   4.696  19.054  0.4674 -0.0396  0.4798
 2459TIP3    H131572   5.928   4.717  19.131  0.6063 -0.4727  0.5026
 2459TIP3    H231573   5.792   4.742  19.069 -0.1646 -1.5104  1.7366
 2460TIP3   OH231574   1.333   2.855  19.273  0.4155 -0.2605  0.0698
 2460TIP3    H131575   1.354   2.934  19.323 -0.9780 -0.5684  1.1912
 2460TIP3    H231576   1.258   2.879  19.219  1.3287 -0.2107 -1.2375
 2461TIP3   OH231577   0.754   7.084  17.860 -0.6390  0.0104 -0.3492
 2461TIP3    H131578   0.761   7.156  17.797 -1.9247 -1.2798 -2.0485
 2461TIP3    H231579   0.811   7.016  17.825  1.1425  0.3869  1.6313
 2462TIP3   OH231580   0.431   3.113  16.615  0.6922  0.2575 -0.6787
 2462TIP3    H131581   0.478   3.049  16.562  1.0363 -0.7378  0.7487
 2462TIP3    H231582   0.351   3.132  16.566  1.0833 -0.4758 -1.6234
 2463TIP3   OH231583   2.164   4.727  19.374  0.4600  0.2720 -0.7094
 2463TIP3    H131584   2.193   4.818  19.385  0.1199  0.1654  1.4422
 2463TIP3    H231585   2.072   4.735  19.346  0.3195  0.6015 -0.1724
 2464TIP3   OH231586   4.888   6.657  18.372  0.0094 -0.4235  0.6088
 2464TIP3    H131587   4.793   6.661  18.364  0.0391  0.5600  0.6720
 2464TIP3    H231588   4.909   6.565  18.357 -0.8961 -0.5407 -0.0400
 2465TIP3   OH231589   1.111   0.665  18.271  0.1482 -0.2539 -0.2251
 2465TIP3    H131590   1.099   0.570  18.267  0.1060 -0.2155 -1.0124
 2465TIP3    H231591   1.116   0.693  18.180 -0.6945  0.6180 -0.0168
 2466TIP3   OH231592   6.250   6.145  17.788  0.1497  0.1530  0.0157
 2466TIP3    H131593   6.162   6.140  17.751  0.3214  0.5957 -0.4609
 2466TIP3    H231594   6.307   6.109  17.719  0.5283  1.4257 -0.3673
 2467TIP3   OH231595   2.287   6.935  17.323  0.6278  0.4739  0.5534
 2467TIP3    H131596   2.285   6.839  17.329 -0.5652  0.5364  1.4657
 2467TIP3    H231597   2.380   6.956  17.312  0.9094 -0.7791  0.3673
 2468TIP3   OH231598   5.199   5.313  17.927  0.9438  0.2491  0.4942
 2468TIP3    H131599   5.144   5.278  17.857 -0.1408  0.3115  1.2902
 2468TIP3    H231600   5.281   5.336  17.884  0.8038 -0.9986 -0.4932
 2469TIP3   OH231601   5.858   4.262  19.750 -0.2698  0.4839  0.1606
 2469TIP3    H131602   5.812   4.305  19.822  0.9060  0.8026  0.7539
 2469TIP3    H231603   5.908   4.333  19.708  0.9244 -0.1031  0.5459
 2470TIP3   OH231604   6.911   2.484  16.857  0.3613  0.1560 -0.1861
 2470TIP3    H131605   6.929   2.540  16.782 -0.8284 -1.1741 -1.5358
 2470TIP3    H231606   6.822   2.508  16.883  0.7590  0.5968  0.8237
 2471TIP3   OH231607   2.730   7.431  17.524  0.0068 -0.0987  0.4967
 2471TIP3    H131608   2.769   7.423  17.437 -1.0130  0.5538 -0.0395
 2471TIP3    H231609   2.767   7.357  17.573  0.5235 -0.5340 -0.5074
 2472TIP3   OH231610   2.445   3.781  18.189  0.0119 -0.2533  0.5741
 2472TIP3    H131611   2.351   3.770  18.173  0.0249  0.4699 -0.0749
 2472TIP3    H231612   2.474   3.843  18.121  0.8436 -0.0450  1.1002
 2473TIP3   OH231613   1.840   6.317  18.024  0.1059  0.3769 -0.1291
 2473TIP3    H131614   1.800   6.293  18.108  1.4709 -2.1622 -0.0809
 2473TIP3    H231615   1.912   6.375  18.048  0.3299 -0.1258  0.4458
 2474TIP3   OH231616   3.354   6.042  18.023  0.1498 -0.1208  0.1388
 2474TIP3    H131617   3.389   6.001  18.102  2.1124 -1.9560 -1.5637
 2474TIP3    H231618   3.398   6.126  18.018 -1.7765  1.1310  2.1531
 2475TIP3   OH231619   2.977   6.559  19.297 -0.0797  0.2293  0.5144
 2475TIP3    H131620   2.953   6.471  19.326 -0.4368  0.6450  1.5193
 2475TIP3    H231621   2.896   6.610  19.305 -0.0610  0.4823 -0.7592
 2476TIP3   OH231622   5.502   6.132  17.507  0.0806 -0.1069 -0.3550
 2476TIP3    H131623   5.484   6.102  17.596  0.9729  0.6691  0.1166
 2476TIP3    H231624   5.436   6.090  17.453  1.1809 -2.7939  0.2575
 2477TIP3   OH231625   6.122   2.549  17.965  0.1730  0.8591  0.3500
 2477TIP3    H131626   6.039   2.529  18.009 -0.7145  2.4180 -0.5035
 2477TIP3    H231627   6.118   2.499  17.883  0.8672 -0.3926  1.0626
 2478TIP3   OH231628   2.114   3.802  18.385 -0.1350 -0.4857 -0.1061
 2478TIP3    H131629   2.164   3.721  18.387  2.8957  1.2195  0.0647
 2478TIP3    H231630   2.135   3.845  18.468  0.7284  1.7097 -1.3630
 2479TIP3   OH231631   5.191   6.507  17.657 -0.1400 -0.3870 -0.6287
 2479TIP3    H131632   5.169   6.452  17.581 -1.1613  0.5588 -1.0458
 2479TIP3    H231633   5.132   6.476  17.726 -0.7766  0.2298 -0.8897
 2480TIP3   OH231634   2.109   6.225  18.802 -0.4005  0.1902  0.3974
 2480TIP3    H131635   2.120   6.288  18.731  2.5055  0.8275  1.2971
 2480TIP3    H231636   2.077   6.278  18.875  0.1678  0.2700  0.5934
 2481TIP3   OH231637   6.387   4.494  19.035 -0.5034 -0.2872 -0.5598
 2481TIP3    H131638   6.352   4.478  19.123 -0.2942  0.2563 -0.3712
 2481TIP3    H231639   6.358   4.583  19.015 -1.5408 -0.8199 -1.5202
 2482TIP3   OH231640   0.193   7.065  17.775 -0.4387  0.1965  0.3689
 2482TIP3    H131641   0.191   6.976  17.809 -0.3756  0.3663  0.8211
 2482TIP3    H231642   0.286   7.081  17.756 -0.6546 -0.4822 -1.4650
 2483TIP3   OH231643   5.802   3.476  19.119 -0.8773  0.5908 -0.0538
 2483TIP3    H131644   5.867   3.461  19.051  0.7979  1.3206  1.2809
 2483TIP3    H231645   5.740   3.403  19.111  1.6153 -1.7115  0.2946
 2484TIP3   OH231646   0.390   5.930  19.469 -0.0166 -0.2671 -0.0530
 2484TIP3    H131647   0.362   5.928  19.561  0.4249 -3.7825  0.1581
 2484TIP3    H231648   0.485   5.920  19.474  0.0091 -0.4830 -0.9011
 2485TIP3   OH231649   4.813   0.505  18.416  0.5109  0.6555  0.0184
 2485TIP3    H131650   4.788   0.415  18.394  1.1742  0.6972 -0.9435
 2485TIP3    H231651   4.859   0.537  18.338  1.9900  1.1795  1.0748
 2486TIP3   OH231652   1.588   3.873  19.289 -0.1298  0.4407 -0.2909
 2486TIP3    H131653   1.628   3.787  19.299 -0.3841  0.4451  0.8179
 2486TIP3    H231654   1.655   3.924  19.242  0.4072 -0.0860 -0.1210
 2487TIP3   OH231655   6.813   0.226  17.749 -0.1122 -0.2265  0.3399
 2487TIP3    H131656   6.815   0.304  17.805 -3.2339  1.8570 -2.1373
 2487TIP3    H231657   6.790   0.155  17.809 -0.3560  1.3130  2.1961
 2488TIP3   OH231658   4.189   7.505  18.389  0.5018  0.9753 -0.4996
 2488TIP3    H131659   4.257   7.550  18.338  1.9294  0.3838  0.8207
 2488TIP3    H231660   4.161   7.433  18.333 -0.4842  2.3547 -1.8654
 2489TIP3   OH231661   4.150   4.692  18.368  0.6069 -0.0546 -0.1110
 2489TIP3    H131662   4.056   4.692  18.381  0.6993 -1.7976  0.7702
 2489TIP3    H231663   4.173   4.785  18.361 -0.9528  0.4828  1.2986
 2490TIP3   OH231664   4.390   2.969  19.097 -0.3816 -0.3139 -1.0249
 2490TIP3    H131665   4.412   2.885  19.137 -0.1692  0.4123  0.4489
 2490TIP3    H231666   4.368   3.026  19.170 -0.7194  0.8762 -2.0076
 2491TIP3   OH231667   6.617   6.521  18.400  0.1854 -0.3733 -0.1388
 2491TIP3    H131668   6.534   6.487  18.434 -0.1990  0.5677 -0.1113
 2491TIP3    H231669   6.651   6.575  18.471 -0.6176  1.6032 -1.1824
 2492TIP3   OH231670   2.255   0.632  17.550  0.7671 -0.5253  0.2396
 2492TIP3    H131671   2.284   0.649  17.460  2.4730 -0.6999  0.7378
 2492TIP3    H231672   2.216   0.714  17.578 -0.3742 -0.6539 -0.8554
 2493TIP3   OH231673   2.455   3.032  18.135  0.2145 -0.0551 -0.2719
 2493TIP3    H131674   2.541   3.004  18.104  0.7244 -0.1650  1.1638
 2493TIP3    H231675   2.405   2.951  18.142  1.2191 -0.5542  2.4507
 2494TIP3   OH231676   2.458   2.788  18.991 -0.0454  0.1394 -0.3226
 2494TIP3    H131677   2.451   2.728  18.917  0.2304 -1.1688  0.6707
 2494TIP3    H231678   2.542   2.832  18.978  0.1253 -0.2768 -0.6511
 2495TIP3   OH231679   2.218   5.804  17.977  0.0861 -0.5198 -0.3228
 2495TIP3    H131680   2.151   5.872  17.984  0.7045 -0.0436  1.3192
 2495TIP3    H231681   2.168   5.723  17.961 -1.0152 -0.3763  2.0016
 2496TIP3   OH231682   3.775   3.854  18.720 -0.1044 -0.6461 -0.1899
 2496TIP3    H131683   3.772   3.920  18.651 -0.1352 -0.3914  0.0532
 2496TIP3    H231684   3.750   3.773  18.676 -0.4771 -0.4210 -0.4063
 2497TIP3   OH231685   0.066   5.598  19.045 -0.2145  0.1388  0.5612
 2497TIP3    H131686   0.098   5.605  18.955  1.3326 -0.8128  0.9884
 2497TIP3    H231687   0.057   5.504  19.060 -1.4124  0.3262  1.1053
 2498TIP3   OH231688   0.955   6.309  17.769  0.3018 -0.1369  0.0535
 2498TIP3    H131689   0.934   6.380  17.709 -0.6375 -0.2864  0.1855
 2498TIP3    H231690   0.990   6.239  17.714 -1.2882 -0.5712 -0.4566
 2499TIP3   OH231691   2.935   3.665  18.331 -0.1790  0.2621  0.1698
 2499TIP3    H131692   2.970   3.646  18.244  0.2457  1.4960  0.0532
 2499TIP3    H231693   2.904   3.755  18.326 -0.2337  0.3253  1.2727
 2500TIP3   OH231694   4.333   3.020  18.535  0.0124 -0.2319  0.3055
 2500TIP3    H131695   4.350   3.111  18.511 -1.6057 -0.1278 -0.6308
 2500TIP3    H231696   4.341   2.971  18.453 -2.4674 -0.3777  0.0821
 2501TIP3   OH231697   1.870   2.520  16.985 -0.0151  0.1801  0.5635
 2501TIP3    H131698   1.912   2.438  16.961 -0.9757  0.1090 -1.0128
 2501TIP3    H231699   1.793   2.526  16.928 -1.3917  0.9550  2.3887
 2502TIP3   OH231700   4.335   6.266  19.580 -0.3840 -0.0031 -0.1808
 2502TIP3    H131701   4.307   6.190  19.529 -0.6131  0.7625 -1.2254
 2502TIP3    H231702   4.408   6.234  19.633 -1.2734 -1.2619  0.3368
 2503TIP3   OH231703   0.120   6.789  17.860  0.0806 -0.5059  0.1410
 2503TIP3    H131704   0.170   6.770  17.939 -0.4023 -1.5965  0.2047
 2503TIP3    H231705   0.038   6.741  17.872 -0.9226  1.0572 -0.0462
 2504TIP3   OH231706   4.001   2.566  18.355  0.7214  0.2379  0.3468
 2504TIP3    H131707   4.068   2.500  18.337  0.9901  0.1175  1.6796
 2504TIP3    H231708   4.017   2.593  18.445 -2.5847 -1.7109  1.7021
 2505TIP3   OH231709   2.332   3.455  19.215 -0.5708  0.4387 -0.4376
 2505TIP3    H131710   2.345   3.530  19.273  1.1412 -1.4250  1.7892
 2505TIP3    H231711   2.388   3.473  19.139  1.6637  0.4747  1.1090
 2506TIP3   OH231712   0.295   7.515  17.680  0.0903  0.0505  0.7109
 2506TIP3    H131713   0.290   7.576  17.606  0.2327 -0.0281  0.6351
 2506TIP3    H231714   0.375   7.464  17.663  0.8561  0.9146  1.6053
 2507TIP3   OH231715   3.866   0.947  19.210  0.1789 -0.2308 -0.3301
 2507TIP3    H131716   3.805   0.876  19.191  0.8977 -0.4669 -2.0104
 2507TIP3    H231717   3.823   0.999  19.277 -1.6060 -0.7087 -1.0545
 2508TIP3   OH231718   0.211   0.317  17.931  0.2313  0.2108  0.1306
 2508TIP3    H131719   0.160   0.301  18.011 -0.1320 -2.0875 -0.5096
 2508TIP3    H231720   0.183   0.249  17.870  1.0425  1.4595 -1.7306
 2509TIP3   OH231721   6.379   5.563  19.078  0.5316 -0.0942  0.7148
 2509TIP3    H131722   6.291   5.574  19.112 -0.5085  0.7620 -1.9606
 2509TIP3    H231723   6.405   5.651  19.051  2.7536 -0.1021  2.5353
 2510TIP3   OH231724   6.519   0.670  19.246  0.0758 -0.1771 -0.0287
 2510TIP3    H131725   6.428   0.677  19.275  0.6708 -1.5300  2.4621
 2510TIP3    H231726   6.540   0.577  19.257  1.9861  0.2514  0.2436
 2511TIP3   OH231727   4.078   2.763  18.032 -0.1017  0.9532 -0.2866
 2511TIP3    H131728   4.047   2.819  18.104 -0.9635 -0.6730  0.6697
 2511TIP3    H231729   4.002   2.753  17.975  0.1022  0.9115 -0.5532
 2512TIP3   OH231730   6.368   1.790  19.106 -0.2763 -0.0570 -0.0702
 2512TIP3    H131731   6.290   1.836  19.135 -1.1422 -1.2116 -0.4995
 2512TIP3    H231732   6.421   1.779  19.185  0.0794  1.8391  0.0009
 2513TIP3   OH231733   4.930   4.452  17.817 -0.2963  0.4093 -0.5835
 2513TIP3    H131734   4.837   4.455  17.837 -0.4779  2.1895 -1.5424
 2513TIP3    H231735   4.938   4.496  17.733  1.5231  1.1922 -0.0468
 2514TIP3   OH231736   3.932   6.251  18.497  0.1246  0.4888  0.1864
 2514TIP3    H131737   3.986   6.263  18.575  0.1572 -0.2642  0.2880
 2514TIP3    H231738   3.993   6.219  18.430 -0.2205 -0.5413  0.3537
 2515TIP3   OH231739   2.093   3.209  17.553  0.3724 -0.2823  0.2812
 2515TIP3    H131740   2.029   3.277  17.577 -2.1075 -2.8433  1.5022
 2515TIP3    H231741   2.118   3.231  17.463 -0.2111  2.2595  0.6471
 2516TIP3   OH231742   1.920   4.743  17.002 -0.1495 -0.4127  0.6564
 2516TIP3    H131743   2.008   4.724  17.036  0.5330 -0.5381 -1.0704
 2516TIP3    H231744   1.878   4.657  16.995  0.0613 -0.4926  0.3162
 2517TIP3   OH231745   2.830   0.165  17.413  0.1360 -0.1753  0.4345
 2517TIP3    H131746   2.760   0.135  17.354 -0.2259 -0.6054  1.0743
 2517TIP3    H231747   2.789   0.170  17.499  0.4197  1.3342  0.5105
 2518TIP3   OH231748   1.623   6.159  19.149 -0.2565 -0.5282 -0.3415
 2518TIP3    H131749   1.690   6.091  19.139  0.8670  0.6290 -1.1143
 2518TIP3    H231750   1.548   6.125  19.101  0.7049 -0.7301 -1.7907
 2519TIP3   OH231751   3.352   7.601  17.116 -0.0552 -0.4002 -0.3181
 2519TIP3    H131752   3.432   7.609  17.063 -0.6085  0.7997 -1.0365
 2519TIP3    H231753   3.290   7.556  17.059 -0.4258  0.2378 -0.4257
 2520TIP3   OH231754   5.538   4.137  17.726 -0.2244 -0.0609  0.0705
 2520TIP3    H131755   5.611   4.102  17.674 -1.1103  1.1234 -2.1121
 2520TIP3    H231756   5.483   4.060  17.743  0.3523 -0.5753 -0.3140
 2521TIP3   OH231757   5.207   3.968  19.424  0.3872 -0.0027 -0.2050
 2521TIP3    H131758   5.182   3.880  19.395 -0.3732 -0.2145  0.9773
 2521TIP3    H231759   5.260   4.003  19.353 -0.5401 -0.8499 -1.3739
 2522TIP3   OH231760   1.007   4.634  18.760  0.5658 -0.3785 -0.3032
 2522TIP3    H131761   1.033   4.725  18.767  1.6644 -0.7403  0.6129
 2522TIP3    H231762   1.082   4.590  18.722  0.1740 -0.9619 -0.4191
 2523TIP3   OH231763   3.305   7.248  16.737  0.2513 -0.2026  0.0087
 2523TIP3    H131764   3.325   7.332  16.696  0.5002 -0.0515  0.4313
 2523TIP3    H231765   3.214   7.230  16.714 -0.2880  0.9163  1.1764
 2524TIP3   OH231766   4.953   6.224  16.260  0.2245  0.1961 -0.0779
 2524TIP3    H131767   4.971   6.317  16.250  0.7094  0.2099  0.8296
 2524TIP3    H231768   5.038   6.185  16.280  0.0659 -0.4829 -0.6663
 2525TIP3   OH231769   6.597   4.704  17.621 -0.5217 -0.0415  0.3694
 2525TIP3    H131770   6.557   4.758  17.690  2.7659 -0.3713  2.8426
 2525TIP3    H231771   6.688   4.734  17.619  0.1640 -2.0169 -1.8848
 2526TIP3   OH231772   5.480   5.096  17.360 -0.1817 -0.1294  0.0976
 2526TIP3    H131773   5.408   5.077  17.300 -0.6128  0.5265  0.3884
 2526TIP3    H231774   5.534   5.160  17.314  0.6899 -1.2398 -0.4578
 2527TIP3   OH231775   0.457   5.076  19.526 -0.7341  0.1176 -0.2677
 2527TIP3    H131776   0.525   5.141  19.511  0.6986 -1.1950  0.2195
 2527TIP3    H231777   0.443   5.035  19.441  1.4681 -1.7556  0.1471
 2528TIP3   OH231778   3.482   2.365  18.637  0.5480  0.2303  0.5253
 2528TIP3    H131779   3.421   2.368  18.563 -0.7706  0.5070  1.5720
 2528TIP3    H231780   3.539   2.290  18.618 -0.4770 -0.3969 -0.2418
 2529TIP3   OH231781   2.412   2.350  18.903 -0.1188 -0.4389 -0.3907
 2529TIP3    H131782   2.358   2.274  18.881 -2.3568  0.3577  1.8014
 2529TIP3    H231783   2.418   2.347  18.999  0.3483  1.7393 -0.3096
 2530TIP3   OH231784   1.944   1.271  18.286 -0.2213  0.1522 -0.2546
 2530TIP3    H131785   2.029   1.313  18.298  0.2174 -0.9111  0.4903
 2530TIP3    H231786   1.950   1.189  18.335 -1.7411  0.1427 -0.0182
 2531TIP3   OH231787   4.286   6.277  18.506  0.2679 -0.1543  0.2947
 2531TIP3    H131788   4.292   6.269  18.601  0.1702 -0.4382  0.2774
 2531TIP3    H231789   4.261   6.368  18.490  0.6674 -0.0013  0.5249
 2532TIP3   OH231790   5.751   4.133  18.650  0.5182 -0.8040 -0.6475
 2532TIP3    H131791   5.817   4.202  18.648 -0.2762  0.1738  2.0131
 2532TIP3    H231792   5.671   4.175  18.621  0.1964 -0.7659  0.2432
 2533TIP3   OH231793   6.383   4.947  17.343  0.2216  0.1012  0.7404
 2533TIP3    H131794   6.441   4.931  17.417  2.4259  0.6635 -0.7671
 2533TIP3    H231795   6.441   4.951  17.267 -1.7767  0.9307 -0.8459
 2534TIP3   OH231796   6.011   2.972  18.719 -0.4995  0.2744  0.5732
 2534TIP3    H131797   6.075   2.903  18.702 -1.2179 -0.4665  0.8172
 2534TIP3    H231798   5.957   2.973  18.639 -1.4386 -0.5149  1.1738
 2535TIP3   OH231799   1.500   6.793  17.177  0.4572 -0.6226  0.1284
 2535TIP3    H131800   1.528   6.885  17.180  1.3260 -0.8712 -0.0448
 2535TIP3    H231801   1.570   6.748  17.129  0.1379 -1.4068  0.3822
 2536TIP3   OH231802   2.958   2.902  17.089 -0.4249 -0.3921  0.7002
 2536TIP3    H131803   3.036   2.880  17.038 -0.1926 -1.6113  1.5409
 2536TIP3    H231804   2.985   2.889  17.180 -1.2296  0.4465  1.0725
 2537TIP3   OH231805   4.679   1.530  17.465  0.1473 -0.2654 -0.3058
 2537TIP3    H131806   4.769   1.512  17.489  0.6184  0.9368 -1.0837
 2537TIP3    H231807   4.678   1.530  17.369 -0.5815  0.1446 -0.3128
 2538TIP3   OH231808   4.098   5.127  17.595  0.7061 -0.4945 -0.0036
 2538TIP3    H131809   4.081   5.145  17.688 -0.3424  0.3241 -0.3418
 2538TIP3    H231810   4.193   5.120  17.590  0.9911  1.8244  0.7535
 2539TIP3   OH231811   6.663   1.186  18.799  0.2701 -0.1155 -0.4610
 2539TIP3    H131812   6.686   1.220  18.713 -1.3782  1.3600 -0.3579
 2539TIP3    H231813   6.747   1.159  18.837  1.1796  0.4392 -1.9966
 2540TIP3   OH231814   6.010   1.602  18.451 -1.0901 -0.2923 -0.2652
 2540TIP3    H131815   5.999   1.508  18.469  0.1836 -0.5540 -0.7525
 2540TIP3    H231816   5.985   1.645  18.533 -2.5832 -0.9816 -0.3231
 2541TIP3   OH231817   3.448   0.439  19.039  0.1175  0.1361  0.0154
 2541TIP3    H131818   3.501   0.364  19.012  2.5522  1.7393 -0.0203
 2541TIP3    H231819   3.436   0.490  18.958 -0.7730  0.2375  0.1999
 2542TIP3   OH231820   7.091   6.014  18.561 -0.0446  0.5045  0.0197
 2542TIP3    H131821   7.165   6.075  18.558 -0.0847  0.5394 -0.2983
 2542TIP3    H231822   7.108   5.952  18.490 -0.8587  1.1398 -0.7500
 2543TIP3   OH231823   2.339   0.302  17.454  0.1575  0.4051 -0.1065
 2543TIP3    H131824   2.404   0.317  17.386  1.6040 -0.1057  1.0883
 2543TIP3    H231825   2.357   0.369  17.520  0.7773 -0.8914  1.1155
 2544TIP3   OH231826   6.310   2.546  18.795 -0.2170  0.1460 -0.3131
 2544TIP3    H131827   6.385   2.559  18.853 -0.3512  0.4992 -0.2139
 2544TIP3    H231828   6.256   2.482  18.840  0.2803 -0.5102 -0.6347
 2545TIP3   OH231829   5.366   2.032  19.127  0.0803 -0.3364  0.1995
 2545TIP3    H131830   5.344   2.020  19.219 -2.2471 -1.5312 -0.4218
 2545TIP3    H231831   5.347   2.125  19.110 -0.1714 -0.2846  0.7547
 2546TIP3   OH231832   7.246   5.594  17.402  0.0066  0.6477 -0.3109
 2546TIP3    H131833   7.269   5.678  17.442  1.1362  0.6150 -0.8590
 2546TIP3    H231834   7.194   5.617  17.325  0.5472  0.8587 -0.6140
 2547TIP3   OH231835   0.048   1.240  18.123  0.0292 -0.4766 -0.0100
 2547TIP3    H131836   0.046   1.174  18.192 -0.3509  0.7098  1.1543
 2547TIP3    H231837   0.100   1.200  18.053  0.2399 -1.7969  0.8601
 2548TIP3   OH231838   2.021   2.065  19.079 -0.2938  0.6871  0.0571
 2548TIP3    H131839   2.074   2.107  19.147  1.0477 -1.2751  0.3181
 2548TIP3    H231840   2.084   2.037  19.013 -1.0567 -0.9901 -0.0205
 2549TIP3   OH231841   4.092   0.874  18.101  0.2602 -0.2829 -0.3032
 2549TIP3    H131842   4.124   0.803  18.157 -0.0709 -0.9552 -0.9426
 2549TIP3    H231843   4.081   0.833  18.015  1.4248  0.8903 -1.0489
 2550TIP3   OH231844   6.789   1.281  18.567 -0.3890 -0.3763  0.0733
 2550TIP3    H131845   6.872   1.330  18.568  0.0486 -1.0935 -0.3380
 2550TIP3    H231846   6.753   1.297  18.479  0.2387 -1.5682 -0.4178
 2551TIP3   OH231847   7.281   0.326  17.699  0.4756  0.1379 -0.1903
 2551TIP3    H131848   7.276   0.240  17.658  0.1089 -0.3166  0.7739
 2551TIP3    H231849   7.373   0.339  17.718  0.4775 -0.2309  0.0494
 2552TIP3   OH231850   0.343   2.686  18.437  0.4486 -0.4759  0.4446
 2552TIP3    H131851   0.271   2.749  18.448  0.0969 -0.9507  0.8999
 2552TIP3    H231852   0.348   2.673  18.343  0.0834 -0.2687  0.3911
 2553TIP3   OH231853   5.149   1.506  18.814 -0.0050  0.0332  0.3638
 2553TIP3    H131854   5.119   1.585  18.769 -2.6099  0.2893  2.2801
 2553TIP3    H231855   5.238   1.526  18.843  0.3187  1.2481 -1.3464
 2554TIP3   OH231856   6.301   5.486  16.682 -0.7158 -0.2523 -0.5718
 2554TIP3    H131857   6.269   5.402  16.649 -1.0960 -0.6738  0.7856
 2554TIP3    H231858   6.239   5.509  16.752  0.6646  0.0234  0.6127
 2555TIP3   OH231859   0.469   0.897  17.302 -0.6502  0.0053  0.4599
 2555TIP3    H131860   0.384   0.924  17.270 -0.9780 -0.2091  1.1264
 2555TIP3    H231861   0.454   0.812  17.342 -0.1576  0.0350  0.7211
 2556TIP3   OH231862   2.123   1.879  18.506 -0.1327  0.4034  0.0874
 2556TIP3    H131863   2.157   1.968  18.513  2.1401 -0.5029  2.3037
 2556TIP3    H231864   2.090   1.859  18.594  2.7995 -2.0865  0.7772
 2557TIP3   OH231865   5.280   6.306  16.992  0.0409 -0.0766  0.6410
 2557TIP3    H131866   5.316   6.359  16.920 -0.2534  0.0191  0.5652
 2557TIP3    H231867   5.188   6.293  16.969 -0.6555  1.7970  2.0679
 2558TIP3   OH231868   6.224   2.796  18.698  0.3873 -0.3019 -0.3015
 2558TIP3    H131869   6.225   2.701  18.704  1.5587 -0.3060 -0.3464
 2558TIP3    H231870   6.307   2.824  18.736  0.0925  0.6991 -0.3519
 2559TIP3   OH231871   4.048   2.689  18.824 -0.1740 -0.6953  0.0189
 2559TIP3    H131872   4.072   2.771  18.782  0.2097 -0.5687  0.4828
 2559TIP3    H231873   4.068   2.622  18.758 -1.1322 -0.3769 -0.6199
 2560TIP3   OH231874   7.638   5.282  18.837 -0.4941 -0.1293  0.3866
 2560TIP3    H131875   7.580   5.324  18.773 -0.1315 -0.1146  0.0627
 2560TIP3    H231876   7.632   5.188  18.817  2.1466  0.0565 -1.9008
 2561TIP3   OH231877   1.496   3.738  17.260 -0.2298 -0.1722  0.0791
 2561TIP3    H131878   1.465   3.820  17.221  0.1526  0.5486  1.2396
 2561TIP3    H231879   1.461   3.739  17.350 -1.0198 -1.7454 -0.1643
 2562TIP3   OH231880   0.276   1.015  18.619 -0.3903 -0.4607  0.3072
 2562TIP3    H131881   0.336   0.953  18.577 -1.1931 -0.2148 -1.2782
 2562TIP3    H231882   0.333   1.085  18.652  0.3469 -1.0609  0.3280
 2563TIP3   OH231883   6.214   1.833  17.040 -0.4598 -0.0698  0.3622
 2563TIP3    H131884   6.264   1.760  17.004 -1.1572 -0.2092 -0.3493
 2563TIP3    H231885   6.129   1.827  16.997 -1.1188  0.1258  1.6172
 2564TIP3   OH231886   0.125   2.504  17.433 -0.3749  0.1711 -1.0305
 2564TIP3    H131887   0.203   2.505  17.378  0.7618  0.2058  0.5116
 2564TIP3    H231888   0.104   2.596  17.448  2.4278  0.4367  2.6676
 2565TIP3   OH231889   5.693   7.405  18.166  0.1028  0.8866  0.9482
 2565TIP3    H131890   5.712   7.494  18.195  0.7593  1.0753 -0.0253
 2565TIP3    H231891   5.695   7.353  18.247 -0.0854  1.7081  1.4995
 2566TIP3   OH231892   4.082   1.128  19.610  0.0003 -0.4231 -0.1254
 2566TIP3    H131893   4.132   1.183  19.549 -1.0267 -0.2029 -0.7939
 2566TIP3    H231894   4.132   1.132  19.692 -0.1032  1.6570 -0.0977
 2567TIP3   OH231895   7.120   7.175  17.801  0.3826 -0.2505  0.6130
 2567TIP3    H131896   7.092   7.114  17.869  0.3528  1.3468  2.0943
 2567TIP3    H231897   7.198   7.217  17.836 -1.5088  3.0812  1.2812
 2568TIP3   OH231898   4.421   0.888  19.230 -0.2606 -0.0650  0.0710
 2568TIP3    H131899   4.374   0.812  19.197 -0.4510  0.1403 -0.1382
 2568TIP3    H231900   4.505   0.887  19.185 -1.0871  1.0513 -1.5906
 2569TIP3   OH231901   7.527   2.765  19.685 -0.4247  0.0299 -0.2945
 2569TIP3    H131902   7.451   2.816  19.659 -0.8649 -0.9107 -0.8946
 2569TIP3    H231903   7.514   2.680  19.645  1.7698  0.3523 -1.8796
 2570TIP3   OH231904   0.037   0.893  18.633 -0.5226  0.1659  0.2943
 2570TIP3    H131905   0.064   0.874  18.543 -1.2961  0.1825  0.0506
 2570TIP3    H231906   0.113   0.936  18.672 -1.0422  2.5915 -1.1430
 2571TIP3   OH231907   0.017   5.632  19.311 -0.4213  0.0152 -0.7022
 2571TIP3    H131908   0.015   5.601  19.220  0.2174  1.2470 -1.1598
 2571TIP3    H231909   0.110   5.642  19.331 -0.5167 -1.1014  0.4150
 2572TIP3   OH231910   2.371   0.629  17.288  0.1969  0.3192  0.4078
 2572TIP3    H131911   2.413   0.558  17.239  0.3770  0.9767 -0.4174
 2572TIP3    H231912   2.379   0.705  17.231 -2.2541  0.4491  0.1204
 2573TIP3   OH231913   5.931   4.452  19.209  0.5282  0.2827  0.3718
 2573TIP3    H131914   5.901   4.426  19.121  5.9258  1.6772 -2.3054
 2573TIP3    H231915   5.955   4.369  19.251 -0.5423 -0.2743 -0.0551
 2574TIP3   OH231916   6.336   3.929  18.166  0.3748  0.2492 -0.0959
 2574TIP3    H131917   6.258   3.903  18.216 -0.3147  1.2839 -0.5841
 2574TIP3    H231918   6.341   3.865  18.095  1.9033 -1.8038  1.7368
 2575TIP3   OH231919   5.396   4.712  18.919  0.5249 -0.4815 -0.3231
 2575TIP3    H131920   5.355   4.695  19.004 -0.3934  1.9421 -0.2035
 2575TIP3    H231921   5.375   4.634  18.867 -0.2234 -1.3453  1.1882
 2576TIP3   OH231922   2.764   3.196  18.863  0.4333  0.1739  0.1556
 2576TIP3    H131923   2.779   3.218  18.771 -0.3219 -1.5910 -0.4263
 2576TIP3    H231924   2.850   3.169  18.896  0.3019 -1.4362 -0.7120
 2577TIP3   OH231925   6.520   5.258  17.540  0.0404  0.0009  0.7972
 2577TIP3    H131926   6.435   5.300  17.525  0.2260  1.1138  2.5221
 2577TIP3    H231927   6.500   5.165  17.544 -0.7029  0.0178 -1.1462
 2578TIP3   OH231928   3.866   1.161  17.526  0.0775  0.3920  0.5971
 2578TIP3    H131929   3.824   1.075  17.532  2.4757 -0.9623 -0.4161
 2578TIP3    H231930   3.924   1.164  17.602 -0.1357  1.2324  0.7332
 2579TIP3   OH231931   1.329   6.590  19.655 -0.1202 -0.2510 -0.8168
 2579TIP3    H131932   1.371   6.606  19.571 -1.4391 -0.7948 -1.6078
 2579TIP3    H231933   1.253   6.648  19.655  0.1910  0.1753  0.2614
 2580TIP3   OH231934   7.500   3.403  19.083 -0.0431  0.0295  0.3682
 2580TIP3    H131935   7.466   3.481  19.041  1.3351  0.2181 -0.4484
 2580TIP3    H231936   7.451   3.396  19.165 -1.5901  0.6005 -0.4741
 2581TIP3   OH231937   0.691   0.857  18.154  0.0918  0.4822  0.1087
 2581TIP3    H131938   0.649   0.890  18.074  0.7243 -1.3866 -1.0622
 2581TIP3    H231939   0.783   0.843  18.129  0.4001  0.2574  1.2905
 2582TIP3   OH231940   4.899   6.079  17.931  0.3005  0.0232  0.5404
 2582TIP3    H131941   4.922   6.079  18.024 -1.2564 -0.0715  0.9522
 2582TIP3    H231942   4.861   5.992  17.916 -1.6498  0.8487  0.4227
 2583TIP3   OH231943   0.579   4.386  19.364 -0.3097  0.6340  0.2453
 2583TIP3    H131944   0.630   4.314  19.401  0.9454  1.3465 -0.0347
 2583TIP3    H231945   0.488   4.360  19.377  0.1084 -0.9230  0.2985
 2584TIP3   OH231946   6.809   4.908  19.186  0.7113 -0.3440  0.0564
 2584TIP3    H131947   6.746   4.866  19.244  0.8017 -0.4690  0.0649
 2584TIP3    H231948   6.811   4.852  19.109 -0.2541  0.4306 -0.5540
 2585TIP3   OH231949   6.244   7.063  18.250  0.6430 -0.3662 -0.2615
 2585TIP3    H131950   6.167   7.102  18.210  1.8615  1.1062 -1.3092
 2585TIP3    H231951   6.216   7.035  18.337 -0.9234  0.6017 -0.4260
 2586TIP3   OH231952   3.825   3.200  18.052  0.1220 -0.0570  0.3486
 2586TIP3    H131953   3.807   3.294  18.055  0.8248  0.1458 -1.0963
 2586TIP3    H231954   3.738   3.159  18.051 -0.3200  0.7448 -2.2321
 2587TIP3   OH231955   0.240   3.476  19.200  0.2585 -0.7487 -0.1534
 2587TIP3    H131956   0.288   3.541  19.150  2.1340 -2.7826 -1.1714
 2587TIP3    H231957   0.171   3.446  19.140 -0.5744  0.1726  0.2989
 2588TIP3   OH231958   6.430   6.112  18.733  0.3985  0.3383 -0.0800
 2588TIP3    H131959   6.432   6.027  18.689  1.0434  0.7802 -0.9459
 2588TIP3    H231960   6.519   6.123  18.768  0.5446  0.9653 -0.6189
 2589TIP3   OH231961   0.942   1.318  17.071  0.6606 -0.0308 -0.4016
 2589TIP3    H131962   1.031   1.308  17.037  0.4960 -0.1175 -0.8119
 2589TIP3    H231963   0.925   1.413  17.065  0.4682 -0.0980 -0.9897
 2590TIP3   OH231964   7.195   1.652  19.636 -0.0563  0.4069  0.0435
 2590TIP3    H131965   7.219   1.741  19.613  1.0965  0.0015 -0.3630
 2590TIP3    H231966   7.103   1.645  19.611 -0.2560  1.5780  0.4050
 2591TIP3   OH231967   3.674   5.557  17.176 -0.6952 -0.1713  0.2374
 2591TIP3    H131968   3.730   5.507  17.116  1.4957  0.7480  1.4199
 2591TIP3    H231969   3.609   5.494  17.207 -1.1554 -0.9705 -2.1090
 2592TIP3   OH231970   5.557   4.587  18.362  0.2116  0.4659 -0.1180
 2592TIP3    H131971   5.483   4.643  18.338  0.3625  1.2430  1.1372
 2592TIP3    H231972   5.630   4.648  18.376  0.7756 -0.1852 -0.1662
 2593TIP3   OH231973   1.489   2.670  18.737  0.4583 -0.0190  0.0913
 2593TIP3    H131974   1.458   2.640  18.823 -0.2080  2.5607  0.8277
 2593TIP3    H231975   1.424   2.637  18.675  1.2300 -2.3779  0.4334
 2594TIP3   OH231976   3.210   6.376  18.838 -0.0346  0.4414 -0.2066
 2594TIP3    H131977   3.252   6.417  18.913 -0.9644  1.8724 -0.4328
 2594TIP3    H231978   3.244   6.424  18.762  0.4541 -0.6058 -0.6763
 2595TIP3   OH231979   6.587   1.793  19.301  0.2976 -0.0916  0.2921
 2595TIP3    H131980   6.602   1.700  19.316 -1.0163 -0.3467  0.0481
 2595TIP3    H231981   6.660   1.836  19.347  1.4908 -1.2579 -0.4419
 2596TIP3   OH231982   7.320   0.425  18.612  0.0560  0.8880  0.1162
 2596TIP3    H131983   7.394   0.377  18.648 -0.2229 -1.1631 -1.8242
 2596TIP3    H231984   7.339   0.517  18.632  2.4321  0.3093  0.8230
 2597TIP3   OH231985   7.073   7.391  18.709 -0.1524  0.2877 -0.1335
 2597TIP3    H131986   7.110   7.306  18.685  2.2122  0.8843  1.1245
 2597TIP3    H231987   7.082   7.396  18.804  1.6057  2.6769 -0.3341
 2598TIP3   OH231988   4.855   0.917  17.650 -0.4593 -0.1148 -0.3570
 2598TIP3    H131989   4.919   0.975  17.691  0.7285 -0.0492 -2.2013
 2598TIP3    H231990   4.906   0.841  17.622 -1.4697 -0.7536 -0.5048
 2599TIP3   OH231991   0.088   1.033  17.858  0.1006 -0.2041 -0.1169
 2599TIP3    H131992   0.082   0.975  17.933  1.5598  2.0040  1.8869
 2599TIP3    H231993   0.004   1.080  17.857 -0.6652 -1.5427 -1.0941
 2600TIP3   OH231994   2.928   6.951  18.473 -0.0821  0.1852 -0.0953
 2600TIP3    H131995   2.887   7.013  18.532  2.1946  1.3876  0.3462
 2600TIP3    H231996   2.996   7.002  18.428  1.9120 -1.9439  0.2939
 2601TIP3   OH231997   0.211   5.989  18.799 -0.1676 -0.0828  0.2766
 2601TIP3    H131998   0.186   5.970  18.889  1.1613  2.4611  1.2727
 2601TIP3    H231999   0.306   6.000  18.803 -0.2330  1.3232 -1.1666
 2602TIP3   OH232000   3.829   0.740  18.989 -0.2947 -0.1336 -0.2387
 2602TIP3    H132001   3.880   0.776  18.916 -0.3591  0.5398  0.0339
 2602TIP3    H232002   3.748   0.792  18.988 -0.9826 -1.1845 -0.6639
 2603TIP3   OH232003   0.842   1.541  19.146  0.7175 -0.2398  0.2196
 2603TIP3    H132004   0.772   1.605  19.151  2.3953  1.7715 -0.4361
 2603TIP3    H232005   0.864   1.521  19.237  0.8886  0.9881  0.4595
 2604TIP3   OH232006   6.049   3.703  18.962 -0.5105  0.1439 -0.1531
 2604TIP3    H132007   6.088   3.788  18.941  0.2512  0.6007  2.7179
 2604TIP3    H232008   5.961   3.708  18.926 -0.0947  1.6773 -1.0709
 2605TIP3   OH232009   5.437   3.795  17.988 -0.6998  0.4402  0.2469
 2605TIP3    H132010   5.348   3.768  17.964 -1.1171  1.7912  0.1768
 2605TIP3    H232011   5.424   3.862  18.056  0.2831  0.3565  0.5315
 2606TIP3   OH232012   3.262   3.182  18.302 -0.1196 -0.4056 -0.5370
 2606TIP3    H132013   3.226   3.099  18.270  0.4145 -0.7010 -0.3933
 2606TIP3    H232014   3.331   3.156  18.363  0.2618  0.1408 -0.7218
 2607TIP3   OH232015   7.011   3.011  18.779 -0.1369 -0.3637 -0.2865
 2607TIP3    H132016   7.000   2.966  18.695  0.3939  0.0466 -0.5881
 2607TIP3    H232017   7.040   2.943  18.839  0.2583 -0.5116 -0.6339
 2608TIP3   OH232018   1.852   4.405  18.458  0.1679  0.0143 -0.4333
 2608TIP3    H132019   1.785   4.386  18.524 -1.0287 -0.3170 -1.6921
 2608TIP3    H232020   1.833   4.345  18.386  2.0029 -0.2749 -0.7271
 2609TIP3   OH232021   2.616   1.332  17.611  0.6968 -0.5541 -0.1322
 2609TIP3    H132022   2.576   1.395  17.671  1.5557  1.6699 -1.7898
 2609TIP3    H232023   2.708   1.330  17.636  0.3820 -2.7562  1.1690
 2610TIP3   OH232024   4.574   2.279  17.732 -0.0124 -0.1444  0.0728
 2610TIP3    H132025   4.562   2.197  17.685 -1.0766 -0.5762  1.0480
 2610TIP3    H232026   4.497   2.331  17.709 -0.0731  0.0042  0.5995
 2611TIP3   OH232027   0.991   5.766  17.693  0.0481 -0.4741  0.4102
 2611TIP3    H132028   0.901   5.765  17.725 -0.0058  0.2527  0.3035
 2611TIP3    H232029   1.038   5.820  17.757  0.3242 -0.5349  0.2596
 2612TIP3   OH232030   0.203   3.022  19.452 -0.2944  0.6896  0.2532
 2612TIP3    H132031   0.287   3.034  19.497  0.1510 -0.1956 -0.3238
 2612TIP3    H232032   0.158   2.954  19.503  0.0518 -0.0406 -0.4021
 2613TIP3   OH232033   0.994   1.485  18.360  0.6965  0.0204 -0.3001
 2613TIP3    H132034   0.926   1.549  18.383 -0.1401 -0.2097 -1.9803
 2613TIP3    H232035   1.076   1.527  18.387 -0.0035  0.8208  0.6716
 2614TIP3   OH232036   6.423   4.977  19.115  0.8334 -0.2903  0.4292
 2614TIP3    H132037   6.382   5.041  19.057 -0.5465 -1.4910  0.0260
 2614TIP3    H232038   6.485   4.930  19.059  0.7586 -0.3110  0.3651
 2615TIP3   OH232039   3.440   5.461  19.210 -0.2663  0.2006 -0.0829
 2615TIP3    H132040   3.479   5.502  19.287  0.6409 -1.7889  0.5665
 2615TIP3    H232041   3.437   5.531  19.145  1.7980  1.1430  0.7625
 2616TIP3   OH232042   7.530   2.528  18.079  0.2699  0.1038 -0.0780
 2616TIP3    H132043   7.436   2.520  18.094  0.2069 -1.6372 -1.2265
 2616TIP3    H232044   7.560   2.586  18.150 -0.9690 -2.6818  2.9771
 2617TIP3   OH232045   4.228   4.668  18.026  0.5096  0.0667 -0.3284
 2617TIP3    H132046   4.178   4.648  18.106 -0.6309 -0.4844 -1.1510
 2617TIP3    H232047   4.296   4.729  18.055  0.8260 -0.9984  1.2702
 2618TIP3   OH232048   0.583   6.851  18.655  0.4818  0.5274 -0.0339
 2618TIP3    H132049   0.675   6.851  18.680  0.6342 -1.8152 -0.3809
 2618TIP3    H232050   0.583   6.877  18.563  0.4590  3.2869  0.6422
 2619TIP3   OH232051   2.191   6.139  18.308 -0.1013  0.1026 -0.1404
 2619TIP3    H132052   2.233   6.176  18.230  0.9098  0.0408  0.3652
 2619TIP3    H232053   2.257   6.082  18.346 -0.4202  0.4885  1.0262
 2620TIP3   OH232054   6.931   7.150  19.073  0.4769  0.0280  0.2919
 2620TIP3    H132055   6.892   7.063  19.081 -0.2319 -0.1917 -3.5104
 2620TIP3    H232056   6.856   7.210  19.072  0.9254  0.6816  2.2825
 2621TIP3   OH232057   6.547   7.463  18.585 -0.7985 -0.1809 -0.0455
 2621TIP3    H132058   6.496   7.513  18.649 -0.5710 -0.9770  0.7806
 2621TIP3    H232059   6.558   7.377  18.626  1.3001 -0.0013 -0.1604
 2622TIP3   OH232060   3.352   4.445  16.771 -0.2519  0.1078  0.1514
 2622TIP3    H132061   3.381   4.359  16.801 -0.1777 -0.4059 -1.2982
 2622TIP3    H232062   3.427   4.502  16.784  0.5999 -0.6401 -1.2037
 2623TIP3   OH232063   5.071   1.905  17.400  0.5139 -0.3235  0.1302
 2623TIP3    H132064   4.985   1.928  17.435  0.4538  1.1611 -0.8611
 2623TIP3    H232065   5.059   1.821  17.357 -0.4221 -0.1947  0.1283
 2624TIP3   OH232066   2.653   5.229  17.545  0.2748 -0.3011 -0.6394
 2624TIP3    H132067   2.742   5.264  17.539  0.3007 -0.3319 -0.4359
 2624TIP3    H232068   2.601   5.286  17.489  0.4484 -0.3663 -0.8707
 2625TIP3   OH232069   0.290   5.510  17.078 -0.2715  0.6380  0.1049
 2625TIP3    H132070   0.288   5.430  17.131  0.6519  0.2058 -0.4949
 2625TIP3    H232071   0.198   5.537  17.074 -0.3992  0.5563  1.7109
 2626TIP3   OH232072   0.684   0.889  18.422  0.4408 -0.7980  0.1381
 2626TIP3    H132073   0.610   0.936  18.461  0.0418 -1.7670  0.5621
 2626TIP3    H232074   0.669   0.896  18.328 -0.2895 -1.1405  0.2217
 2627TIP3   OH232075   1.362   4.082  18.675  0.1224  0.0223 -0.2938
 2627TIP3    H132076   1.291   4.146  18.671  2.5596  2.9899  0.1257
 2627TIP3    H232077   1.381   4.074  18.768  0.3622 -0.7330 -0.4022
 2628TIP3   OH232078   1.754   4.809  17.489 -0.1586 -0.1013  0.1528
 2628TIP3    H132079   1.749   4.893  17.534 -1.4489 -1.1189  2.0898
 2628TIP3    H232080   1.730   4.828  17.398  0.4658  1.7315  0.3368
 2629TIP3   OH232081   5.676   5.206  17.199 -0.0147  0.4877 -0.1726
 2629TIP3    H132082   5.713   5.122  17.174 -0.0637  0.0959  1.0008
 2629TIP3    H232083   5.735   5.239  17.268 -1.3992  0.1856  1.2208
 2630TIP3   OH232084   5.984   2.660  18.390 -0.3459 -0.7397 -0.1645
 2630TIP3    H132085   6.060   2.703  18.351 -0.6107  0.0326  0.1421
 2630TIP3    H232086   5.922   2.650  18.317  0.2709 -1.9031 -0.5406
 2631TIP3   OH232087   0.077   7.671  19.402  0.2200  0.1408 -0.1637
 2631TIP3    H132088   0.162   7.712  19.419  0.3495 -0.2905  0.2618
 2631TIP3    H232089   0.018   7.743  19.384  0.3931  0.5223  0.7792
 2632TIP3   OH232090   0.817   5.794  18.433  0.2573  0.1826 -0.2728
 2632TIP3    H132091   0.900   5.813  18.388  0.9141 -1.1661  0.3059
 2632TIP3    H232092   0.801   5.702  18.415  1.3781 -0.8920  3.4759
 2633TIP3   OH232093   2.590   5.120  19.066 -0.3809 -0.7675 -0.0689
 2633TIP3    H132094   2.532   5.179  19.115 -1.8155  0.8559 -3.3942
 2633TIP3    H232095   2.670   5.171  19.051 -0.2082 -1.0036  0.0498
 2634TIP3   OH232096   4.441   2.167  17.461  0.1549 -0.8953  0.2883
 2634TIP3    H132097   4.536   2.181  17.466  0.0155 -0.2289  1.4781
 2634TIP3    H232098   4.431   2.094  17.401  1.4567 -1.3275  0.5584
 2635TIP3   OH232099   6.044   7.140  16.570  0.6247  0.1903  0.8227
 2635TIP3    H132100   5.952   7.132  16.597 -0.0358 -0.2744 -1.3797
 2635TIP3    H232101   6.061   7.060  16.520  1.4854  1.3477 -0.8155
 2636TIP3   OH232102   6.308   2.517  18.214 -0.2225  0.2701  0.1582
 2636TIP3    H132103   6.242   2.545  18.278 -0.9046 -0.3106 -0.2861
 2636TIP3    H232104   6.258   2.483  18.140  0.5408  1.6484 -1.0418
 2637TIP3   OH232105   1.680   0.715  17.972 -0.9780 -0.7786  0.1742
 2637TIP3    H132106   1.688   0.746  17.881  2.8141 -3.8054 -0.8479
 2637TIP3    H232107   1.748   0.763  18.019 -2.1142 -0.1126  1.1870
 2638TIP3   OH232108   7.450   0.915  18.665 -0.1534 -0.9336 -0.2639
 2638TIP3    H132109   7.434   1.008  18.683  0.4241 -0.7333 -0.7339
 2638TIP3    H232110   7.545   0.907  18.663 -0.1771 -1.7956  1.0299
 2639TIP3   OH232111   1.917   1.836  16.890 -0.2931 -0.1073  0.2983
 2639TIP3    H132112   1.880   1.780  16.958 -4.2585  2.4781  0.6193
 2639TIP3    H232113   1.880   1.803  16.808 -0.2527  0.2668  0.1253
 2640TIP3   OH232114   2.093   6.482  18.018  0.0242 -0.4938 -0.1765
 2640TIP3    H132115   2.069   6.573  18.031 -0.1895 -0.5810  0.0538
 2640TIP3    H232116   2.157   6.483  17.946 -1.1451 -0.3194 -1.2493
 2641TIP3   OH232117   4.944   6.222  18.785 -0.1586 -0.5656 -0.4294
 2641TIP3    H132118   4.853   6.191  18.776 -0.1649 -0.5368 -0.4642
 2641TIP3    H232119   4.995   6.162  18.730 -0.0759 -0.9648  0.0729
 2642TIP3   OH232120   5.405   5.661  18.173  0.4472  0.4437  0.1731
 2642TIP3    H132121   5.350   5.586  18.195  1.9171 -0.6912  0.1480
 2642TIP3    H232122   5.434   5.645  18.083 -0.3541  1.7844 -0.3555
 2643TIP3   OH232123   7.190   4.441  16.384 -0.5336  0.1922  0.2067
 2643TIP3    H132124   7.145   4.377  16.330 -0.6440 -0.4431  1.0246
 2643TIP3    H232125   7.159   4.424  16.473 -0.8537  1.6356  0.4018
 2644TIP3   OH232126   0.205   6.016  17.459 -0.7014  0.2431  0.2248
 2644TIP3    H132127   0.238   6.105  17.472  4.9745 -1.7219  2.1665
 2644TIP3    H232128   0.145   6.002  17.533  2.0452  1.1248  2.8144
 2645TIP3   OH232129   4.851   3.675  17.554  0.0862  0.5473 -0.1658
 2645TIP3    H132130   4.914   3.711  17.491 -2.3092  0.5456 -2.7580
 2645TIP3    H232131   4.794   3.749  17.576  0.6899  0.4619  1.8402
 2646TIP3   OH232132   6.761   2.912  18.606  0.1934  0.2051  0.3113
 2646TIP3    H132133   6.745   2.818  18.607 -0.2501  0.2194 -1.6402
 2646TIP3    H232134   6.847   2.921  18.565 -0.2502  0.6890 -0.5296
 2647TIP3   OH232135   6.072   4.267  18.952  0.1658 -0.1355 -0.0536
 2647TIP3    H132136   6.104   4.357  18.952 -1.0980  0.3427 -0.0795
 2647TIP3    H232137   5.977   4.276  18.959  0.1274 -1.5224  1.8350
 2648TIP3   OH232138   0.836   0.687  17.489  0.4328  0.4093 -0.5697
 2648TIP3    H132139   0.805   0.601  17.461  1.1146 -0.6643  1.7019
 2648TIP3    H232140   0.930   0.676  17.502  0.0475  0.2758  3.3249
 2649TIP3   OH232141   0.340   4.286  17.462 -0.5357  0.4243  0.5013
 2649TIP3    H132142   0.261   4.249  17.502 -0.5513  0.8442  0.8716
 2649TIP3    H232143   0.349   4.240  17.379 -0.4410 -0.5537  1.0423
 2650TIP3   OH232144   6.527   4.848  18.880 -0.2482 -0.0776  0.1990
 2650TIP3    H132145   6.470   4.912  18.838 -0.9620 -0.2903  0.8213
 2650TIP3    H232146   6.512   4.767  18.832  1.3206  0.3846 -1.1723
 2651TIP3   OH232147   1.879   1.431  19.320  0.3081  0.3562  0.2861
 2651TIP3    H132148   1.796   1.403  19.358 -0.3495 -0.4852 -1.6943
 2651TIP3    H232149   1.856   1.504  19.263  0.6931 -0.7228 -1.2950
 2652TIP3   OH232150   6.205   0.066  18.467  0.2212 -0.0650  0.4662
 2652TIP3    H132151   6.238  -0.006  18.412  0.2384  0.2137  0.1048
 2652TIP3    H232152   6.261   0.140  18.445 -3.0386  1.6671 -3.2949
 2653TIP3   OH232153   6.511   1.341  19.302  0.0558  0.3839 -0.0798
 2653TIP3    H132154   6.563   1.317  19.225  0.5399  1.6037 -0.1702
 2653TIP3    H232155   6.502   1.260  19.352  0.6026 -0.2110 -0.9245
 2654TIP3   OH232156   5.264   0.192  17.528 -0.0628  0.2615  0.0071
 2654TIP3    H132157   5.280   0.275  17.483 -0.9706 -0.5459 -1.8821
 2654TIP3    H232158   5.241   0.131  17.459  3.6061 -2.4583  0.9067
 2655TIP3   OH232159   6.983   6.393  18.883 -0.1599  0.0340  0.0153
 2655TIP3    H132160   6.996   6.399  18.788  0.2466  0.6519  0.1037
 2655TIP3    H232161   6.899   6.437  18.898 -0.0187  0.3119 -0.0095
 2656TIP3   OH232162   4.517   5.467  17.870  0.4068 -0.0928  0.3247
 2656TIP3    H132163   4.595   5.503  17.828 -0.4827  0.7825 -0.6259
 2656TIP3    H232164   4.465   5.544  17.894 -1.2811 -0.6557 -1.2591
 2657TIP3   OH232165   3.670   7.444  17.545 -0.1017 -0.0271 -0.3117
 2657TIP3    H132166   3.575   7.448  17.532 -0.1116  0.6227 -0.0637
 2657TIP3    H232167   3.705   7.508  17.484 -0.0617  2.1273  1.8431
 2658TIP3   OH232168   0.948   2.843  17.399  0.1567 -0.0554  0.0503
 2658TIP3    H132169   0.934   2.937  17.386 -0.2506  0.0166  0.9201
 2658TIP3    H232170   1.027   2.823  17.349  1.0558  1.0403  0.9689
 2659TIP3   OH232171   4.444   3.256  18.151  0.1015 -0.1577  0.4221
 2659TIP3    H132172   4.379   3.316  18.114 -1.8302 -0.7449  2.6505
 2659TIP3    H232173   4.527   3.284  18.112 -0.9282  2.9199  0.1610
 2660TIP3   OH232174   4.046   7.222  17.025 -0.0685  0.0711 -0.4900
 2660TIP3    H132175   3.986   7.278  16.976  0.3834 -0.0246 -1.1644
 2660TIP3    H232176   4.042   7.137  16.980  0.2288 -0.0652 -0.2619
 2661TIP3   OH232177   0.424   4.721  18.949  0.3406  0.5889 -1.1566
 2661TIP3    H132178   0.334   4.692  18.929  0.2881  0.8463 -1.2876
 2661TIP3    H232179   0.457   4.756  18.867  0.8848 -0.3368 -1.3435
 2662TIP3   OH232180   5.179   6.111  16.361 -0.4218  0.0042  0.0219
 2662TIP3    H132181   5.258   6.155  16.392 -0.5369  0.7573 -0.7513
 2662TIP3    H232182   5.201   6.018  16.366 -0.2467  0.1063  1.8436
 2663TIP3   OH232183   3.944   5.766  19.488  0.1551 -0.4281  0.1397
 2663TIP3    H132184   3.942   5.673  19.508 -0.7774 -0.5565 -0.4350
 2663TIP3    H232185   4.031   5.795  19.513  0.5236 -1.4972  0.1440
 2664TIP3   OH232186   6.372   4.117  17.443  0.1650  0.0642  0.3521
 2664TIP3    H132187   6.309   4.147  17.377  0.1906 -0.0964  0.2524
 2664TIP3    H232188   6.453   4.164  17.423  0.1289  0.1307  0.3647
 2665TIP3   OH232189   6.763   0.456  17.131  0.1344 -0.0831  0.2006
 2665TIP3    H132190   6.718   0.535  17.102 -0.6561 -0.5987 -0.0026
 2665TIP3    H232191   6.717   0.384  17.087  1.3106 -0.6169 -0.2138
 2666TIP3   OH232192   7.022   2.059  16.588  0.3485  0.1444  0.2550
 2666TIP3    H132193   6.964   2.101  16.651  0.3508  1.6320 -0.6925
 2666TIP3    H232194   6.965   2.030  16.518  0.5879  0.5200 -0.1027
 2667TIP3   OH232195   4.576   3.692  18.054  0.0197  0.1291  0.0570
 2667TIP3    H132196   4.624   3.655  18.128 -2.8289 -0.0213  2.0076
 2667TIP3    H232197   4.632   3.762  18.021  1.8984 -0.5516  1.6062
 2668TIP3   OH232198   1.318   5.201  18.287  0.2796 -0.2936 -0.3938
 2668TIP3    H132199   1.264   5.238  18.357  1.6453  1.1739 -0.0637
 2668TIP3    H232200   1.264   5.207  18.209 -0.4208  0.1841  0.1163
 2669TIP3   OH232201   1.825   0.302  18.764 -0.6271  0.2194 -0.6101
 2669TIP3    H132202   1.847   0.224  18.816 -1.9691  1.3613  1.8544
 2669TIP3    H232203   1.910   0.343  18.747 -0.1284  0.2749  1.6085
 2670TIP3   OH232204   0.585   3.704  19.669 -0.2845 -0.0367  0.3002
 2670TIP3    H132205   0.630   3.620  19.666 -0.2787 -0.0884  1.4304
 2670TIP3    H232206   0.499   3.684  19.706 -0.3226  0.4362  0.4731
 2671TIP3   OH232207   0.231   0.556  18.225 -0.6646 -0.0678 -0.5140
 2671TIP3    H132208   0.219   0.481  18.283  2.9734 -1.0579 -0.8348
 2671TIP3    H232209   0.235   0.517  18.137 -0.1353  0.6854 -0.8291
 2672TIP3   OH232210   1.339   3.963  19.329 -0.0036 -0.3631  0.3342
 2672TIP3    H132211   1.431   3.947  19.309 -0.1841 -2.6762  1.0485
 2672TIP3    H232212   1.340   4.005  19.415  0.3912  1.1528 -0.3654
 2673TIP3   OH232213   1.108   5.696  18.883 -0.0599  0.3902  0.5135
 2673TIP3    H132214   1.159   5.662  18.956 -0.7326  0.4743  1.0368
 2673TIP3    H232215   1.023   5.718  18.921 -0.5558  0.0876 -0.3661
 2674TIP3   OH232216   7.085   4.811  19.112 -0.0751  0.0270  0.1397
 2674TIP3    H132217   7.004   4.824  19.064  0.4197 -0.0281 -0.7386
 2674TIP3    H232218   7.129   4.739  19.066 -0.1193 -0.8255  1.3930
 2675TIP3   OH232219   0.764   5.974  19.372 -0.1762  0.3507 -0.1065
 2675TIP3    H132220   0.705   5.899  19.366 -0.8325  0.9240 -1.0943
 2675TIP3    H232221   0.852   5.935  19.369 -0.5029 -0.4197  0.0144
 2676TIP3   OH232222   6.442   2.103  18.004 -0.1858  0.2226 -0.4956
 2676TIP3    H132223   6.425   2.113  18.098  2.8664 -2.0794  0.4505
 2676TIP3    H232224   6.490   2.181  17.979  0.8655 -0.1079  0.4331
 2677TIP3   OH232225   1.837   7.639  18.321  0.0687 -0.4625 -0.0591
 2677TIP3    H132226   1.833   7.682  18.407  2.8131 -0.6337  0.2542
 2677TIP3    H232227   1.782   7.694  18.265 -0.4536  0.6230  1.4392
 2678TIP3   OH232228   6.880   7.031  17.735  0.3407 -0.2064  0.0738
 2678TIP3    H132229   6.788   7.035  17.710 -0.4304  0.9619  2.7625
 2678TIP3    H232230   6.886   6.953  17.791  1.3132 -0.9708 -1.0315
 2679TIP3   OH232231   1.011   5.738  17.175 -0.2365 -0.3070  0.3504
 2679TIP3    H132232   1.020   5.819  17.126 -1.1872 -0.3275  0.1219
 2679TIP3    H232233   0.961   5.762  17.252  0.2176 -0.5133  0.7119
 2680TIP3   OH232234   3.410   2.336  18.955  0.4161 -0.1179  0.6408
 2680TIP3    H132235   3.360   2.386  18.892  2.2879 -0.1021 -0.9139
 2680TIP3    H232236   3.372   2.248  18.952  0.8042 -0.2582 -0.9369
 2681TIP3   OH232237   0.179   2.818  18.719 -0.7303 -0.5222 -0.0706
 2681TIP3    H132238   0.166   2.896  18.772 -2.5332 -0.2714 -0.7963
 2681TIP3    H232239   0.252   2.772  18.760 -0.0411  1.2205  0.7404
 2682TIP3   OH232240   4.296   4.147  18.347  0.6453 -0.2786  0.3921
 2682TIP3    H132241   4.243   4.077  18.386 -0.5292  0.6999  0.6174
 2682TIP3    H232242   4.259   4.159  18.259  0.7154  0.1688  0.4202
 2683TIP3   OH232243   2.785   7.475  17.237 -0.0459  0.2654 -0.3526
 2683TIP3    H132244   2.820   7.513  17.157  0.9915 -0.8810 -0.4771
 2683TIP3    H232245   2.707   7.427  17.209  1.3349 -1.6965 -1.0619
 2684TIP3   OH232246   3.570   2.266  17.872  0.4434 -0.1779  0.0397
 2684TIP3    H132247   3.552   2.204  17.801  1.8167 -0.2747 -0.2658
 2684TIP3    H232248   3.531   2.226  17.949  1.5471 -1.6093 -0.0957
 2685TIP3   OH232249   6.387   1.200  19.021 -0.0855  0.4608  0.5738
 2685TIP3    H132250   6.326   1.165  18.956 -0.0791  0.2666  0.6715
 2685TIP3    H232251   6.388   1.135  19.091  0.4800  0.2997  0.4219
 2686TIP3   OH232252   4.366   4.511  17.563  0.0206  0.6640 -0.1455
 2686TIP3    H132253   4.333   4.422  17.558  1.7809 -0.1646  1.5072
 2686TIP3    H232254   4.342   4.551  17.480 -0.3490 -1.5100 -1.1492
 2687TIP3   OH232255   4.607   6.867  17.668  0.0565 -0.3684 -0.4429
 2687TIP3    H132256   4.576   6.794  17.721  0.2309 -0.9851 -1.1691
 2687TIP3    H232257   4.657   6.825  17.597 -0.5091  0.4084 -1.3200
 2688TIP3   OH232258   5.205   0.250  17.968  0.0227 -0.0921  0.0485
 2688TIP3    H132259   5.218   0.195  18.046  0.6786 -0.1646 -0.1135
 2688TIP3    H232260   5.202   0.339  18.002  2.3665  0.0737 -0.0305
 2689TIP3   OH232261   5.405   1.840  18.763 -0.0614 -0.4496  0.4878
 2689TIP3    H132262   5.413   1.759  18.813 -0.9513  0.3533  2.0286
 2689TIP3    H232263   5.318   1.874  18.786 -0.2636  0.2773 -1.1705
 2690TIP3   OH232264   7.453   4.379  17.400 -0.3164 -0.1397 -0.1805
 2690TIP3    H132265   7.538   4.380  17.443 -0.1268 -0.5065 -0.5391
 2690TIP3    H232266   7.422   4.289  17.409 -1.1920  0.2564  0.9380
 2691TIP3   OH232267   7.096   3.928  18.272  0.2977  0.1250  0.1581
 2691TIP3    H132268   7.182   3.930  18.229  0.1847 -0.4293 -0.1117
 2691TIP3    H232269   7.109   3.976  18.354  0.2783  1.9778 -0.8907
 2692TIP3   OH232270   4.176   5.373  19.244  0.0369  0.2214  0.2351
 2692TIP3    H132271   4.202   5.416  19.163  1.7768  0.0102  0.6385
 2692TIP3    H232272   4.216   5.286  19.239  1.6487  0.7748  2.0113
 2693TIP3   OH232273   5.099   5.688  18.243  0.3597 -0.1943 -0.1201
 2693TIP3    H132274   5.151   5.626  18.293 -0.1150 -0.7921 -0.3522
 2693TIP3    H232275   5.008   5.662  18.260  0.0187  1.8686  1.6712
 2694TIP3   OH232276   3.172   6.890  18.964  0.6515 -0.4510  0.4328
 2694TIP3    H132277   3.155   6.977  18.929  1.1821  0.2656  1.8730
 2694TIP3    H232278   3.085   6.857  18.988  0.6744  1.3709  3.5936
 2695TIP3   OH232279   5.492   4.785  19.831  0.6286 -0.3633 -0.1582
 2695TIP3    H132280   5.489   4.711  19.892  0.7691 -0.8379 -0.7054
 2695TIP3    H232281   5.569   4.766  19.776 -0.9095 -1.2855 -2.1090
 2696TIP3   OH232282   0.807   0.530  17.880 -0.5208  0.5190 -0.3561
 2696TIP3    H132283   0.823   0.615  17.921 -0.5640 -0.3549  1.5715
 2696TIP3    H232284   0.895   0.494  17.865 -0.4902 -0.3683  1.6954
 2697TIP3   OH232285   4.387   2.460  17.677 -0.3756 -0.1993 -0.5076
 2697TIP3    H132286   4.391   2.526  17.607  0.4906 -0.2661 -0.5400
 2697TIP3    H232287   4.326   2.497  17.741 -0.1883  0.4660 -0.6981
 2698TIP3   OH232288   2.692   6.781  19.394 -0.4110 -0.2030 -0.1413
 2698TIP3    H132289   2.621   6.827  19.437 -0.4673  1.2171 -1.6676
 2698TIP3    H232290   2.649   6.720  19.334 -0.3283 -0.7933  0.3894
 2699TIP3   OH232291   4.610   0.784  17.620  0.3811 -0.2059 -0.4698
 2699TIP3    H132292   4.575   0.821  17.539  1.0256 -0.4162 -0.8494
 2699TIP3    H232293   4.702   0.813  17.622  0.4133 -0.3280  0.1096
 2700TIP3   OH232294   1.820   4.237  17.357  0.7486 -0.0619 -0.0044
 2700TIP3    H132295   1.794   4.212  17.445  2.0908 -1.5670  0.0038
 2700TIP3    H232296   1.761   4.187  17.299  0.4875  0.2164  0.0138
 2701TIP3   OH232297   7.109   4.249  17.321  0.8099  0.5423  0.0261
 2701TIP3    H132298   7.146   4.197  17.392  1.6453  0.5337 -0.4044
 2701TIP3    H232299   7.014   4.239  17.331  0.9398 -0.3810  0.4519
 2702TIP3   OH232300   0.619   5.986  17.732  0.1455 -0.5865 -0.4861
 2702TIP3    H132301   0.527   5.985  17.759 -0.6328 -0.6023 -2.9291
 2702TIP3    H232302   0.638   6.079  17.717  0.7648 -0.5125  0.6770
 2703TIP3   OH232303   0.651   4.895  18.108 -0.0800 -0.2400 -0.5494
 2703TIP3    H132304   0.693   4.978  18.131 -0.1739  0.4437 -2.6609
 2703TIP3    H232305   0.608   4.867  18.189 -0.5224  2.0559  0.0996
 2704TIP3   OH232306   6.514   5.821  17.450  0.1808  0.1956  0.1773
 2704TIP3    H132307   6.601   5.858  17.468 -0.1355  0.0760  2.1810
 2704TIP3    H232308   6.532   5.734  17.416  0.8577  0.7431 -0.9309
 2705TIP3   OH232309   4.497   2.997  18.142 -0.7361  1.0888 -0.0110
 2705TIP3    H132310   4.438   2.977  18.069 -0.5210  2.4195 -0.5852
 2705TIP3    H232311   4.462   3.078  18.180 -1.1391  0.1595  1.7160
 2706TIP3   OH232312   3.441   3.985  18.295  0.0479  0.8149 -0.2682
 2706TIP3    H132313   3.463   4.010  18.206  0.6452 -0.2197 -0.4179
 2706TIP3    H232314   3.402   3.898  18.287 -1.0695  1.2274  0.3562
 2707TIP3   OH232315   5.773   5.788  19.508  0.3132  0.3400 -0.9202
 2707TIP3    H132316   5.707   5.824  19.568 -0.2179 -1.7471 -0.1651
 2707TIP3    H232317   5.721   5.746  19.439  0.8494 -0.6246 -0.7475
 2708TIP3   OH232318   4.536   3.455  17.065 -0.0095 -0.3615 -0.6747
 2708TIP3    H132319   4.497   3.415  16.988 -1.9479  0.9936 -0.4929
 2708TIP3    H232320   4.583   3.384  17.109 -2.7482 -2.3372 -0.6697
 2709TIP3   OH232321   4.294   0.664  18.924  0.2805  0.0235 -0.1239
 2709TIP3    H132322   4.232   0.691  18.992 -1.6618  0.6617 -2.0360
 2709TIP3    H232323   4.339   0.744  18.899  1.5266 -0.3344  0.8194
 2710TIP3   OH232324   0.540   7.382  19.740  0.1440 -0.1244 -0.0310
 2710TIP3    H132325   0.544   7.382  19.644  0.1535  1.2301 -0.0494
 2710TIP3    H232326   0.625   7.415  19.768  0.0247 -0.1976  0.4362
 2711TIP3   OH232327   4.178   7.344  17.607 -0.3608  0.5729  0.1508
 2711TIP3    H132328   4.249   7.394  17.648  0.7091 -1.6353  1.1135
 2711TIP3    H232329   4.203   7.337  17.515  0.0836  0.7785  0.2540
 2712TIP3   OH232330   0.286   0.993  17.547  0.4871 -0.1335 -0.3472
 2712TIP3    H132331   0.193   0.976  17.529  0.4779  1.0107 -1.4738
 2712TIP3    H232332   0.307   1.069  17.494  2.2471 -0.7408 -0.5548
 2713TIP3   OH232333   2.877   1.164  17.430  0.1158  0.3258 -0.1332
 2713TIP3    H132334   2.898   1.155  17.523 -0.6604 -0.1252  0.0109
 2713TIP3    H232335   2.916   1.087  17.389 -0.0325  0.2281 -0.0916
 2714TIP3   OH232336   6.571   5.994  18.128 -0.0440  0.0471 -0.1774
 2714TIP3    H132337   6.563   6.057  18.057 -2.3640  0.2810  0.2356
 2714TIP3    H232338   6.485   5.952  18.134  0.5917 -1.1572  1.3992
 2715TIP3   OH232339   3.277   0.334  19.265 -0.4207  0.1468  0.1526
 2715TIP3    H132340   3.338   0.365  19.197 -0.0997 -1.4835 -0.3464
 2715TIP3    H232341   3.328   0.270  19.315 -0.4128  1.8647  2.4573
 2716TIP3   OH232342   6.653   6.921  18.406 -0.0579 -0.3302  0.3501
 2716TIP3    H132343   6.613   6.861  18.469 -0.5194  1.1708  1.5169
 2716TIP3    H232344   6.579   6.954  18.355 -0.2684  1.6979  1.8640
 2717TIP3   OH232345   1.127   0.271  19.517  0.1140  0.5158 -0.0573
 2717TIP3    H132346   1.201   0.304  19.466  0.5538  1.2798  1.0436
 2717TIP3    H232347   1.163   0.200  19.570 -0.2536 -0.0142 -0.5061
 2718TIP3   OH232348   3.972   4.095  19.397  0.0990 -0.2126 -0.1174
 2718TIP3    H132349   3.941   4.176  19.438  0.8189 -0.0289  0.0789
 2718TIP3    H232350   3.900   4.033  19.408 -0.5743  0.4809 -0.5140
 2719TIP3   OH232351   1.855   1.659  17.095 -0.0669 -0.1705  0.3290
 2719TIP3    H132352   1.768   1.619  17.099 -0.8500  1.3359 -0.7806
 2719TIP3    H232353   1.909   1.595  17.048 -0.8064 -0.7171  0.2129
 2720TIP3   OH232354   5.596   0.190  19.297 -0.2501 -0.4327  0.2305
 2720TIP3    H132355   5.678   0.235  19.275  0.2828 -1.5884 -0.1796
 2720TIP3    H232356   5.528   0.257  19.283  0.4885  0.1562 -0.6772
 2721TIP3   OH232357   0.455   3.305  19.650 -0.2360 -0.0739  0.0510
 2721TIP3    H132358   0.404   3.312  19.569 -0.2046  0.2823  0.0614
 2721TIP3    H232359   0.475   3.211  19.658 -0.4585 -0.1441 -0.2175
 2722TIP3   OH232360   0.971   2.586  17.982  0.4968 -0.0830 -0.5019
 2722TIP3    H132361   1.007   2.539  17.907  0.9805  1.1404 -1.0662
 2722TIP3    H232362   0.886   2.618  17.953  1.3720  1.8053 -1.1654
 2723TIP3   OH232363   5.511   0.683  17.220 -0.0471 -0.1433 -0.2441
 2723TIP3    H132364   5.515   0.637  17.137 -0.6348  0.3325 -0.5434
 2723TIP3    H232365   5.600   0.676  17.256 -0.1564 -1.5694 -0.2293
 2724TIP3   OH232366   3.808   1.560  16.810  0.0055  0.1115  0.5996
 2724TIP3    H132367   3.807   1.625  16.740  1.6358  0.5404  0.9382
 2724TIP3    H232368   3.899   1.529  16.814 -0.8828 -2.9644 -0.2252
 2725TIP3   OH232369   6.724   6.159  17.472 -0.3735  0.8690 -0.0335
 2725TIP3    H132370   6.633   6.189  17.472 -0.1295  1.7481  1.5336
 2725TIP3    H232371   6.740   6.134  17.563  0.6144 -0.3839 -0.5368
 2726TIP3   OH232372   0.784   4.635  18.301  0.2892  0.0894 -0.6066
 2726TIP3    H132373   0.792   4.540  18.292  1.9390  0.2551 -1.2839
 2726TIP3    H232374   0.816   4.670  18.218  1.2618  1.2665  0.2311
 2727TIP3   OH232375   4.670   2.668  17.706  0.0271 -0.0914  0.4927
 2727TIP3    H132376   4.733   2.601  17.681 -1.5717 -1.3636 -0.3087
 2727TIP3    H232377   4.722   2.748  17.716  1.4910 -0.6653 -1.9060
 2728TIP3   OH232378   1.561   1.005  17.800  0.5201  0.2094 -0.5601
 2728TIP3    H132379   1.543   0.946  17.727  1.2653 -0.3663 -0.2835
 2728TIP3    H232380   1.477   1.014  17.845  0.3254 -0.3704 -0.7997
 2729TIP3   OH232381   4.688   5.690  19.215  0.1149 -0.2725  0.2102
 2729TIP3    H132382   4.696   5.783  19.236  0.0438 -0.0068 -0.8565
 2729TIP3    H232383   4.633   5.688  19.136  2.6422 -0.9681 -1.6527
 2730TIP3   OH232384   4.362   3.959  18.961  0.3818 -0.0131 -0.5190
 2730TIP3    H132385   4.360   3.866  18.982  3.2027  0.0645  0.6195
 2730TIP3    H232386   4.300   3.969  18.889 -0.5105 -2.6224 -0.2337
 2731TIP3   OH232387   5.457   5.579  17.920 -0.2873 -0.1415 -0.7985
 2731TIP3    H132388   5.465   5.547  17.830 -1.2883 -0.0794 -0.9214
 2731TIP3    H232389   5.366   5.608  17.927  0.4870  2.4644 -0.6056
 2732TIP3   OH232390   2.225   6.958  18.878 -0.3813 -0.3214  0.2680
 2732TIP3    H132391   2.206   6.886  18.818 -1.0884  0.2620 -0.2195
 2732TIP3    H232392   2.314   6.986  18.855 -0.9519  0.4485 -1.0848
 2733TIP3   OH232393   0.710   3.446  18.608  0.3561  0.1467  0.1688
 2733TIP3    H132394   0.799   3.412  18.605  0.0996 -0.6398  0.9277
 2733TIP3    H232395   0.721   3.541  18.621  1.0743  0.2666 -1.1772
 2734TIP3   OH232396   3.611   6.508  18.310  0.2302 -0.0168 -0.4299
 2734TIP3    H132397   3.653   6.423  18.328  0.5924  0.1498 -0.4853
 2734TIP3    H232398   3.518   6.487  18.304  0.0148 -0.0598  2.0054
 2735TIP3   OH232399   0.061   2.813  17.901  0.0891 -0.0201 -0.1930
 2735TIP3    H132400   0.117   2.884  17.870 -0.2504 -0.2993 -1.5427
 2735TIP3    H232401  -0.010   2.857  17.948 -0.2734  0.5916 -1.2588
 2736TIP3   OH232402   4.117   2.934  19.246  0.5566 -0.3768  0.4485
 2736TIP3    H132403   4.125   3.029  19.239 -0.9360  0.0396  3.0815
 2736TIP3    H232404   4.046   2.912  19.186 -0.2109  0.4348  1.0286
 2737TIP3   OH232405   2.722   0.534  17.818 -0.0882 -0.3145  0.4434
 2737TIP3    H132406   2.802   0.586  17.805 -0.2289 -0.2697 -0.2672
 2737TIP3    H232407   2.660   0.595  17.858 -0.6123  0.4147 -1.3637
 2738TIP3   OH232408   2.922   7.574  17.008 -0.3135 -0.2189  0.1624
 2738TIP3    H132409   2.968   7.640  16.956 -0.3583  0.1451  0.5730
 2738TIP3    H232410   2.992   7.524  17.049 -0.2746  0.0856  0.4772
 2739TIP3   OH232411   4.134   5.959  19.271  0.0204 -0.0942 -0.6091
 2739TIP3    H132412   4.135   5.868  19.240  1.6121 -1.1034  2.0517
 2739TIP3    H232413   4.206   5.963  19.334 -1.0923  2.5806  0.6315
 2740TIP3   OH232414   1.598   1.444  19.351 -0.0571 -0.4552 -0.1416
 2740TIP3    H132415   1.578   1.382  19.281  2.8764 -1.8042  0.1097
 2740TIP3    H232416   1.564   1.402  19.430 -0.2677 -0.5581 -0.2842
 2741TIP3   OH232417   0.760   2.872  18.459 -0.2946  0.5052  0.5731
 2741TIP3    H132418   0.691   2.858  18.523 -1.3937  0.0130 -0.6619
 2741TIP3    H232419   0.730   2.825  18.381  0.0794  2.5341 -0.9006
 2742TIP3   OH232420   5.048   5.171  17.705  0.1415 -0.0161 -0.4213
 2742TIP3    H132421   5.121   5.184  17.645 -0.2205 -0.7261 -1.0299
 2742TIP3    H232422   4.979   5.229  17.671 -0.0059 -0.2917 -0.5964
 2743TIP3   OH232423   1.358   7.114  18.963  0.0157 -0.3250 -0.1985
 2743TIP3    H132424   1.363   7.021  18.940 -1.2471 -0.5926  0.5169
 2743TIP3    H232425   1.266   7.137  18.948  0.3605  0.8727 -0.5552
 2744TIP3   OH232426   2.106   3.368  16.888 -0.7030 -0.3463 -0.0831
 2744TIP3    H132427   2.128   3.276  16.878  2.2377  0.0663  1.4811
 2744TIP3    H232428   2.012   3.368  16.907 -0.7644 -3.0142 -0.0103
 2745TIP3   OH232429   3.935   0.053  18.164  0.4919  0.2531 -0.1367
 2745TIP3    H132430   3.841   0.043  18.152  0.4375  0.3026  0.2188
 2745TIP3    H232431   3.951   0.019  18.253  1.0559 -1.3574 -0.8166
 2746TIP3   OH232432   0.439   4.050  19.266 -0.1252 -0.1400  0.1078
 2746TIP3    H132433   0.430   3.970  19.318 -1.0967 -0.7501 -0.9796
 2746TIP3    H232434   0.352   4.067  19.232  0.2171  1.0101 -0.2479
 2747TIP3   OH232435   1.106   0.677  17.519 -0.5747  0.5396  0.0186
 2747TIP3    H132436   1.106   0.583  17.501 -2.4373  0.3096  0.9996
 2747TIP3    H232437   1.152   0.715  17.444 -0.7323 -1.0506 -0.9391
 2748TIP3   OH232438   2.680   1.749  16.881  0.0453 -0.2086 -0.3064
 2748TIP3    H132439   2.714   1.838  16.868  0.7271 -0.3190  0.6293
 2748TIP3    H232440   2.585   1.760  16.879  0.1148  0.6542  0.4283
 2749TIP3   OH232441   6.699   4.384  18.641  0.3064 -0.2011  0.2376
 2749TIP3    H132442   6.621   4.329  18.641  0.3798 -0.3043  0.1252
 2749TIP3    H232443   6.713   4.407  18.549  0.6124 -0.4719  0.2122
 2750TIP3   OH232444   3.183   7.397  18.681  0.2486 -0.0448  0.2139
 2750TIP3    H132445   3.256   7.459  18.672  2.2739 -2.0676  1.6097
 2750TIP3    H232446   3.145   7.392  18.594  2.6264  0.1561 -0.9122
 2751TIP3   OH232447   2.314   5.287  18.152  0.0914  0.0403 -0.5931
 2751TIP3    H132448   2.334   5.193  18.162  0.9914  0.2198 -0.6358
 2751TIP3    H232449   2.221   5.289  18.128 -0.8140 -0.7090  2.3419
 2752TIP3   OH232450   6.924   5.087  19.534 -0.1185 -0.3807  0.5620
 2752TIP3    H132451   6.925   5.182  19.521 -1.8649 -0.3558  0.3172
 2752TIP3    H232452   6.995   5.070  19.595  1.2745  0.8710 -0.6226
 2753TIP3   OH232453   1.821   7.369  16.782  0.3343 -0.0041  0.3095
 2753TIP3    H132454   1.834   7.279  16.753 -0.5637 -0.0966  0.1655
 2753TIP3    H232455   1.729   7.373  16.809  0.0297  1.1663 -0.8016
 2754TIP3   OH232456   6.622   0.847  17.817  0.2325  0.2106  0.3756
 2754TIP3    H132457   6.663   0.813  17.896  0.1936 -0.5053  0.0922
 2754TIP3    H232458   6.546   0.897  17.848  1.5510  1.9706  0.9489
 2755TIP3   OH232459   4.620   7.149  16.993 -0.2744 -0.0328  0.0360
 2755TIP3    H132460   4.649   7.085  16.928  0.2058  0.9823 -0.7963
 2755TIP3    H232461   4.530   7.171  16.966 -0.1357  0.2625 -0.1958
 2756TIP3   OH232462   4.565   6.113  18.186  0.5534 -0.1462 -0.0447
 2756TIP3    H132463   4.588   6.020  18.185 -0.5679 -0.4820  1.8275
 2756TIP3    H232464   4.470   6.115  18.175 -0.2550  0.3477  4.8755
 2757TIP3   OH232465   6.250   0.255  19.086 -0.0481  0.2132  0.0604
 2757TIP3    H132466   6.296   0.253  19.002 -2.3522  0.3817 -1.2698
 2757TIP3    H232467   6.227   0.347  19.099 -1.7637 -0.1232 -0.3460
 2758TIP3   OH232468   4.727   6.530  19.012  0.3732 -0.0779  0.0926
 2758TIP3    H132469   4.800   6.511  18.953  0.0203  0.0328 -0.3850
 2758TIP3    H232470   4.703   6.444  19.049  1.2575 -0.0079  0.8749
 2759TIP3   OH232471   5.856   6.381  18.429 -0.0366 -0.0547  1.0163
 2759TIP3    H132472   5.943   6.421  18.430 -0.2200  0.3518  1.1201
 2759TIP3    H232473   5.872   6.289  18.449  0.4348 -0.1298  0.3167
 2760TIP3   OH232474   2.551   7.383  17.135  0.2484  0.4722  0.7176
 2760TIP3    H132475   2.539   7.307  17.079  0.5478  0.0510  1.2192
 2760TIP3    H232476   2.472   7.387  17.190  0.7455 -0.1706  1.4995
 2761TIP3   OH232477   0.681   2.660  19.159  0.3124  0.5605 -0.0499
 2761TIP3    H132478   0.615   2.707  19.210 -0.6395 -1.3245  0.5405
 2761TIP3    H232479   0.765   2.694  19.190 -0.3336  1.6396  0.5466
 2762TIP3   OH232480   4.532   0.487  18.241 -0.3496 -0.6814  0.1384
 2762TIP3    H132481   4.554   0.539  18.164 -1.7337 -2.1754 -1.3594
 2762TIP3    H232482   4.526   0.550  18.313 -1.1930  1.1014 -1.4145
 2763TIP3   OH232483   0.855   1.172  17.538 -0.9307 -0.2515 -0.0639
 2763TIP3    H132484   0.886   1.247  17.487 -2.0916  0.1120 -0.2642
 2763TIP3    H232485   0.845   1.103  17.473 -0.5750 -0.3657 -0.0012
 2764TIP3   OH232486   3.774   3.590  17.363  0.4693 -0.6224 -1.2103
 2764TIP3    H132487   3.835   3.564  17.294  0.1225 -1.5230 -1.1899
 2764TIP3    H232488   3.726   3.510  17.384  1.3356 -0.6472  0.8747
 2765TIP3   OH232489   2.936   4.776  18.222  0.0580  0.0476  0.4199
 2765TIP3    H132490   2.919   4.848  18.160 -0.2147  0.5313  1.0475
 2765TIP3    H232491   2.849   4.746  18.248  0.1734 -0.2320  0.4835
 2766TIP3   OH232492   2.421   1.115  19.160  0.1628  0.3821 -0.2108
 2766TIP3    H132493   2.491   1.075  19.109 -0.2860 -0.7061 -0.0004
 2766TIP3    H232494   2.419   1.206  19.132  0.7377  0.0891 -1.2326
 2767TIP3   OH232495   2.134   2.558  19.179  0.2232 -0.3677 -0.0204
 2767TIP3    H132496   2.162   2.554  19.270 -1.2670 -0.3182  0.4730
 2767TIP3    H232497   2.058   2.500  19.175  0.2702 -0.3720 -1.2408
 2768TIP3   OH232498   2.798   5.687  16.932 -0.7659  0.5216 -0.2100
 2768TIP3    H132499   2.804   5.753  16.862  0.2435  1.8104  1.0072
 2768TIP3    H232500   2.727   5.629  16.905 -1.4050  1.8598 -1.5647
 2769TIP3   OH232501   5.593   2.223  19.473 -0.5939 -0.3453  0.2833
 2769TIP3    H132502   5.580   2.157  19.405 -0.6293  2.1179 -2.3101
 2769TIP3    H232503   5.688   2.225  19.487 -0.6065 -1.0067  0.4923
 2770TIP3   OH232504   5.179   2.457  17.578 -0.3735  0.7955 -0.2041
 2770TIP3    H132505   5.232   2.458  17.659 -0.9431  1.8133  0.1669
 2770TIP3    H232506   5.200   2.540  17.535 -0.8099  0.6913 -0.6195
 2771TIP3   OH232507   0.866   1.492  17.907  1.1670  0.6615  0.0763
 2771TIP3    H132508   0.861   1.403  17.871  0.2517 -0.0700  1.8989
 2771TIP3    H232509   0.819   1.546  17.843 -1.9749 -0.8615  0.8893
 2772TIP3   OH232510   4.560   3.411  16.467  0.4171 -0.2824 -0.2357
 2772TIP3    H132511   4.604   3.385  16.386  0.4188 -0.6232 -0.1291
 2772TIP3    H232512   4.509   3.334  16.492  0.6002 -0.2656  0.2074
 2773TIP3   OH232513   1.807   7.101  17.445  0.8656  0.1918 -0.2442
 2773TIP3    H132514   1.802   7.006  17.435  1.0035  0.0520  0.9280
 2773TIP3    H232515   1.785   7.117  17.536  1.7692  1.2101 -0.1851
 2774TIP3   OH232516   3.836   2.194  17.898  0.3161 -0.3204  0.3610
 2774TIP3    H132517   3.751   2.236  17.888  1.2632  1.4298 -1.1902
 2774TIP3    H232518   3.868   2.222  17.984  0.2920  0.9673 -0.0354
 2775TIP3   OH232519   0.418   6.281  18.961  0.3714 -0.1054  0.0252
 2775TIP3    H132520   0.362   6.264  18.885 -0.8097  1.9607  0.3450
 2775TIP3    H232521   0.505   6.293  18.924  0.0346 -0.2828 -0.8619
 2776TIP3   OH232522   1.980   6.485  18.795 -0.1568  0.1432 -0.2687
 2776TIP3    H132523   1.894   6.496  18.753 -0.0737  0.9597 -0.2273
 2776TIP3    H232524   1.964   6.423  18.866 -0.4001 -0.8807 -1.1918
 2777TIP3   OH232525   1.664   0.101  17.640  0.3489 -0.4496 -0.2178
 2777TIP3    H132526   1.734   0.048  17.677  0.7721  0.1856 -0.0897
 2777TIP3    H232527   1.583   0.064  17.676  0.4547 -2.3896 -1.8225
 2778TIP3   OH232528   4.283   6.251  18.139  0.0818  0.3886  0.2403
 2778TIP3    H132529   4.207   6.307  18.152 -0.5166  0.0226 -1.5318
 2778TIP3    H232530   4.247   6.165  18.118  0.9534  0.3903 -1.3952
 2779TIP3   OH232531   2.160   6.325  18.517  0.5918 -0.1618  0.0474
 2779TIP3    H132532   2.126   6.404  18.476 -1.3875 -0.7522  0.4169
 2779TIP3    H232533   2.157   6.259  18.448  1.3781 -0.1294 -0.0201
 2780TIP3   OH232534   1.940   6.050  17.488  0.6263 -0.1911  0.3985
 2780TIP3    H132535   1.877   6.113  17.521  1.6190  0.0178  1.9873
 2780TIP3    H232536   1.969   6.086  17.404 -0.9426 -0.0312 -0.0914
 2781TIP3   OH232537   0.212   7.082  18.360 -0.3032 -0.0547 -0.0422
 2781TIP3    H132538   0.285   7.029  18.394 -0.7251 -0.6010  0.0257
 2781TIP3    H232539   0.239   7.173  18.377 -0.2605 -0.2917  1.2988
 2782TIP3   OH232540   7.489   4.125  18.111 -0.1052  0.2783  0.0341
 2782TIP3    H132541   7.432   4.052  18.086 -0.4417  0.5725 -0.0542
 2782TIP3    H232542   7.563   4.083  18.155  1.0807 -0.4024 -2.4008
 2783TIP3   OH232543   5.411   7.190  18.354 -0.2217 -0.5497  0.2672
 2783TIP3    H132544   5.402   7.097  18.377 -0.8059 -0.1399  1.8044
 2783TIP3    H232545   5.333   7.232  18.391  0.3848  0.6693  0.2232
 2784TIP3   OH232546   4.451   0.907  16.946 -0.1802  0.4587  0.0500
 2784TIP3    H132547   4.383   0.843  16.926  0.8553 -0.7368  0.2107
 2784TIP3    H232548   4.501   0.868  17.018  0.7269  1.2594 -0.1171
 2785TIP3   OH232549   1.011   0.478  17.158 -0.3091  0.0510 -0.1482
 2785TIP3    H132550   1.020   0.466  17.252  2.4183 -0.4929 -0.3771
 2785TIP3    H232551   1.010   0.573  17.146 -3.6858  0.2071  0.5331
 2786TIP3   OH232552   4.985   0.323  18.195  0.4224  0.2389  0.2005
 2786TIP3    H132553   4.973   0.259  18.265 -2.3121  1.5299  1.0458
 2786TIP3    H232554   4.900   0.328  18.152  2.0694 -0.7578 -3.5978
 2787TIP3   OH232555   5.769   7.263  16.783  0.5880 -0.1955 -0.2445
 2787TIP3    H132556   5.818   7.254  16.865 -0.2941 -1.6529  0.1504
 2787TIP3    H232557   5.687   7.217  16.799  0.2323 -0.1561 -1.8271
 2788TIP3   OH232558   6.549   6.897  18.835  0.9782 -0.2309  0.3170
 2788TIP3    H132559   6.588   6.869  18.753 -0.0567  1.6637 -0.9110
 2788TIP3    H232560   6.455   6.898  18.818  0.7639  0.5170  1.4142
 2789TIP3   OH232561   2.151   7.136  17.417  0.2019 -0.4716  0.1097
 2789TIP3    H132562   2.097   7.078  17.470 -0.8139 -0.4512 -0.8629
 2789TIP3    H232563   2.226   7.083  17.392  1.9220  0.1444  3.3505
 2790TIP3   OH232564   4.990   0.221  17.789 -0.0685  0.0787 -0.1500
 2790TIP3    H132565   4.958   0.292  17.734 -0.3235 -1.6348 -2.3749
 2790TIP3    H232566   5.071   0.255  17.828 -0.4187  1.7261 -0.7774
 2791TIP3   OH232567   4.172   0.564  18.112  0.3612 -0.9456 -0.3274
 2791TIP3    H132568   4.186   0.591  18.021  0.0460  1.9448  0.3852
 2791TIP3    H232569   4.098   0.504  18.108  2.3180 -3.4707 -2.2550
 2792TIP3   OH232570   5.092   0.069  18.223  0.0253  0.1234  0.2158
 2792TIP3    H132571   5.180   0.045  18.251 -0.1608  1.0343  1.7482
 2792TIP3    H232572   5.087   0.043  18.132  1.8337 -0.0904  0.1442
 2793TIP3   OH232573   5.602   5.442  18.438  0.4142  0.6509 -0.1429
 2793TIP3    H132574   5.524   5.468  18.488  0.3145  0.6886 -0.3173
 2793TIP3    H232575   5.589   5.349  18.420  0.1596  0.7759 -0.6184
 2794TIP3   OH232576   0.913   1.008  18.526 -0.8704 -0.1115  0.0644
 2794TIP3    H132577   0.985   0.945  18.519 -0.7436  0.1720 -1.8599
 2794TIP3    H232578   0.845   0.971  18.469  0.1642  2.6317 -3.3072
 2795TIP3   OH232579   4.777   1.413  19.104  0.5228 -0.2413  0.3881
 2795TIP3    H132580   4.718   1.396  19.030  0.2080  0.4560  0.4748
 2795TIP3    H232581   4.773   1.334  19.157  0.3610 -0.5501 -0.0824
 2796TIP3   OH232582   5.783   4.712  18.448  0.2160  0.2947 -0.6827
 2796TIP3    H132583   5.786   4.713  18.544 -2.9320  0.0200 -0.5000
 2796TIP3    H232584   5.841   4.639  18.424 -1.8240 -2.1605  1.2942
 2797TIP3   OH232585   2.321   2.837  18.432 -0.1738  0.1446 -0.1524
 2797TIP3    H132586   2.278   2.770  18.487 -1.2759  0.3859 -0.6901
 2797TIP3    H232587   2.408   2.801  18.415 -0.1698 -0.3988  0.9161
 2798TIP3   OH232588   4.002   6.450  17.649  0.3239 -0.3407  0.4693
 2798TIP3    H132589   4.045   6.505  17.715 -0.7271 -1.1875  1.9018
 2798TIP3    H232590   3.941   6.396  17.699 -1.4844 -0.0807 -1.3583
 2799TIP3   OH232591   2.213   3.532  18.391  0.1398 -0.8329  0.7200
 2799TIP3    H132592   2.176   3.545  18.478  0.5435  1.5036  0.6320
 2799TIP3    H232593   2.308   3.541  18.404  0.1506  0.4195 -0.0436
 2800TIP3   OH232594   5.860   4.195  17.090  0.8387 -1.2439 -0.0734
 2800TIP3    H132595   5.890   4.260  17.026  4.2602 -0.4626  2.0490
 2800TIP3    H232596   5.786   4.237  17.133  0.7396 -0.2698 -1.1392
 2801TIP3   OH232597   6.679   7.519  17.106 -0.1268  0.0666  0.5851
 2801TIP3    H132598   6.707   7.471  17.028 -0.6614  0.1507  0.3403
 2801TIP3    H232599   6.587   7.495  17.117  0.1184 -0.4742  1.5808
 2802TIP3   OH232600   4.835   5.890  18.980  0.6420  0.5076 -0.0430
 2802TIP3    H132601   4.823   5.928  19.067  0.4873  0.9371 -0.2460
 2802TIP3    H232602   4.746   5.871  18.950  0.7422 -0.5138  0.2645
 2803TIP3   OH232603   6.004   5.855  19.406 -0.6235  0.0959 -0.3735
 2803TIP3    H132604   6.033   5.787  19.345 -0.3715  0.9940 -1.2804
 2803TIP3    H232605   5.939   5.812  19.461 -0.0213 -1.0436 -0.5180
 2804TIP3   OH232606   6.281   5.900  17.245  0.4119  0.4261  0.4650
 2804TIP3    H132607   6.292   5.981  17.295 -2.0344  0.9340  0.3159
 2804TIP3    H232608   6.233   5.926  17.167 -2.8806 -1.4316  1.6541
 2805TIP3   OH232609   7.409   0.751  19.002 -0.4412 -0.3327 -0.0405
 2805TIP3    H132610   7.331   0.790  19.041 -1.1484 -0.8975 -0.8710
 2805TIP3    H232611   7.385   0.731  18.912 -0.4566 -3.5244  0.5556
 2806TIP3   OH232612   6.235   0.342  17.624  0.0784  0.1303 -0.4009
 2806TIP3    H132613   6.257   0.377  17.538 -1.9205  1.5174 -0.4298
 2806TIP3    H232614   6.302   0.377  17.683  0.5581  0.4601 -1.1340
 2807TIP3   OH232615   3.263   7.554  17.367 -0.3368  0.5172 -0.1879
 2807TIP3    H132616   3.329   7.569  17.435 -0.9351 -0.3312  0.5956
 2807TIP3    H232617   3.313   7.558  17.285  1.5885 -3.9661  0.4599
 2808TIP3   OH232618   7.071   1.718  17.293  0.1766  0.1867  0.5143
 2808TIP3    H132619   7.109   1.675  17.216  0.0522  0.3268  0.3729
 2808TIP3    H232620   6.977   1.699  17.287  0.2684 -0.4752  1.0651
 2809TIP3   OH232621   3.973   5.036  18.355 -0.6020  0.3790 -0.4962
 2809TIP3    H132622   3.955   5.013  18.446 -0.1266  2.4405  0.1642
 2809TIP3    H232623   3.956   5.130  18.350 -0.7233  0.2960 -2.5808
 2810TIP3   OH232624   3.368   1.566  18.848  0.6402  0.3268  0.0101
 2810TIP3    H132625   3.314   1.548  18.925 -2.8578  1.7211 -1.9050
 2810TIP3    H232626   3.350   1.657  18.826  1.9554  0.1308 -2.1644
 2811TIP3   OH232627   3.099   7.528  18.111 -0.1493 -0.1355 -0.1155
 2811TIP3    H132628   3.186   7.489  18.119 -0.1420 -0.1063 -0.0538
 2811TIP3    H232629   3.114   7.615  18.074 -0.0144  0.4640  1.2912
 2812TIP3   OH232630   0.475   5.987  18.818 -0.1338 -0.3467 -0.6492
 2812TIP3    H132631   0.544   5.985  18.752 -0.5723 -0.2504 -1.1137
 2812TIP3    H232632   0.520   6.013  18.898 -0.0571  2.3539 -1.4769
 2813TIP3   OH232633   3.132   3.992  18.193 -0.8231  0.1065  0.5705
 2813TIP3    H132634   3.156   3.901  18.208 -1.8421 -0.2369  0.2195
 2813TIP3    H232635   3.117   4.027  18.281 -0.4126 -0.0516  0.7082
 2814TIP3   OH232636   1.266   1.287  17.509 -0.3942  0.8201  0.4864
 2814TIP3    H132637   1.191   1.256  17.457  0.1649 -0.0065  0.1547
 2814TIP3    H232638   1.321   1.210  17.519  1.0560  1.6944 -0.3911
 2815TIP3   OH232639   2.255   0.068  17.907  0.5788 -0.1315  0.0175
 2815TIP3    H132640   2.336   0.022  17.929  0.0086 -0.7175  1.0377
 2815TIP3    H232641   2.229   0.031  17.823  1.7014  0.5476 -0.6430
 2816TIP3   OH232642   6.607   0.126  19.383 -0.2597 -0.9257  0.0447
 2816TIP3    H132643   6.674   0.063  19.356  0.8783 -0.5638  1.8113
 2816TIP3    H232644   6.623   0.138  19.477 -1.4504  0.8119  0.0682
 2817TIP3   OH232645   7.226   1.743  18.660 -0.3891  0.0746  0.3401
 2817TIP3    H132646   7.205   1.832  18.687 -0.2603 -0.1116  1.0562
 2817TIP3    H232647   7.147   1.693  18.679  0.0226 -0.2416  1.2436
 2818TIP3   OH232648   1.964   1.419  16.921 -0.5548  0.3224 -0.3460
 2818TIP3    H132649   2.030   1.382  16.980  0.4154  0.7322 -1.1336
 2818TIP3    H232650   1.991   1.390  16.834 -0.7241  1.4873 -0.8086
 2819TIP3   OH232651   6.343   4.394  18.767  0.2984 -1.0257 -0.4475
 2819TIP3    H132652   6.329   4.457  18.697 -1.7604 -0.7502  0.1680
 2819TIP3    H232653   6.384   4.445  18.837  0.8822 -0.9500 -0.8299
 2820TIP3   OH232654   3.228   1.968  16.883 -0.1699  0.3204  0.0096
 2820TIP3    H132655   3.254   1.917  16.806 -0.3033  0.3013 -0.0231
 2820TIP3    H232656   3.307   2.015  16.909  0.0587 -0.2191  0.2866
 2821TIP3   OH232657   6.956   1.508  19.099 -0.5906  0.3535 -0.3245
 2821TIP3    H132658   6.964   1.452  19.022  1.1025 -0.0814  0.1464
 2821TIP3    H232659   7.040   1.501  19.144 -0.8776  2.0700  0.5718
 2822TIP3   OH232660   5.014   6.161  19.085 -0.2025  0.0072  0.3767
 2822TIP3    H132661   4.998   6.238  19.031 -1.4630 -0.9032 -0.6026
 2822TIP3    H232662   5.089   6.118  19.044 -1.5650 -1.0389 -1.1216
 2823TIP3   OH232663   2.326   1.342  17.748 -0.1697  0.5240  0.4847
 2823TIP3    H132664   2.264   1.387  17.805 -1.2174  0.1067 -0.3077
 2823TIP3    H232665   2.330   1.395  17.669 -1.1117 -0.5257 -0.3001
 2824TIP3   OH232666   3.531   2.003  17.350 -0.3139  0.4076  0.3311
 2824TIP3    H132667   3.549   2.038  17.263 -0.5633  2.3526  0.9922
 2824TIP3    H232668   3.437   2.016  17.362 -0.1121  1.1338  1.2544
 2825TIP3   OH232669   3.570   6.931  19.009  0.1124 -0.3380  0.0495
 2825TIP3    H132670   3.645   6.990  18.997  1.3362 -1.3641  2.0149
 2825TIP3    H232671   3.498   6.988  19.034  0.7494  0.5258 -0.0524
 2826TIP3   OH232672   3.471  -0.003  17.546  0.1758  0.0516  0.2661
 2826TIP3    H132673   3.427   0.080  17.526  1.0809  0.7627  1.1769
 2826TIP3    H232674   3.564   0.016  17.539  0.3959 -1.0168  0.0418
 2827TIP3   OH232675   7.487   3.484  18.051  0.3632 -0.3184  0.0958
 2827TIP3    H132676   7.402   3.470  18.092 -0.0203  0.7148 -0.3097
 2827TIP3    H232677   7.473   3.559  17.992  1.8512  0.6961  0.9632
 2828TIP3   OH232678   3.388   5.821  19.458  0.3234  0.0244 -0.0677
 2828TIP3    H132679   3.439   5.901  19.472 -0.0310  0.3908 -0.7744
 2828TIP3    H232680   3.443   5.767  19.402  1.0248 -0.7106  1.2901
 2829TIP3   OH232681   4.769   0.421  19.283 -0.1954  0.2305 -0.4498
 2829TIP3    H132682   4.692   0.388  19.239 -0.3506 -0.0747  0.0442
 2829TIP3    H232683   4.784   0.508  19.245 -1.5012  0.8125  0.3045
 2830TIP3   OH232684   3.926   5.211  18.710  0.1669  0.3015  0.0395
 2830TIP3    H132685   3.851   5.254  18.669  0.1084 -0.2783 -0.4848
 2830TIP3    H232686   3.923   5.238  18.802 -0.1798  0.9712 -0.1633
 2831TIP3   OH232687   5.089   4.291  19.163 -0.7174  0.3815  0.1535
 2831TIP3    H132688   5.035   4.321  19.236  0.2753  1.5416  0.4422
 2831TIP3    H232689   5.061   4.344  19.088  0.4892  1.5212  0.4759
 2832TIP3   OH232690   3.658   6.037  18.018 -0.3336 -0.5547  0.3262
 2832TIP3    H132691   3.748   6.005  18.022 -0.1500  0.0508  1.3381
 2832TIP3    H232692   3.608   5.963  17.984  0.6726 -0.5815 -1.2293
 2833TIP3   OH232693   7.365   3.861  18.168  0.7185 -0.3400 -0.2389
 2833TIP3    H132694   7.410   3.833  18.248  0.3158 -0.4535 -0.0501
 2833TIP3    H232695   7.404   3.808  18.098  1.7133  0.3986 -0.2651
 2834TIP3   OH232696   4.763   6.256  17.421 -0.2058  0.6452 -0.3793
 2834TIP3    H132697   4.694   6.193  17.445  2.2450 -1.7259  0.9216
 2834TIP3    H232698   4.801   6.221  17.341  2.2081 -0.5498  1.1784
 2835TIP3   OH232699   6.313   4.544  17.526  0.0476 -0.0627  0.0238
 2835TIP3    H132700   6.367   4.586  17.459  1.0491  0.9018  1.3660
 2835TIP3    H232701   6.329   4.597  17.605 -2.0217 -0.4283  0.7290
 2836TIP3   OH232702   0.639   2.934  18.966 -0.6223  0.2320 -0.4998
 2836TIP3    H132703   0.702   2.863  18.978 -1.3420 -0.6092 -1.4518
 2836TIP3    H232704   0.671   2.982  18.889 -0.2973  0.7710 -0.0342
 2837TIP3   OH232705   1.300   6.795  19.404  0.4130 -0.0402 -0.6164
 2837TIP3    H132706   1.223   6.773  19.352 -1.1712 -2.9936  2.5614
 2837TIP3    H232707   1.276   6.876  19.450  1.2346  1.7122 -3.0513
 2838TIP3   OH232708   7.709   4.090  18.740  0.0355 -0.6898 -0.1247
 2838TIP3    H132709   7.758   4.013  18.770 -0.6564 -1.7401 -1.6202
 2838TIP3    H232710   7.648   4.056  18.675 -1.7728  0.8019  0.7155
 2839TIP3   OH232711   4.728   3.865  18.569 -0.3310 -0.3745  0.7641
 2839TIP3    H132712   4.671   3.934  18.602 -0.9256 -0.4250 -0.1233
 2839TIP3    H232713   4.743   3.887  18.477  0.7647 -0.5780  0.8795
 2840TIP3   OH232714   7.315   5.411  18.894  0.0067 -0.3601  0.1433
 2840TIP3    H132715   7.301   5.479  18.961  0.8762  0.4193 -0.4272
 2840TIP3    H232716   7.364   5.343  18.940 -1.6361 -1.0495  0.9613
 2841TIP3   OH232717   2.394   4.696  18.668  0.2525 -0.5014  0.4565
 2841TIP3    H132718   2.320   4.735  18.621  0.3500 -1.5524 -0.6188
 2841TIP3    H232719   2.370   4.704  18.760 -0.7433  0.0737  0.1700
 2842TIP3   OH232720   0.509   6.375  18.082  0.2543 -0.3945 -0.3884
 2842TIP3    H132721   0.459   6.416  18.012 -0.4686  1.3106  1.0633
 2842TIP3    H232722   0.560   6.307  18.038 -0.0704  0.6928 -2.5728
 2843TIP3   OH232723   3.778   4.305  18.718 -0.5385  0.2568 -0.7981
 2843TIP3    H132724   3.685   4.327  18.719 -0.6009 -0.0165 -0.5285
 2843TIP3    H232725   3.797   4.280  18.809 -0.3008 -0.1006 -0.9474
 2844TIP3   OH232726   6.763   1.652  18.552 -0.3286  0.0907 -0.4563
 2844TIP3    H132727   6.695   1.602  18.597  0.9498 -0.1581  1.3077
 2844TIP3    H232728   6.840   1.596  18.557  0.4535  1.1032 -0.8650
 2845TIP3   OH232729   4.677   1.790  18.519 -0.2326  0.1488 -0.1226
 2845TIP3    H132730   4.597   1.792  18.571  0.7872  0.7713  1.5282
 2845TIP3    H232731   4.648   1.780  18.429 -2.1033 -0.7272  0.5327
 2846TIP3   OH232732   0.267   3.419  19.471  0.5385  0.2588  0.1440
 2846TIP3    H132733   0.252   3.429  19.377 -1.1089  1.2536  0.4850
 2846TIP3    H232734   0.195   3.365  19.502  1.6504 -0.9752  0.7037
 2847TIP3   OH232735   0.439   4.985  19.269  0.1872 -0.3225 -0.3533
 2847TIP3    H132736   0.408   4.896  19.249 -0.2570 -0.0229 -1.0466
 2847TIP3    H232737   0.495   5.007  19.194 -0.3906  0.3029 -0.6069
 2848TIP3   OH232738   2.662   6.428  18.768 -0.6643 -0.2279  0.3309
 2848TIP3    H132739   2.588   6.488  18.773 -0.4736  0.0396  0.0028
 2848TIP3    H232740   2.735   6.476  18.809 -0.4351 -0.1098 -0.2061
 2849TIP3   OH232741   3.992   0.499  18.935  0.1233 -0.0783  0.4999
 2849TIP3    H132742   4.024   0.478  18.848  0.4500  1.4782  0.2179
 2849TIP3    H232743   3.943   0.580  18.924  0.4343  0.3133  1.8231
 2850TIP3   OH232744   3.799   6.679  19.109 -0.3425  0.0687 -0.3246
 2850TIP3    H132745   3.732   6.730  19.064  0.3733  0.1662 -1.3041
 2850TIP3    H232746   3.811   6.601  19.054  0.2936  0.0194 -0.1263
 2851TIP3   OH232747   6.020   3.418  18.899 -0.1390 -0.5417 -0.0527
 2851TIP3    H132748   6.085   3.388  18.836 -0.1028 -0.0948 -0.2253
 2851TIP3    H232749   5.936   3.394  18.860 -0.0957 -0.8596  0.0396
 2852TIP3   OH232750   0.339   4.615  18.135  0.4828 -0.2747  0.6612
 2852TIP3    H132751   0.387   4.678  18.190  0.4270  0.9355 -0.6361
 2852TIP3    H232752   0.301   4.554  18.198  1.2279  0.4900  1.9149
 2853TIP3   OH232753   2.125   6.607  18.444  0.4748  0.0121 -0.1883
 2853TIP3    H132754   2.218   6.622  18.464  0.6047 -1.3593  0.3271
 2853TIP3    H232755   2.082   6.689  18.467  1.1614 -0.2397  2.3088
 2854TIP3   OH232756   5.017   7.692  17.582 -0.3407  0.2156 -0.0727
 2854TIP3    H132757   5.006   7.768  17.639  0.5605  0.7367 -0.5562
 2854TIP3    H232758   5.007   7.727  17.494  0.7645 -0.0792 -0.3293
 2855TIP3   OH232759   5.691   3.048  17.879 -0.3612 -0.0111 -1.0601
 2855TIP3    H132760   5.780   3.069  17.850 -0.0491 -0.7511 -0.6779
 2855TIP3    H232761   5.640   3.126  17.858  0.4540  0.5678 -0.9532
 2856TIP3   OH232762   6.451   3.939  18.979  0.1275  0.1973  0.5864
 2856TIP3    H132763   6.432   4.030  19.004 -0.4557  0.2317  0.0281
 2856TIP3    H232764   6.398   3.924  18.901  0.9302 -0.3351  0.1332
 2857TIP3   OH232765   1.214   0.593  18.823 -0.1958  0.4306  0.5136
 2857TIP3    H132766   1.189   0.678  18.858 -0.5870  1.0293 -1.1249
 2857TIP3    H232767   1.137   0.564  18.773 -0.8142 -1.8029  2.5678
 2858TIP3   OH232768   0.184   3.031  18.917 -0.1030 -0.2405 -0.0110
 2858TIP3    H132769   0.222   3.058  19.000 -0.2240 -2.0619  0.6797
 2858TIP3    H232770   0.255   3.043  18.853  0.8312 -1.1651  0.8132
 2859TIP3   OH232771   5.717   4.958  19.651  0.6377 -0.2140 -0.7278
 2859TIP3    H132772   5.652   4.955  19.581  0.3825  0.6747 -0.5481
 2859TIP3    H232773   5.755   4.870  19.653 -1.3260 -1.0985 -0.1137
 2860TIP3   OH232774   1.399   3.589  19.193 -0.1246 -0.3462  0.0079
 2860TIP3    H132775   1.488   3.616  19.216  0.1875 -0.8849 -0.5254
 2860TIP3    H232776   1.409   3.544  19.108 -1.2930  2.2257 -1.6200
 2861TIP3   OH232777   6.383   6.629  19.159  0.3546 -0.2542  0.9408
 2861TIP3    H132778   6.432   6.567  19.213 -0.0457 -0.7081  0.7813
 2861TIP3    H232779   6.448   6.696  19.135  1.3150 -1.6725 -0.5912
 2862TIP3   OH232780   0.004   2.291  18.261 -0.4803  0.2306  0.3093
 2862TIP3    H132781   0.031   2.230  18.329 -1.5234  0.0531  0.5719
 2862TIP3    H232782   0.050   2.373  18.283  3.0132 -1.0464 -1.4854
 2863TIP3   OH232783   6.819   7.313  18.558 -0.3554  0.1716 -1.4318
 2863TIP3    H132784   6.910   7.337  18.572 -0.6394  2.1060 -2.5750
 2863TIP3    H232785   6.769   7.391  18.583 -1.8851 -1.4225  0.9104
 2864TIP3   OH232786   4.737   7.133  16.569  0.7804  0.3257 -0.0510
 2864TIP3    H132787   4.807   7.163  16.628  0.7605 -1.2612  0.8245
 2864TIP3    H232788   4.688   7.069  16.621  0.0104 -0.1985 -1.3927
 2865TIP3   OH232789   3.305   3.046  18.778 -0.0889  0.3952 -0.0976
 2865TIP3    H132790   3.391   3.021  18.810 -1.2016 -0.2706  2.6858
 2865TIP3    H232791   3.294   3.137  18.803 -0.0614  0.5935 -0.7883
 2866TIP3   OH232792   1.932   2.715  18.872  0.3499  0.1217  0.8770
 2866TIP3    H132793   2.025   2.722  18.889  0.4439  1.3731  0.0134
 2866TIP3    H232794   1.911   2.623  18.886  2.0583 -0.5400 -0.5436
 2867TIP3   OH232795   6.057   5.072  19.422  0.1060 -0.0528  0.2467
 2867TIP3    H132796   6.006   5.122  19.486  1.0624  0.8778  0.3012
 2867TIP3    H232797   6.092   5.138  19.362  0.3324 -0.7842 -0.4391
 2868TIP3   OH232798   5.031   5.350  18.164 -0.3669 -0.4248 -0.0486
 2868TIP3    H132799   5.058   5.317  18.079  0.6797 -0.2436  0.1949
 2868TIP3    H232800   4.953   5.402  18.147  0.0759 -0.0493 -0.9530
 2869TIP3   OH232801   7.602   7.223  18.923 -0.0759 -0.0905 -0.1751
 2869TIP3    H132802   7.672   7.250  18.983  0.6853 -1.2313 -0.5346
 2869TIP3    H232803   7.571   7.140  18.958 -0.0110 -0.4871 -1.0506
 2870TIP3   OH232804   4.319   6.838  18.993 -0.4187  0.2840  0.3623
 2870TIP3    H132805   4.400   6.824  18.944  0.1888 -1.4918  1.7708
 2870TIP3    H232806   4.250   6.830  18.927  0.3801 -2.0008 -0.3099
 2871TIP3   OH232807   2.285   6.629  18.183 -0.0470 -0.1239  0.1363
 2871TIP3    H132808   2.191   6.611  18.174 -0.0933  0.5604 -0.9900
 2871TIP3    H232809   2.293   6.723  18.163  0.9045 -0.2162  0.0320
 2872TIP3   OH232810   6.684   5.196  17.313 -0.6435  0.4872  0.2930
 2872TIP3    H132811   6.645   5.243  17.387 -0.8106  0.8125 -0.0005
 2872TIP3    H232812   6.769   5.166  17.346 -0.1996  1.6544  0.2418
 2873TIP3   OH232813   1.718   2.356  19.416  0.1832 -0.0750  0.4746
 2873TIP3    H132814   1.720   2.265  19.386 -0.5879 -0.4889  1.6064
 2873TIP3    H232815   1.625   2.380  19.416  0.1247 -0.1285  2.5315
 2874TIP3   OH232816   2.033   3.822  19.074  0.1543 -0.1129  0.1339
 2874TIP3    H132817   1.985   3.747  19.110 -0.6820  1.1451  1.7681
 2874TIP3    H232818   1.987   3.843  18.993 -1.0688  0.0314  0.8375
 2875TIP3   OH232819   4.975   3.325  17.746  0.3013  0.6173 -0.1264
 2875TIP3    H132820   4.959   3.233  17.723  0.6516  0.5771 -0.2202
 2875TIP3    H232821   4.892   3.355  17.782  0.2105  0.2328  0.0001
 2876TIP3   OH232822   7.181   0.468  19.345 -0.1286  0.1734 -0.2657
 2876TIP3    H132823   7.260   0.422  19.374 -0.9265 -1.0273  0.0384
 2876TIP3    H232824   7.214   0.546  19.301  1.2027  1.0758  2.1388
 2877TIP3   OH232825   6.517   1.703  17.921 -0.2857  0.1787 -0.5733
 2877TIP3    H132826   6.494   1.659  17.839  1.7797  0.4614 -1.3763
 2877TIP3    H232827   6.584   1.766  17.896 -0.2911  0.9466  1.2061
 2878TIP3   OH232828   0.977   5.279  17.104  0.1189 -0.5474 -0.7139
 2878TIP3    H132829   1.019   5.350  17.152 -0.9019  1.4831 -2.6329
 2878TIP3    H232830   1.048   5.241  17.051  0.9133 -1.7969  1.1504
 2879TIP3   OH232831   0.173   6.697  19.112  0.1157 -0.2788 -0.5324
 2879TIP3    H132832   0.128   6.680  19.029  1.4271 -1.9426 -0.9414
 2879TIP3    H232833   0.102   6.698  19.177 -0.8761  0.6027 -1.5786
 2880TIP3   OH232834   5.037   4.427  18.383 -0.9361 -0.6099 -0.7156
 2880TIP3    H132835   5.005   4.340  18.408 -2.0389 -0.3079 -0.9975
 2880TIP3    H232836   4.967   4.463  18.329 -0.2065  0.2033 -1.1435
 2881TIP3   OH232837   6.718   4.435  17.069  0.1594  0.4751 -0.3379
 2881TIP3    H132838   6.723   4.492  16.992  1.3113  0.0734 -0.5748
 2881TIP3    H232839   6.779   4.364  17.050 -1.0271 -0.6873  0.0955
 2882TIP3   OH232840   4.833   2.891  18.866 -0.1100 -0.1506 -0.4964
 2882TIP3    H132841   4.835   2.946  18.944  2.1399 -1.0411  0.1583
 2882TIP3    H232842   4.881   2.941  18.800  2.1746 -1.3102  0.1775
 2883TIP3   OH232843   6.833   7.455  18.897  0.3335 -0.0819 -0.0045
 2883TIP3    H132844   6.765   7.390  18.883  0.6980 -0.7492  1.1827
 2883TIP3    H232845   6.808   7.529  18.842 -0.9621 -0.5882 -0.1197
 2884TIP3   OH232846   1.334   6.143  17.674 -0.5170  0.1440  0.5260
 2884TIP3    H132847   1.379   6.213  17.721  0.0182 -0.8873  1.6129
 2884TIP3    H232848   1.241   6.160  17.689 -0.3787  0.4222  1.0832
 2885TIP3   OH232849   2.849   2.528  18.400  0.7017 -0.3356 -0.6046
 2885TIP3    H132850   2.887   2.448  18.365  1.0148 -0.2169 -0.5433
 2885TIP3    H232851   2.924   2.586  18.416  0.6757 -0.6960  1.0484
 2886TIP3   OH232852   2.221   1.877  19.038 -0.1336  0.3141  0.4531
 2886TIP3    H132853   2.241   1.890  19.131  1.1270 -0.4415  0.2995
 2886TIP3    H232854   2.218   1.782  19.027 -0.1560  0.3982 -0.3171
 2887TIP3   OH232855   6.753   0.306  18.702  0.4401 -0.2299 -0.1698
 2887TIP3    H132856   6.766   0.249  18.626  0.6570 -3.6333  2.1976
 2887TIP3    H232857   6.660   0.295  18.725  0.4193  0.6051  0.1951
 2888TIP3   OH232858   0.706   5.594  19.039 -0.4040  0.8698 -0.2852
 2888TIP3    H132859   0.734   5.577  18.949  0.1990 -2.6956  0.4171
 2888TIP3    H232860   0.613   5.573  19.039 -0.3382  0.5817 -0.0070
 2889TIP3   OH232861   0.097   4.146  19.223  0.2001  0.1374  0.6324
 2889TIP3    H132862   0.088   4.193  19.140 -2.5986  0.4189  0.9926
 2889TIP3    H232863   0.106   4.214  19.289 -1.6113  0.1615  0.9155
 2890TIP3   OH232864   6.450   4.503  16.837  0.4785  0.3770  0.1387
 2890TIP3    H132865   6.453   4.418  16.882 -0.1536  0.5600  0.5280
 2890TIP3    H232866   6.535   4.543  16.855  1.0735 -0.4775 -0.6535
 2891TIP3   OH232867   2.642   2.610  19.158 -0.1461 -0.0511 -0.2586
 2891TIP3    H132868   2.666   2.610  19.250 -0.1094 -0.2601 -0.2658
 2891TIP3    H232869   2.710   2.660  19.115 -1.0827  1.5609  0.0520
 2892TIP3   OH232870   5.651   0.548  17.022 -0.3528  0.0823 -0.0399
 2892TIP3    H132871   5.645   0.481  16.954 -2.6266  0.4884 -0.3373
 2892TIP3    H232872   5.711   0.511  17.087  0.0820 -1.3080 -1.1695
 2893TIP3   OH232873   7.525   7.605  18.675  0.0205  0.0853 -0.2539
 2893TIP3    H132874   7.484   7.554  18.744 -1.0218 -0.1708 -1.0251
 2893TIP3    H232875   7.605   7.557  18.654  0.8340  0.6641  1.3736
 2894TIP3   OH232876   1.340   1.578  17.646  0.5809  1.1140 -0.2272
 2894TIP3    H132877   1.280   1.516  17.603  2.0846  0.9507 -2.2427
 2894TIP3    H232878   1.300   1.595  17.731 -0.6672 -1.4600 -0.1959
 2895TIP3   OH232879   6.420   7.186  18.526  0.5306 -0.4395  0.4367
 2895TIP3    H132880   6.382   7.108  18.486  0.6812 -0.6171  0.6438
 2895TIP3    H232881   6.357   7.213  18.592  0.8163 -0.8027  0.8611
 2896TIP3   OH232882   6.989   3.268  18.368 -0.5073  0.0999  0.3960
 2896TIP3    H132883   6.940   3.189  18.389 -0.1245 -0.5410 -1.0113
 2896TIP3    H232884   6.931   3.317  18.310 -0.7784  0.9295  1.3268
 2897TIP3   OH232885   1.522   6.065  17.927 -0.0640 -0.1827  0.2600
 2897TIP3    H132886   1.514   6.145  17.875  0.9990 -0.5155 -0.4495
 2897TIP3    H232887   1.473   5.999  17.878 -0.8779 -0.0073  0.8065
 2898TIP3   OH232888   7.162   2.028  18.616 -0.0645  0.2971 -0.0702
 2898TIP3    H132889   7.124   2.114  18.596  1.1023  1.0191  0.7128
 2898TIP3    H232890   7.087   1.968  18.617 -0.7843  1.1261 -1.5373
 2899TIP3   OH232891   4.005   1.609  17.892 -0.3827  0.1683 -0.1214
 2899TIP3    H132892   4.063   1.669  17.846  1.4451 -1.5310 -0.1913
 2899TIP3    H232893   4.062   1.564  17.955 -1.6808 -1.3929  0.0050
 2900TIP3   OH232894   3.616   4.393  18.028 -0.3354  0.3173 -0.3878
 2900TIP3    H132895   3.582   4.336  18.097  1.6896 -1.4113 -0.7383
 2900TIP3    H232896   3.704   4.416  18.057 -0.4121  1.7203 -1.1864
 2901TIP3   OH232897   0.652   0.857  19.447  0.1110  0.1171  0.2239
 2901TIP3    H132898   0.627   0.907  19.525  0.5328  0.6889 -0.0009
 2901TIP3    H232899   0.702   0.919  19.394  1.2477 -0.7405  0.2592
 2902TIP3   OH232900   1.114   2.670  19.125  0.2825 -0.1691 -0.1445
 2902TIP3    H132901   1.047   2.601  19.131  0.6013 -0.6156 -1.3741
 2902TIP3    H232902   1.111   2.698  19.034  0.2451  1.3966  0.3125
 2903TIP3   OH232903   1.171   3.890  16.854  0.2378  0.9512 -0.0661
 2903TIP3    H132904   1.177   3.826  16.925 -4.1866  0.0810 -0.1443
 2903TIP3    H232905   1.160   3.974  16.898 -1.5964  0.5289  0.3803
 2904TIP3   OH232906   0.795   0.587  19.407  0.3449 -0.0405  0.0215
 2904TIP3    H132907   0.750   0.666  19.437  0.4446 -0.0768  0.2695
 2904TIP3    H232908   0.842   0.614  19.329 -0.7203 -0.1794 -0.6945
 2905TIP3   OH232909   1.478   4.545  17.436  0.2333  0.2684  0.0593
 2905TIP3    H132910   1.433   4.630  17.435 -1.3482 -0.4485 -2.8687
 2905TIP3    H232911   1.417   4.487  17.483 -0.3857  0.0318 -1.0014
 2906TIP3   OH232912   2.133   2.959  17.428 -0.3488  0.2165 -0.0133
 2906TIP3    H132913   2.134   3.037  17.483 -0.2386  1.3469 -1.5434
 2906TIP3    H232914   2.218   2.918  17.443 -0.5594  0.1473  1.0934
 2907TIP3   OH232915   0.493   7.049  19.357  0.2724 -0.2599  0.7930
 2907TIP3    H132916   0.466   6.987  19.425 -0.1761  0.2299  1.0643
 2907TIP3    H232917   0.423   7.045  19.291 -0.7486  1.3413  1.7097
 2908TIP3   OH232918   0.635   1.438  18.172  0.5643  0.0405 -0.2366
 2908TIP3    H132919   0.658   1.525  18.140 -0.9709 -0.1162 -1.8951
 2908TIP3    H232920   0.668   1.378  18.104  1.4539 -0.6924  0.7988
 2909TIP3   OH232921   1.140   5.036  18.984  0.4692  0.2985  0.2863
 2909TIP3    H132922   1.185   5.118  18.960  2.8971 -0.4825  1.7879
 2909TIP3    H232923   1.096   5.057  19.067  1.5904 -0.0203  0.9879
 2910TIP3   OH232924   7.330   4.043  18.804 -0.2429  0.3706 -0.2341
 2910TIP3    H132925   7.300   3.967  18.854 -0.9050  0.5348 -0.3663
 2910TIP3    H232926   7.424   4.029  18.792 -0.0880  0.2539  0.9269
 2911TIP3   OH232927   6.633   4.120  18.118  0.1735  0.6550 -0.9709
 2911TIP3    H132928   6.572   4.129  18.191  2.1000 -1.0351  0.9842
 2911TIP3    H232929   6.582   4.142  18.040 -2.3044  1.3138  0.7509
 2912TIP3   OH232930   1.887   4.499  17.080  0.2961  0.3979  0.0891
 2912TIP3    H132931   1.895   4.405  17.100  1.2558  0.4067 -0.2421
 2912TIP3    H232932   1.825   4.531  17.145 -0.0577 -0.4716  0.1984
 2913TIP3   OH232933   5.843   3.135  17.059  0.5356  0.0699 -0.0376
 2913TIP3    H132934   5.791   3.182  16.994 -0.0659 -2.9634 -1.9535
 2913TIP3    H232935   5.883   3.204  17.112 -0.6649  2.6597 -2.2475
 2914TIP3   OH232936   1.672   2.971  18.019  0.5000  0.5068 -0.3543
 2914TIP3    H132937   1.586   2.987  18.058 -0.1398  2.5253 -2.3658
 2914TIP3    H232938   1.659   2.896  17.961  0.8892 -1.0284  1.4476
 2915TIP3   OH232939   4.607   0.320  17.737  0.1311 -0.2317 -0.2636
 2915TIP3    H132940   4.592   0.353  17.825  2.3167  1.5084 -0.4640
 2915TIP3    H232941   4.519   0.308  17.700 -0.8167  1.8425  1.1395
 2916TIP3   OH232942   0.051   7.270  17.260 -0.0620  0.2329  0.1776
 2916TIP3    H132943   0.068   7.298  17.350  0.4789 -1.0323  0.4822
 2916TIP3    H232944   0.073   7.177  17.258 -0.7620  0.0628 -1.0848
 2917TIP3   OH232945   2.833   6.158  19.063  0.0661 -0.7591 -0.5078
 2917TIP3    H132946   2.832   6.091  19.131  0.9678  0.1205  0.3998
 2917TIP3    H232947   2.914   6.141  19.014  0.2614 -0.3810 -0.3184
 2918TIP3   OH232948   6.746   3.733  18.959 -0.1326 -0.3286 -0.3703
 2918TIP3    H132949   6.802   3.656  18.959 -0.0069 -0.2455 -1.1044
 2918TIP3    H232950   6.755   3.770  19.047 -1.6539 -2.1730  0.6311
 2919TIP3   OH232951   4.397   5.137  18.494  0.1760  0.4161 -0.2738
 2919TIP3    H132952   4.437   5.216  18.459 -0.6316  0.4689 -1.1221
 2919TIP3    H232953   4.437   5.125  18.580 -0.3307  2.2288  0.2377
 2920TIP3   OH232954   6.021   4.599  18.349  0.1517 -0.2198 -0.3524
 2920TIP3    H132955   6.023   4.652  18.269 -1.1613  0.3495 -0.0340
 2920TIP3    H232956   6.096   4.631  18.400 -1.3147  2.3827  0.4126
 2921TIP3   OH232957   6.671   2.116  16.181 -0.0105  0.3279  0.2741
 2921TIP3    H132958   6.685   2.150  16.269 -0.4081  0.0981  0.4338
 2921TIP3    H232959   6.710   2.180  16.123 -0.6619  1.0046  0.5698
 2922TIP3   OH232960   4.088   6.122  18.342 -0.0310 -0.0885  0.3766
 2922TIP3    H132961   4.133   6.039  18.326  1.3219  0.1972  2.4483
 2922TIP3    H232962   4.156   6.183  18.369 -1.3782  0.8743  1.8158
 2923TIP3   OH232963   5.278   0.893  18.221 -0.2380 -0.4465 -0.7627
 2923TIP3    H132964   5.298   0.967  18.164  2.0619  0.6589  1.3040
 2923TIP3    H232965   5.363   0.863  18.253 -1.3426 -1.6027  1.3272
 2924TIP3   OH232966   6.176   3.063  18.914 -0.8199 -0.3397  0.1646
 2924TIP3    H132967   6.217   3.012  18.984  0.3265  0.2001 -0.1048
 2924TIP3    H232968   6.111   3.003  18.877  0.0601 -1.3948  0.2563
 2925TIP3   OH232969   4.408   6.079  17.919  0.9983 -0.5352  0.1864
 2925TIP3    H132970   4.347   6.144  17.883  0.5637 -1.3539 -0.5780
 2925TIP3    H232971   4.468   6.131  17.973 -1.0673  0.1416  1.9603
 2926TIP3   OH232972   1.579   4.066  17.809 -0.3589  0.1506 -0.1727
 2926TIP3    H132973   1.527   4.115  17.873  1.0291  0.7606  0.5336
 2926TIP3    H232974   1.525   3.990  17.787 -1.2110  0.3522  1.1073
 2927TIP3   OH232975   0.820   6.573  17.922 -0.4049 -0.0225  0.3451
 2927TIP3    H132976   0.742   6.549  17.972  0.2643 -0.2613  1.2856
 2927TIP3    H232977   0.893   6.535  17.971  0.5301  2.2039  0.7966
 2928TIP3   OH232978   0.367   0.189  19.045  0.3448  0.2947 -0.7762
 2928TIP3    H132979   0.274   0.167  19.041  0.0066  1.7055 -1.2976
 2928TIP3    H232980   0.410   0.108  19.073 -1.3170  0.2948  2.1543
 2929TIP3   OH232981   6.986   2.609  18.558  0.3140  0.3275 -0.8045
 2929TIP3    H132982   6.949   2.592  18.645 -1.6825  0.5617 -1.5480
 2929TIP3    H232983   6.911   2.606  18.500  1.6921 -0.4186 -2.6305
 2930TIP3   OH232984   0.850   0.264  18.326 -0.4257 -0.0723  0.3028
 2930TIP3    H132985   0.883   0.352  18.308  0.3944 -0.5587 -0.6015
 2930TIP3    H232986   0.926   0.216  18.360 -1.2986  0.0725  2.6668
 2931TIP3   OH232987   5.407   5.297  18.716 -0.3944  0.1824 -0.1236
 2931TIP3    H132988   5.329   5.243  18.707 -0.1546 -0.2705  0.4875
 2931TIP3    H232989   5.397   5.365  18.649 -0.0400 -1.4062 -1.8884
 2932TIP3   OH232990   4.403   2.709  19.244 -0.3565 -0.1011 -0.1499
 2932TIP3    H132991   4.457   2.632  19.226  0.4449  0.4312 -0.0713
 2932TIP3    H232992   4.313   2.679  19.228  0.0831 -0.4623 -2.2483
 2933TIP3   OH232993   2.817   3.477  19.149  0.5877  0.1229 -0.0154
 2933TIP3    H132994   2.854   3.389  19.151  2.4762  0.8862  0.5395
 2933TIP3    H232995   2.734   3.469  19.195  1.8862 -0.8880  2.3301
 2934TIP3   OH232996   4.509   0.834  17.879 -0.5427  0.4106  0.1245
 2934TIP3    H132997   4.565   0.907  17.908 -2.5780  2.4450 -0.7469
 2934TIP3    H232998   4.534   0.820  17.788 -0.8996  0.7678 -0.0281
 2935TIP3   OH232999   4.496   3.075  19.624 -0.8295  0.2294 -1.1510
 2935TIP3    H133000   4.428   3.040  19.567  0.4852 -1.1601 -1.9425
 2935TIP3    H233001   4.511   3.005  19.688 -0.0398  0.4502 -1.0847
 2936TIP3   OH233002   2.477   1.833  18.382 -0.1784 -0.4367 -0.3553
 2936TIP3    H133003   2.461   1.926  18.369 -0.7401 -0.4065  0.4717
 2936TIP3    H233004   2.539   1.829  18.455 -1.0898 -0.7221  0.4343
 2937TIP3   OH233005   1.811   0.407  18.083  0.3752  0.2883  0.3049
 2937TIP3    H133006   1.719   0.390  18.064  0.2995  0.7537  0.2380
 2937TIP3    H233007   1.845   0.449  18.003  0.7242 -0.1705  0.2094
 2938TIP3   OH233008   1.537   0.169  18.732  0.2675  0.0118 -0.2742
 2938TIP3    H133009   1.578   0.149  18.648 -0.4728 -0.4405 -0.5286
 2938TIP3    H233010   1.529   0.265  18.732  1.2444  0.1101 -0.2452
 2939TIP3   OH233011   3.707   0.309  18.705 -0.2622  0.1600 -0.5052
 2939TIP3    H133012   3.627   0.256  18.712  0.3033 -0.5264  1.4762
 2939TIP3    H233013   3.716   0.326  18.612 -2.4790 -0.1091 -0.8385
 2940TIP3   OH233014   6.272   1.885  17.948 -0.0875 -0.4438  0.4256
 2940TIP3    H133015   6.314   1.971  17.954 -1.2966  0.1809  0.3363
 2940TIP3    H233016   6.344   1.822  17.949  0.8581  0.6018 -0.2501
 2941TIP3   OH233017   7.433   5.068  18.550 -0.2784 -0.1364 -0.1223
 2941TIP3    H133018   7.374   5.052  18.623  0.7007 -0.9673  0.5119
 2941TIP3    H233019   7.376   5.070  18.473 -1.4863  1.8673  0.7239
 2942TIP3   OH233020   6.838   3.044  17.290  0.2114 -0.5043  0.4432
 2942TIP3    H133021   6.834   2.978  17.220 -1.3487  1.3827 -1.3842
 2942TIP3    H233022   6.781   3.114  17.259  2.4162  2.0990  1.8788
 2943TIP3   OH233023   6.080   3.032  17.595 -0.0017  0.1926 -0.1300
 2943TIP3    H133024   6.058   2.976  17.521 -1.8183  0.9544 -0.2174
 2943TIP3    H233025   6.125   3.107  17.556  0.0515  0.0536 -0.3323
 2944TIP3   OH233026   5.145   1.588  19.314  0.1571 -0.6740  0.5226
 2944TIP3    H133027   5.154   1.650  19.241 -0.7647 -0.3214  0.6971
 2944TIP3    H233028   5.098   1.637  19.381 -0.4338 -1.5102  0.7251
 2945TIP3   OH233029   3.840   5.713  17.325  0.2697 -0.6057  0.3162
 2945TIP3    H133030   3.781   5.728  17.398 -0.1167  0.3086 -0.1633
 2945TIP3    H233031   3.794   5.653  17.268 -0.8719  1.1848 -0.7581
 2946TIP3   OH233032   4.678   5.405  18.204  0.1693 -0.1552  0.5550
 2946TIP3    H133033   4.700   5.313  18.195  2.1833  0.1174  1.8759
 2946TIP3    H233034   4.651   5.433  18.117 -0.6866 -2.0250  0.1890
 2947TIP3   OH233035   5.085   5.047  19.716  0.2974  0.0591 -0.2246
 2947TIP3    H133036   5.064   5.097  19.796  0.9184 -0.4035  0.2385
 2947TIP3    H233037   5.098   5.114  19.649  1.0019  0.5225  0.3609
 2948TIP3   OH233038  -0.002   4.521  18.122  0.0131  0.6643  0.0757
 2948TIP3    H133039   0.067   4.480  18.174  0.4362  0.7573 -0.3991
 2948TIP3    H233040   0.023   4.502  18.031 -0.8123  0.3402 -0.0911
 2949TIP3   OH233041   4.053   1.137  17.723  0.0258  0.1509  0.4323
 2949TIP3    H133042   4.105   1.058  17.740  0.0639  0.3418  1.2373
 2949TIP3    H233043   4.102   1.207  17.765 -0.1220  0.5771 -0.0929
 2950TIP3   OH233044   3.554   0.894  18.926  0.2155  0.3334 -0.0585
 2950TIP3    H133045   3.530   0.982  18.898  0.7571  0.2700 -0.7527
 2950TIP3    H233046   3.484   0.838  18.892  0.6289  0.3165 -0.9198
 2951TIP3   OH233047   1.266   1.630  17.897 -0.2302  0.2307  0.4948
 2951TIP3    H133048   1.217   1.571  17.954 -0.7916 -1.0926 -1.2948
 2951TIP3    H233049   1.343   1.655  17.950 -0.4865 -1.2912  1.6644
 2952TIP3   OH233050   3.439   4.017  19.428 -0.2250  0.3379 -0.4521
 2952TIP3    H133051   3.376   4.076  19.470 -0.0301  0.1168  0.1634
 2952TIP3    H233052   3.388   3.970  19.362 -0.4564  0.9507 -0.7144
 2953TIP3   OH233053   5.940   6.923  19.250  0.1601 -0.2251  0.2268
 2953TIP3    H133054   6.013   6.873  19.214  1.0354  1.3402 -0.2677
 2953TIP3    H233055   5.965   6.940  19.341  1.3682  1.8863 -0.4259
 2954TIP3   OH233056   3.597   4.534  18.414 -0.5647  0.4357  0.0072
 2954TIP3    H133057   3.559   4.481  18.483  0.4875 -1.0033 -0.4733
 2954TIP3    H233058   3.533   4.603  18.398 -2.0510 -0.7733  0.5548
 2955TIP3   OH233059   0.519   5.363  18.030  0.2022  0.4701  0.1032
 2955TIP3    H133060   0.460   5.354  18.105 -1.1667  1.1517 -0.8619
 2955TIP3    H233061   0.555   5.451  18.037  1.4016 -0.0410  0.8511
 2956TIP3   OH233062   1.371   0.147  18.395 -0.5548 -0.2308  0.2521
 2956TIP3    H133063   1.365   0.241  18.376  2.0394  0.4192  2.1019
 2956TIP3    H233064   1.303   0.132  18.461 -0.1917  0.6369  0.8441
 2957TIP3   OH233065   6.417   7.652  18.744  0.0486 -0.2203 -0.8376
 2957TIP3    H133066   6.416   7.649  18.839 -1.6046  0.0988 -0.8228
 2957TIP3    H233067   6.441   7.742  18.723  2.4868 -0.7860 -0.7916
 2958TIP3   OH233068   5.709   0.253  17.431  0.2482 -0.5882  0.3997
 2958TIP3    H133069   5.727   0.341  17.463 -2.5828  0.0738  0.4017
 2958TIP3    H233070   5.686   0.203  17.509  0.0388 -0.8325  0.1853
 2959TIP3   OH233071   3.905   6.819  18.474  0.0692  0.2038  0.0151
 2959TIP3    H133072   3.919   6.912  18.493  0.1788  0.3652 -0.8020
 2959TIP3    H233073   3.817   6.801  18.507 -0.6201  1.0227 -1.2735
 2960TIP3   OH233074   4.773   0.500  17.900  0.0127 -0.1039  0.4309
 2960TIP3    H133075   4.797   0.446  17.824 -0.1646 -1.8348  1.5390
 2960TIP3    H233076   4.680   0.517  17.889  0.6047  2.6100 -1.4432
 2961TIP3   OH233077   6.675   5.031  18.499  0.5027 -0.4359 -0.0196
 2961TIP3    H133078   6.705   5.047  18.589  2.8564  0.9260 -0.9399
 2961TIP3    H233079   6.752   5.051  18.445 -1.0118 -0.6501 -2.3748
 2962TIP3   OH233080   1.312   0.288  16.861 -0.0126 -0.1609  0.6285
 2962TIP3    H133081   1.298   0.226  16.790  0.4708  1.3990 -0.8915
 2962TIP3    H233082   1.230   0.286  16.911  0.0118 -2.0190  0.6608
 2963TIP3   OH233083   6.720   2.032  18.435 -0.1564  0.4757  0.4210
 2963TIP3    H133084   6.717   1.990  18.349 -1.1144  1.9356 -0.3140
 2963TIP3    H233085   6.775   2.109  18.421  1.4849 -0.4066  1.7008
 2964TIP3   OH233086   7.022   2.395  17.162  0.1549  0.2243 -0.0574
 2964TIP3    H133087   6.991   2.485  17.157 -2.7859 -0.5991  0.7839
 2964TIP3    H233088   7.062   2.387  17.248 -2.0970  0.1516  1.0658
 2965TIP3   OH233089   4.511   5.409  19.040 -0.7928 -0.1853  0.0344
 2965TIP3    H133090   4.561   5.431  18.962 -3.3773 -2.5929 -2.5617
 2965TIP3    H233091   4.563   5.342  19.084  0.6747  1.1527  0.3755
 2966TIP3   OH233092   1.853   5.476  18.439  0.2754  0.3665  0.2281
 2966TIP3    H133093   1.821   5.464  18.350  0.7077 -0.6637  0.1962
 2966TIP3    H233094   1.931   5.531  18.429  1.3631 -1.1741 -0.2663
 2967TIP3   OH233095   3.432   0.165  16.691 -0.3513 -0.2079 -0.4035
 2967TIP3    H133096   3.409   0.072  16.700  1.8683 -0.6762  1.0845
 2967TIP3    H233097   3.373   0.210  16.752  0.4804 -1.0239  1.0725
 2968TIP3   OH233098   3.375   4.188  18.878  0.0687 -0.1687 -0.2278
 2968TIP3    H133099   3.309   4.129  18.841 -1.6643  0.6617  1.4192
 2968TIP3    H233100   3.457   4.138  18.871 -0.9651 -1.8742 -0.8701
 2969TIP3   OH233101   1.608   1.561  17.083 -0.3106 -0.3195 -0.1751
 2969TIP3    H133102   1.522   1.602  17.093  0.2593  0.9271 -0.1552
 2969TIP3    H233103   1.621   1.513  17.164 -1.0974 -0.7561 -0.2954
 2970TIP3   OH233104   5.474   4.695  17.401  0.1593 -0.0590  0.1013
 2970TIP3    H133105   5.499   4.740  17.321 -1.7417  0.0073 -0.5077
 2970TIP3    H233106   5.445   4.608  17.371  1.6544 -0.9106  1.0066
 2971TIP3   OH233107   0.067   0.034  17.496 -0.0853 -0.1446  0.1663
 2971TIP3    H133108   0.027  -0.009  17.572 -0.5896 -1.0200 -0.5758
 2971TIP3    H233109   0.161   0.032  17.515 -0.2437  0.2217  1.0558
 2972TIP3   OH233110   7.553   0.717  16.663  0.0515 -0.1437  0.2051
 2972TIP3    H133111   7.471   0.713  16.712  0.6910  0.0857  1.3346
 2972TIP3    H233112   7.533   0.773  16.588 -0.7803  0.0475  0.5522
 2973TIP3   OH233113   4.821   6.085  17.152 -0.2744  0.1877 -0.6342
 2973TIP3    H133114   4.915   6.097  17.150 -0.2902  0.2287 -1.1183
 2973TIP3    H233115   4.809   5.991  17.171 -0.1325  0.0861 -1.0408
 2974TIP3   OH233116   1.077   3.973  18.859 -0.2555  0.2741  0.3712
 2974TIP3    H133117   1.002   3.993  18.915 -1.1085  0.8610 -0.9016
 2974TIP3    H233118   1.089   4.053  18.806  0.2898 -0.3645 -0.5054
 2975TIP3   OH233119   1.512   1.313  18.545 -0.1040 -0.1704  0.4679
 2975TIP3    H133120   1.599   1.295  18.509 -0.2543  0.1366 -0.0601
 2975TIP3    H233121   1.452   1.287  18.475 -0.4264 -0.0508  0.6980
 2976TIP3   OH233122   1.597   6.041  18.514  0.4783  0.4876  0.4350
 2976TIP3    H133123   1.512   6.051  18.470  0.7929 -1.7414 -0.7912
 2976TIP3    H233124   1.586   6.089  18.596 -1.9809  0.3158  0.2972
 2977TIP3   OH233125   5.565   2.308  18.920 -0.4351  0.0757 -0.2460
 2977TIP3    H133126   5.517   2.346  18.846 -1.0712 -0.1430  0.0486
 2977TIP3    H233127   5.514   2.230  18.944  0.3217 -0.4250 -0.2222
 2978TIP3   OH233128   0.834   5.320  18.054 -0.2069 -0.7356 -0.4737
 2978TIP3    H133129   0.747   5.281  18.049 -1.4772  1.6811  0.7800
 2978TIP3    H233130   0.825   5.405  18.011  1.6819 -0.6063 -0.7189
 2979TIP3   OH233131   6.096   1.881  19.207 -0.5649 -0.2013  0.0567
 2979TIP3    H133132   6.022   1.871  19.267 -0.3600  1.6404  0.6721
 2979TIP3    H233133   6.055   1.893  19.121 -1.0568  1.6103  0.5076
 2980TIP3   OH233134   7.065   2.271  19.162  0.1439 -0.4622  0.7221
 2980TIP3    H133135   7.115   2.352  19.147 -1.6583  0.2682 -1.9198
 2980TIP3    H233136   6.974   2.300  19.172 -0.1772 -1.9592  3.1072
 2981TIP3   OH233137   6.574   5.096  19.528 -0.0437 -0.4138 -0.2388
 2981TIP3    H133138   6.539   5.084  19.617  0.7634  0.1239  0.1650
 2981TIP3    H233139   6.663   5.130  19.542  0.3190 -0.9288 -1.2527
 2982TIP3   OH233140   1.639   7.024  18.499 -0.1270 -0.0165 -0.1643
 2982TIP3    H133141   1.553   7.008  18.538  0.2142  1.3078  1.2330
 2982TIP3    H233142   1.623   7.027  18.404 -1.1588 -2.2623 -0.1159
 2983TIP3   OH233143   4.901   4.045  19.624 -0.5618  0.0325 -0.3665
 2983TIP3    H133144   4.931   4.136  19.617 -1.2232  0.1660 -1.8052
 2983TIP3    H233145   4.978   3.997  19.654 -0.0891  0.9866  0.0243
 2984TIP3   OH233146   7.401   6.794  18.583  0.4510 -0.3726 -0.2557
 2984TIP3    H133147   7.446   6.764  18.504 -1.1622 -1.0779 -0.9603
 2984TIP3    H233148   7.340   6.723  18.604  0.9525 -0.2735  1.7503
 2985TIP3   OH233149   0.618   3.041  17.880 -0.3099  0.2351  0.0616
 2985TIP3    H133150   0.673   2.979  17.832 -1.7394 -0.1232 -1.2142
 2985TIP3    H233151   0.653   3.127  17.856 -0.0712  0.0032 -0.4503
 2986TIP3   OH233152   3.901   1.402  19.102 -0.0164  0.2047 -0.3163
 2986TIP3    H133153   3.842   1.427  19.031 -2.1814  0.8164  1.5867
 2986TIP3    H233154   3.935   1.485  19.136  1.3381 -0.1033 -0.8501
 2987TIP3   OH233155   6.080   0.706  17.467  0.0823 -0.1285  0.5658
 2987TIP3    H133156   6.021   0.632  17.450 -3.3116  2.3622  0.4829
 2987TIP3    H233157   6.106   0.696  17.559 -1.1780 -0.8721  0.8620
 2988TIP3   OH233158   1.174   0.989  18.130 -0.0745  0.3904  0.2334
 2988TIP3    H133159   1.196   1.002  18.038  1.4158  1.6207  0.7171
 2988TIP3    H233160   1.221   0.909  18.155 -0.6024 -0.0297 -0.0923
 2989TIP3   OH233161   1.755   3.189  18.769  0.0130  0.0876  0.7493
 2989TIP3    H133162   1.820   3.194  18.839  0.3279 -0.5890  0.5119
 2989TIP3    H233163   1.753   3.097  18.744 -0.5829  0.2092  0.3186
 2990TIP3   OH233164   3.042   1.079  17.703 -0.1332  0.0557 -0.2444
 2990TIP3    H133165   3.102   1.152  17.717  1.7775 -1.6294  0.9537
 2990TIP3    H233166   3.088   1.022  17.641 -2.1214  0.3941 -2.1234
 2991TIP3   OH233167   3.810   3.787  19.614  0.0855  0.0875 -0.5334
 2991TIP3    H133168   3.823   3.765  19.707 -0.1821 -1.5125 -0.8335
 2991TIP3    H233169   3.896   3.775  19.574  0.0746  0.1867 -0.5854
 2992TIP3   OH233170   2.761   7.586  17.742  0.5193 -0.2678 -0.2355
 2992TIP3    H133171   2.828   7.549  17.799  0.1249 -0.4179  0.1398
 2992TIP3    H233172   2.773   7.542  17.658  0.5104 -0.7349  0.0044
 2993TIP3   OH233173   5.740   1.590  17.979  0.1731 -0.2947 -0.4265
 2993TIP3    H133174   5.680   1.554  18.045  0.3571 -2.4338 -1.3369
 2993TIP3    H233175   5.684   1.617  17.907  0.2323 -2.1240 -1.2016
 2994TIP3   OH233176   0.227   6.591  18.793  0.6446 -0.0471 -0.2428
 2994TIP3    H133177   0.266   6.642  18.722  0.9000  0.3047  0.1513
 2994TIP3    H233178   0.140   6.631  18.805  1.1891  0.8986  0.6786
 2995TIP3   OH233179   6.987   1.962  17.132 -0.1256  0.0968 -0.0442
 2995TIP3    H133180   7.041   2.021  17.184  1.1425 -0.7817 -0.3239
 2995TIP3    H233181   7.011   1.874  17.163 -1.9399 -0.3127  0.3393
 2996TIP3   OH233182   6.285   6.968  18.761 -0.0420 -0.4435 -0.5234
 2996TIP3    H133183   6.285   7.063  18.747 -1.4306 -0.4309 -0.6209
 2996TIP3    H233184   6.252   6.958  18.851  2.6106 -0.7663  0.4990
 2997TIP3   OH233185   7.369   7.456  19.263 -0.7773 -0.3471 -0.7930
 2997TIP3    H133186   7.415   7.492  19.339 -1.4440 -0.6572 -0.2294
 2997TIP3    H233187   7.362   7.530  19.202  0.2350 -0.2311 -0.7928
 2998TIP3   OH233188   1.693   0.396  19.303 -0.5529 -0.0366  0.4330
 2998TIP3    H133189   1.616   0.443  19.270  0.1178  1.2024  0.5355
 2998TIP3    H233190   1.685   0.308  19.267 -1.0295  0.6238 -1.1731
 2999TIP3   OH233191   1.662   3.754  16.508  0.4269  0.1628 -0.5928
 2999TIP3    H133192   1.694   3.813  16.440  2.5213  0.9858  0.9959
 2999TIP3    H233193   1.711   3.779  16.586 -0.1887 -2.2889  0.6803
 3000TIP3   OH233194   2.724   2.640  19.421 -0.2737  0.0537  0.2339
 3000TIP3    H133195   2.770   2.722  19.405 -0.3177  0.4969  2.1397
 3000TIP3    H233196   2.777   2.595  19.487 -1.8102 -0.0447  1.4634
 3001TIP3   OH233197   5.529   3.250  17.215 -0.7158 -0.1248  0.4943
 3001TIP3    H133198   5.624   3.237  17.209 -0.7788 -1.4037  1.7597
 3001TIP3    H233199   5.492   3.191  17.150 -0.6441  1.0713 -0.6791
 3002TIP3   OH233200   7.000   5.529  18.760 -0.6548  0.0429 -0.1300
 3002TIP3    H133201   7.014   5.565  18.847 -3.0788  0.5326  0.1394
 3002TIP3    H233202   7.088   5.514  18.725  0.3722  0.7762  1.9923
 3003TIP3   OH233203   2.299   1.679  18.646 -0.3470 -0.4333  0.3216
 3003TIP3    H133204   2.366   1.737  18.609  0.9505 -2.2606 -0.3288
 3003TIP3    H233205   2.216   1.712  18.610  0.4984  0.1199 -1.2122
 3004TIP3   OH233206   6.202   6.955  18.498 -0.4249  0.3354 -0.0868
 3004TIP3    H133207   6.127   6.897  18.485 -0.8463  1.3119 -2.5793
 3004TIP3    H233208   6.203   6.971  18.593 -1.5608 -2.0008  0.3802
 3005TIP3   OH233209   7.229   4.894  18.715  0.1911  0.1162  0.3163
 3005TIP3    H133210   7.172   4.821  18.691  0.0163 -0.2428  1.7698
 3005TIP3    H233211   7.173   4.971  18.709  0.4316  0.2116 -1.4500
 3006TIP3   OH233212   7.455   6.468  17.715 -0.3513 -0.6027 -0.2835
 3006TIP3    H133213   7.408   6.540  17.757  0.2336 -0.3417 -0.0634
 3006TIP3    H233214   7.452   6.489  17.621 -2.4958 -1.6770 -0.5280
 3007TIP3   OH233215   1.886   1.242  17.607  0.8489 -1.0679  0.0280
 3007TIP3    H133216   1.934   1.238  17.690 -0.7035 -2.5344  0.9134
 3007TIP3    H233217   1.806   1.291  17.628  1.0356 -0.2933 -0.9658
 3008TIP3   OH233218   2.779   5.772  17.801  0.1577  0.0920  0.0957
 3008TIP3    H133219   2.722   5.737  17.732  0.6498  0.0693 -0.3077
 3008TIP3    H233220   2.809   5.856  17.767  0.1288  0.2410  0.4350
 3009TIP3   OH233221   0.784   3.371  18.059 -0.1601  0.1182 -0.2724
 3009TIP3    H133222   0.695   3.382  18.093 -0.1507  0.3097 -0.3083
 3009TIP3    H233223   0.804   3.455  18.018  0.1921  0.2192  0.0978
 3010TIP3   OH233224   4.117   0.733  19.144  0.2649 -0.0456 -0.1483
 3010TIP3    H133225   4.132   0.810  19.198  0.0025 -0.4254  0.4659
 3010TIP3    H233226   4.028   0.743  19.111 -0.0344 -0.4642  0.5395
 3011TIP3   OH233227   7.361   2.598  18.414 -0.2555  0.2414  0.3584
 3011TIP3    H133228   7.341   2.685  18.449  1.7214  1.1501 -0.6410
 3011TIP3    H233229   7.338   2.603  18.321 -0.8155 -0.5647  0.4403
 3012TIP3   OH233230   2.094   2.361  16.855 -0.6134  0.2289 -0.7525
 3012TIP3    H133231   2.080   2.277  16.811 -0.1402 -1.8806  2.7124
 3012TIP3    H233232   2.178   2.392  16.822  1.1343 -2.6786  0.4933
 3013TIP3   OH233233   3.385   5.678  17.591 -0.0649 -0.1311  0.1635
 3013TIP3    H133234   3.387   5.611  17.660 -1.8217  0.2870  0.6587
 3013TIP3    H233235   3.341   5.635  17.518  1.0771 -0.3067 -0.4489
 3014TIP3   OH233236   7.626   7.475  18.292 -0.3111  0.0786 -0.1069
 3014TIP3    H133237   7.701   7.452  18.347 -0.1822  0.0863 -0.2782
 3014TIP3    H233238   7.615   7.570  18.304 -1.0980 -0.1222  0.9187
 3015TIP3   OH233239   4.414   0.583  19.244  0.0393 -0.0076  0.0266
 3015TIP3    H133240   4.483   0.521  19.220 -0.1537 -0.4209  0.5160
 3015TIP3    H233241   4.333   0.542  19.216 -0.3604 -1.2546  2.6590
 3016TIP3   OH233242   3.817   1.414  18.815  0.9226 -0.6516 -0.4103
 3016TIP3    H133243   3.827   1.330  18.769  0.6769 -0.1600 -1.3895
 3016TIP3    H233244   3.905   1.435  18.845  0.8619 -1.6252  0.5217
 3017TIP3   OH233245   3.401   7.604  18.693 -0.0083  0.7713 -0.5667
 3017TIP3    H133246   3.444   7.532  18.739 -0.0165 -0.2470 -2.0877
 3017TIP3    H233247   3.422   7.682  18.745 -0.8832 -0.4163  1.7215
 3018TIP3   OH233248   4.035   4.261  17.283  0.3103  0.7585  0.8005
 3018TIP3    H133249   4.029   4.287  17.192 -1.6254 -0.5162  0.5076
 3018TIP3    H233250   4.041   4.166  17.281 -1.3661  0.5833  2.0175
 3019TIP3   OH233251   0.447   4.355  17.066  0.4887  0.1580  0.0190
 3019TIP3    H133252   0.511   4.425  17.081  0.7547  0.3895 -1.9537
 3019TIP3    H233253   0.498   4.283  17.029 -0.2599  0.0696 -0.8745
 3020TIP3   OH233254   3.582   4.757  19.075 -0.2114 -0.0162 -0.5132
 3020TIP3    H133255   3.585   4.691  19.144 -1.2751  0.0200 -0.4181
 3020TIP3    H233256   3.671   4.759  19.040  0.2149 -0.4045  0.5043
 3021TIP3   OH233257   0.400   3.352  17.376  0.1456 -0.1174  0.0109
 3021TIP3    H133258   0.399   3.416  17.447 -0.5926  1.8432 -1.6535
 3021TIP3    H233259   0.331   3.290  17.399  0.7727 -0.2598  1.6036
 3022TIP3   OH233260   3.415   0.695  17.003  0.7227  0.1268  0.0034
 3022TIP3    H133261   3.468   0.705  16.923  0.9617  0.7704  0.2396
 3022TIP3    H233262   3.402   0.600  17.011  3.3381 -0.2285  0.8989
 3023TIP3   OH233263   6.961   6.437  18.587  0.0548  0.3176  0.0628
 3023TIP3    H133264   6.895   6.505  18.583  0.3700  0.5703 -1.2972
 3023TIP3    H233265   6.925   6.365  18.535 -0.2734 -0.5824  1.4774
 3024TIP3   OH233266   2.876   0.751  17.699  0.7308 -0.8099  0.0246
 3024TIP3    H133267   2.876   0.734  17.605 -1.8406 -1.1622  0.0143
 3024TIP3    H233268   2.874   0.846  17.706  1.2551 -0.7718 -0.2339
 3025TIP3   OH233269   7.112   6.608  17.294  0.4673  0.0114 -0.2748
 3025TIP3    H133270   7.127   6.571  17.381 -0.7741 -0.5114 -0.2553
 3025TIP3    H233271   7.032   6.566  17.264  0.1335  1.1801 -1.1109
 3026TIP3   OH233272   4.304   2.262  17.944 -0.1435  0.4052  0.5593
 3026TIP3    H133273   4.296   2.228  17.855  0.7392  1.7699 -0.0701
 3026TIP3    H233274   4.226   2.316  17.956 -0.5147 -0.1778  0.8118
 3027TIP3   OH233275   0.546   0.559  17.786  0.4375 -0.4539 -0.6364
 3027TIP3    H133276   0.539   0.624  17.716 -0.1800  0.9674  0.6841
 3027TIP3    H233277   0.637   0.564  17.814  0.6597 -0.9494 -1.2451
 3028TIP3   OH233278   0.437   1.253  17.565 -0.1253 -0.0490 -0.0985
 3028TIP3    H133279   0.471   1.206  17.488  1.8433 -1.5626  1.5818
 3028TIP3    H233280   0.426   1.343  17.535 -0.0529 -0.7070 -2.3101
 3029TIP3   OH233281   0.237   7.476  19.335 -0.1150  0.4323  0.0286
 3029TIP3    H133282   0.164   7.538  19.334 -1.1640 -0.7635 -0.9734
 3029TIP3    H233283   0.223   7.424  19.414 -0.3135  0.2577 -0.1190
 3030TIP3   OH233284   0.229   5.925  16.876  0.5781 -0.2625 -0.1740
 3030TIP3    H133285   0.306   5.867  16.880 -0.4457 -1.6460  0.2519
 3030TIP3    H233286   0.238   5.970  16.792  0.3182 -2.6965 -1.6055
 3031TIP3   OH233287   4.883   1.220  19.315 -0.1805 -0.1845 -0.0635
 3031TIP3    H133288   4.889   1.127  19.292 -1.4059  0.0285 -1.4069
 3031TIP3    H233289   4.961   1.260  19.277  0.5610 -0.6868  0.8592
 3032TIP3   OH233290   0.731   3.826  19.251 -0.0912  0.0860  0.2043
 3032TIP3    H133291   0.800   3.821  19.317  1.4273 -1.4500 -1.4065
 3032TIP3    H233292   0.654   3.788  19.294  0.6759 -0.2543  1.3219
 3033TIP3   OH233293   7.420   4.705  17.391 -0.2266  0.1874 -0.0461
 3033TIP3    H133294   7.479   4.664  17.328 -0.2481  0.8434 -0.4979
 3033TIP3    H233295   7.402   4.791  17.355  1.5388  1.4816  1.9481
 3034TIP3   OH233296   4.828   1.616  17.227  0.5065  0.1766 -0.0184
 3034TIP3    H133297   4.911   1.610  17.275  0.8724 -0.3443 -0.7092
 3034TIP3    H233298   4.821   1.709  17.203 -0.3098  0.7356  2.1137
 3035TIP3   OH233299   3.614   6.953  17.318  0.0516  0.4073 -0.0907
 3035TIP3    H133300   3.620   7.047  17.331  0.4570  0.4513 -0.5835
 3035TIP3    H233301   3.521   6.937  17.303  0.2814  1.1015 -2.6546
 3036TIP3   OH233302   7.083   1.915  19.181  0.5371 -0.4119 -0.2742
 3036TIP3    H133303   7.046   1.869  19.106  2.1668 -2.2198 -0.0317
 3036TIP3    H233304   7.046   2.003  19.175 -4.7926 -2.2346  0.6699
 3037TIP3   OH233305   7.675   2.566  17.837 -0.4500  0.6145  0.0290
 3037TIP3    H133306   7.719   2.651  17.843  1.1658 -0.2442  0.8243
 3037TIP3    H233307   7.614   2.566  17.911  1.8528 -0.1422  2.0315
 3038TIP3   OH233308   4.334   0.935  19.508  0.5692  0.0696  0.1635
 3038TIP3    H133309   4.244   0.940  19.539  1.0146  0.5201  1.4355
 3038TIP3    H233310   4.327   0.934  19.412 -0.7428  0.8138  0.2412
 3039TIP3   OH233311   0.422   1.320  18.991 -0.4950  0.1070 -0.0919
 3039TIP3    H133312   0.459   1.270  19.063 -2.3223 -0.4415  0.5269
 3039TIP3    H233313   0.420   1.410  19.023 -0.3245  0.0337  0.1278
 3040TIP3   OH233314   6.796   2.513  18.352  0.3398  0.1645 -0.0510
 3040TIP3    H133315   6.762   2.595  18.316  0.5994 -0.0069 -0.7071
 3040TIP3    H233316   6.816   2.460  18.275 -0.0735 -0.6219  0.3718
 3041TIP3   OH233317   6.711   1.051  18.355 -0.1773 -0.3104 -0.9668
 3041TIP3    H133318   6.729   1.019  18.267  1.8837 -0.8309 -0.4031
 3041TIP3    H233319   6.788   1.028  18.406 -1.3740 -0.1639  1.0399
 3042TIP3   OH233320   7.289   3.589  19.216 -0.5542  0.1005 -0.7317
 3042TIP3    H133321   7.211   3.641  19.198 -1.0402  0.6391  2.4236
 3042TIP3    H233322   7.339   3.642  19.278  0.1883 -2.1078  0.6446
 3043TIP3   OH233323   4.272   6.956  18.571  0.1339 -0.2018 -0.3441
 3043TIP3    H133324   4.273   6.984  18.480 -3.6252  0.7564 -0.2438
 3043TIP3    H233325   4.214   7.018  18.615 -0.3314 -2.2145  2.1333
 3044TIP3   OH233326   0.412   5.634  18.750  0.4182 -0.0381  0.1544
 3044TIP3    H133327   0.365   5.701  18.700  3.5441  2.2285 -0.0151
 3044TIP3    H233328   0.377   5.641  18.839  1.2405  2.5238  0.3381
 3045TIP3   OH233329   2.960   2.212  18.100 -0.0956 -0.0724  0.1286
 3045TIP3    H133330   3.037   2.157  18.084  0.2063  0.0606  1.0491
 3045TIP3    H233331   2.977   2.253  18.184  0.6781  3.1130 -1.4408
 3046TIP3   OH233332   4.592   5.346  18.446  0.3124 -0.4003  0.4276
 3046TIP3    H133333   4.604   5.387  18.360 -1.5822 -0.5715  0.0254
 3046TIP3    H233334   4.648   5.396  18.505  0.4853  0.7199 -0.6465
 3047TIP3   OH233335   0.141   7.705  18.604 -0.3222  0.3833 -0.0484
 3047TIP3    H133336   0.203   7.751  18.661 -1.5661  3.6940 -1.1535
 3047TIP3    H233337   0.068   7.683  18.661  0.5996 -1.0103  0.6522
 3048TIP3   OH233338   5.647   7.127  19.275  0.3157 -0.5230 -0.3091
 3048TIP3    H133339   5.675   7.114  19.184  2.1149  3.9422 -0.6543
 3048TIP3    H233340   5.712   7.188  19.311 -1.3496 -0.7282  3.4766
 3049TIP3   OH233341   2.205   2.860  17.861  0.0783 -0.2421 -1.1131
 3049TIP3    H133342   2.190   2.950  17.835 -1.9518 -0.3400 -0.4106
 3049TIP3    H233343   2.286   2.835  17.816  1.0940  2.1403 -0.7255
 3050TIP3   OH233344   3.025   4.126  18.409 -0.3719  0.1816  0.0377
 3050TIP3    H133345   3.018   4.131  18.504  2.7350 -0.8229  0.4253
 3050TIP3    H233346   3.086   4.196  18.385 -1.6812  0.9129 -1.3681
 3051TIP3   OH233347   5.182   7.063  18.752  0.0215 -0.2208 -0.3018
 3051TIP3    H133348   5.192   6.974  18.787  2.1204 -1.0353 -2.7293
 3051TIP3    H233349   5.271   7.096  18.745 -0.5601  1.1048 -1.8498
 3052TIP3   OH233350   3.170   1.673  19.030 -0.6469  0.1190 -0.5201
 3052TIP3    H133351   3.077   1.649  19.032 -0.1234 -2.6773 -2.9277
 3052TIP3    H233352   3.195   1.681  19.122 -2.9156 -0.5466  0.2278
 3053TIP3   OH233353   2.444   0.341  18.612 -0.2271  0.0591 -0.2277
 3053TIP3    H133354   2.502   0.315  18.539  0.6241  2.0117 -0.2946
 3053TIP3    H233355   2.356   0.317  18.582  0.3805 -1.9849 -0.5777
 3054TIP3   OH233356   6.609   3.256  17.820  0.2093 -0.4463  1.0742
 3054TIP3    H133357   6.663   3.211  17.755  0.6879  0.0304  1.1346
 3054TIP3    H233358   6.638   3.347  17.818 -0.2635 -0.2781  1.4495
 3055TIP3   OH233359   6.299   3.730  19.119  0.2252 -0.8136 -0.2081
 3055TIP3    H133360   6.346   3.807  19.088 -0.9298 -0.1158 -0.2768
 3055TIP3    H233361   6.225   3.765  19.168 -0.5038 -1.8704 -0.5162
 3056TIP3   OH233362   5.209   2.043  18.514 -0.5090 -0.2381 -0.1073
 3056TIP3    H133363   5.184   2.036  18.422  0.1192  1.4079 -0.4372
 3056TIP3    H233364   5.131   2.074  18.558  0.2528  3.1109 -0.8363
 3057TIP3   OH233365   5.669   5.420  19.206  0.4797  0.0622  0.3478
 3057TIP3    H133366   5.673   5.338  19.256 -0.4521 -0.2803 -0.1153
 3057TIP3    H233367   5.609   5.401  19.134 -2.6618  2.1862  2.1842
 3058TIP3   OH233368   2.435   6.617  17.595  0.1586 -0.0641  0.4513
 3058TIP3    H133369   2.432   6.711  17.577 -1.4545 -0.1700  0.0536
 3058TIP3    H233370   2.424   6.576  17.510  3.4772 -0.7112  0.1837
 3059TIP3   OH233371   1.054   0.056  18.359  0.1412 -0.7436  0.3233
 3059TIP3    H133372   1.109  -0.017  18.389 -1.2088 -2.0946 -0.3357
 3059TIP3    H233373   1.103   0.096  18.288  0.9311 -0.9681  0.7327
 3060TIP3   OH233374   4.824   3.384  17.506  0.2219 -0.6615  0.7771
 3060TIP3    H133375   4.797   3.474  17.485  0.2510 -1.2333 -2.0782
 3060TIP3    H233376   4.888   3.394  17.576  0.3526  1.5709  0.4144
 3061TIP3   OH233377   1.994   4.344  19.189 -0.3284 -0.0695  0.7521
 3061TIP3    H133378   1.925   4.296  19.234  0.7430  0.4121  3.0489
 3061TIP3    H233379   1.969   4.436  19.197 -0.5648 -0.0016 -0.4844
 3062TIP3   OH233380   2.512   4.172  19.107 -0.1805 -0.4838 -0.0137
 3062TIP3    H133381   2.426   4.209  19.086  0.0545 -0.6023 -1.2142
 3062TIP3    H233382   2.503   4.079  19.087  1.0603 -0.0622 -3.0048
 3063TIP3   OH233383   4.276   1.105  18.646  0.1515 -0.8303  0.0833
 3063TIP3    H133384   4.200   1.164  18.648  0.8730  0.1420 -0.2166
 3063TIP3    H233385   4.350   1.161  18.669  0.6122 -2.0715  1.8137
 3064TIP3   OH233386   5.774   0.758  18.638 -0.5751 -0.5795 -0.4696
 3064TIP3    H133387   5.749   0.707  18.715 -0.3976  0.7487  0.5024
 3064TIP3    H233388   5.692   0.774  18.593 -0.7423 -0.9656 -0.3120
 3065TIP3   OH233389   3.961   4.650  19.499  0.3497 -0.2904  0.1925
 3065TIP3    H133390   4.023   4.599  19.550 -1.0366 -0.9714  1.2708
 3065TIP3    H233391   3.905   4.586  19.457  1.0199  0.2816 -1.6946
 3066TIP3   OH233392   2.246   4.227  18.306 -0.2931 -0.0625 -0.0792
 3066TIP3    H133393   2.156   4.194  18.314 -0.0407 -1.5392 -2.2353
 3066TIP3    H233394   2.299   4.148  18.290  1.5752  0.6626  1.9737
 3067TIP3   OH233395   1.341   2.235  18.509  0.4938 -0.7602  0.3916
 3067TIP3    H133396   1.434   2.260  18.507  0.4679 -0.7101 -0.6294
 3067TIP3    H233397   1.337   2.154  18.459 -0.0831 -0.5488  0.0950
 3068TIP3   OH233398   7.125   6.682  18.593 -0.5698 -0.4230 -0.2991
 3068TIP3    H133399   7.172   6.618  18.647 -2.2514 -1.3692  0.1210
 3068TIP3    H233400   7.034   6.651  18.593 -1.1987  1.3022 -1.1159
 3069TIP3   OH233401   5.349   4.891  18.712  0.3993 -0.1048 -0.1156
 3069TIP3    H133402   5.349   4.822  18.779 -1.3213  0.5632  0.6408
 3069TIP3    H233403   5.334   4.972  18.762  0.9976  0.6658 -1.1371
 3070TIP3   OH233404   6.924   3.815  18.768 -0.1457  0.2927  0.3707
 3070TIP3    H133405   6.988   3.758  18.809  0.6059  0.6717 -0.2458
 3070TIP3    H233406   6.841   3.793  18.810  0.4363 -0.0004  1.3857
 3071TIP3   OH233407   2.002   5.693  18.176  0.2646 -0.0304 -1.1181
 3071TIP3    H133408   1.999   5.757  18.105 -0.0092  0.5706 -0.5881
 3071TIP3    H233409   1.954   5.736  18.248 -1.0373 -1.3411 -1.1563
 3072TIP3   OH233410   6.792   5.976  17.274 -0.0578 -0.2916  0.0003
 3072TIP3    H133411   6.854   5.920  17.321 -0.6833 -0.2417  0.9097
 3072TIP3    H233412   6.767   6.043  17.337 -0.0227  0.4799 -0.7912
 3073TIP3   OH233413   0.921   6.670  18.591 -0.4101 -0.1233 -0.4469
 3073TIP3    H133414   1.006   6.661  18.634 -0.3640  0.8778 -0.3146
 3073TIP3    H233415   0.937   6.730  18.518 -1.5356  2.2880  1.1673
 3074TIP3   OH233416   2.262   5.055  18.806 -0.3308  0.2377 -0.0571
 3074TIP3    H133417   2.173   5.025  18.788 -0.6322  1.4484 -0.6613
 3074TIP3    H233418   2.258   5.087  18.896 -0.6512  0.7972 -0.2674
 3075TIP3   OH233419   2.648   1.880  18.584  0.2910  0.4906  0.0375
 3075TIP3    H133420   2.701   1.959  18.586 -0.0449  0.7309 -0.4948
 3075TIP3    H233421   2.652   1.846  18.674 -0.7414  1.8778  0.6402
 3076TIP3   OH233422   2.632   4.176  18.744 -0.0390  0.4250  0.0339
 3076TIP3    H133423   2.568   4.164  18.814 -0.1867 -0.7619 -0.2844
 3076TIP3    H233424   2.690   4.100  18.751  0.3437  0.6367 -0.7130
 3077TIP3   OH233425   5.303   1.470  17.803  0.7184  0.2666 -0.4876
 3077TIP3    H133426   5.270   1.517  17.726  0.0398 -1.8000 -1.5446
 3077TIP3    H233427   5.351   1.395  17.767  0.4885 -0.6881  1.0856
 3078TIP3   OH233428   1.839   6.470  19.419 -0.1216  0.0968 -0.5178
 3078TIP3    H133429   1.800   6.414  19.486  2.4600 -1.4045 -0.1453
 3078TIP3    H233430   1.853   6.554  19.463 -0.6310 -0.1208  0.0777
 3079TIP3   OH233431   1.967   4.250  19.524 -0.7827  0.5110 -0.1300
 3079TIP3    H133432   2.058   4.276  19.516 -0.6173 -0.3247 -1.3007
 3079TIP3    H233433   1.926   4.318  19.577  0.7063  0.4164  1.1986
 3080TIP3   OH233434   6.555   5.646  16.674 -0.4229  0.1341 -0.2375
 3080TIP3    H133435   6.602   5.600  16.604 -1.0531 -0.6169 -0.1776
 3080TIP3    H233436   6.470   5.602  16.678 -0.7114  0.7417  0.4217
 3081TIP3   OH233437   4.423   6.419  17.305  0.6372  0.0834  0.1254
 3081TIP3    H133438   4.343   6.435  17.256 -0.2469 -3.5865  0.0356
 3081TIP3    H233439   4.407   6.458  17.391 -1.4360 -0.8130  0.2033
 3082TIP3   OH233440   1.781   5.548  17.872  0.0794 -0.4117  0.5118
 3082TIP3    H133441   1.704   5.598  17.845  0.8905  1.4255  1.4259
 3082TIP3    H233442   1.854   5.608  17.859  1.2271 -1.6922  0.8057
 3083TIP3   OH233443   3.609   0.604  18.008  0.4461  0.5130 -0.6442
 3083TIP3    H133444   3.533   0.662  18.002  0.5519  0.6416 -0.7703
 3083TIP3    H233445   3.577   0.525  18.052  0.9461  1.7962  2.2817
 3084TIP3   OH233446   4.406   3.617  19.307 -0.4395  0.4515 -0.0085
 3084TIP3    H133447   4.480   3.586  19.360 -1.6365 -0.6039  1.1116
 3084TIP3    H233448   4.392   3.707  19.335 -1.4050 -0.2475  1.9886
 3085TIP3   OH233449   2.896   1.355  17.736 -0.1568 -0.0698  0.0790
 3085TIP3    H133450   2.981   1.323  17.705 -0.8220 -0.3194 -1.5672
 3085TIP3    H233451   2.864   1.285  17.793  0.1326 -0.5934 -0.3936
 3086TIP3   OH233452   6.908   7.280  18.302 -0.1626 -0.0578  0.1567
 3086TIP3    H133453   6.870   7.358  18.343 -0.5486  0.3799 -1.0122
 3086TIP3    H233454   6.876   7.207  18.355  0.2386  0.5664  1.2952
 3087TIP3   OH233455   4.657   6.834  17.371 -0.5290 -0.6474  0.2535
 3087TIP3    H133456   4.663   6.929  17.358  0.6082 -0.9103 -1.3387
 3087TIP3    H233457   4.711   6.817  17.448 -0.3795 -0.0577  0.2821
 3088TIP3   OH233458   6.927   1.414  18.261 -0.5343 -0.6401 -0.2069
 3088TIP3    H133459   6.834   1.417  18.281 -0.7303 -1.4408 -0.9324
 3088TIP3    H233460   6.969   1.396  18.345 -1.1991 -2.1982 -0.1742
 3089TIP3   OH233461   4.347   4.021  17.385  0.2317  1.1902  0.1947
 3089TIP3    H133462   4.429   4.036  17.431 -0.3970 -0.9033  2.2253
 3089TIP3    H233463   4.366   3.948  17.325 -0.2434  0.2108  1.1882
 3090TIP3   OH233464   0.350   0.169  18.756  0.5210  0.1282 -0.2524
 3090TIP3    H133465   0.331   0.260  18.732 -1.6607 -0.3702 -0.6599
 3090TIP3    H233466   0.370   0.173  18.849 -0.0778  0.9694 -0.1442
 3091TIP3   OH233467   6.999   0.723  19.468 -0.0701  0.0360 -0.2688
 3091TIP3    H133468   6.952   0.680  19.397  0.6945 -0.3194 -0.5723
 3091TIP3    H233469   7.010   0.655  19.534 -1.1535  0.4788  0.3891
 3092TIP3   OH233470   0.968   4.954  18.038  0.4923 -0.4780 -0.5348
 3092TIP3    H133471   1.050   4.912  18.013 -0.2182 -1.6015 -1.0228
 3092TIP3    H233472   0.922   4.967  17.955  0.2572  0.3480 -0.2844
 3093TIP3   OH233473   6.791   2.541  17.653 -0.3902  0.2621  0.4169
 3093TIP3    H133474   6.845   2.619  17.636 -0.7064  0.3074 -0.4160
 3093TIP3    H233475   6.771   2.546  17.746  1.4632 -0.0275  0.8680
 3094TIP3   OH233476   2.901   3.396  18.061 -0.6936  0.1692 -0.0658
 3094TIP3    H133477   2.941   3.482  18.074 -0.9606  0.1810  0.7655
 3094TIP3    H233478   2.881   3.393  17.968  2.1397 -0.2372 -0.7778
 3095TIP3   OH233479   3.265   7.601  16.828  0.4245 -0.6400 -0.2354
 3095TIP3    H133480   3.183   7.642  16.857  0.5453 -0.8495  0.4193
 3095TIP3    H233481   3.245   7.567  16.741  0.0726  0.0687 -0.4421
 3096TIP3   OH233482   1.401   6.664  16.523 -0.2308  0.3666 -0.2312
 3096TIP3    H133483   1.476   6.669  16.464  1.3309 -1.1840  1.4818
 3096TIP3    H233484   1.345   6.596  16.487 -0.0379  0.4512 -0.6903
 3097TIP3   OH233485   6.792   2.136  17.684  0.2504 -0.1384  0.3657
 3097TIP3    H133486   6.751   2.111  17.767 -0.8114 -0.3521 -0.2002
 3097TIP3    H233487   6.808   2.053  17.639  0.2454  0.0035  0.1000
 3098TIP3   OH233488   5.862   6.221  17.349  0.1502  0.1133 -0.1142
 3098TIP3    H133489   5.905   6.211  17.264  0.9213 -0.1443  0.2874
 3098TIP3    H233490   5.825   6.135  17.367 -2.9881  0.9948 -1.6849
 3099TIP3   OH233491   0.217   5.622  18.120 -0.3833  0.5643  0.0218
 3099TIP3    H133492   0.126   5.642  18.139 -0.4557 -0.8768  1.3870
 3099TIP3    H233493   0.267   5.668  18.187 -0.3522 -1.0373  1.1700
 3100TIP3   OH233494   1.733   4.528  18.071  0.3133 -0.3229  1.2519
 3100TIP3    H133495   1.675   4.456  18.097  0.1978 -1.5220 -1.9408
 3100TIP3    H233496   1.674   4.602  18.057  0.0768 -0.3900  1.8600
 3101TIP3   OH233497   4.890   0.143  16.838 -0.0963  0.2410  0.5795
 3101TIP3    H133498   4.802   0.106  16.839 -0.4029  0.9363  0.4326
 3101TIP3    H233499   4.917   0.139  16.746 -0.3086  0.7637  0.4873
 3102TIP3   OH233500   1.244   3.871  16.557 -0.0153  0.1278 -0.0138
 3102TIP3    H133501   1.165   3.910  16.518  0.4018 -0.6310 -1.6607
 3102TIP3    H233502   1.211   3.824  16.633 -1.0523  0.4297 -0.2491
 3103TIP3   OH233503   3.046   3.637  18.077  0.2418 -0.4310  0.1632
 3103TIP3    H133504   3.099   3.629  17.998 -0.6809 -1.7147 -0.3641
 3103TIP3    H233505   3.002   3.722  18.068 -1.7018 -1.5530 -1.9521
 3104TIP3   OH233506   4.953   1.641  19.068 -0.0321  0.2295 -0.1361
 3104TIP3    H133507   4.870   1.673  19.104 -1.2842 -2.8506  0.0385
 3104TIP3    H233508   4.937   1.548  19.052  3.1053 -0.2431 -1.0661
 3105TIP3   OH233509   1.402   7.151  18.590 -1.2378 -0.1411 -0.4919
 3105TIP3    H133510   1.393   7.210  18.516  0.8964 -1.1368 -1.6475
 3105TIP3    H233511   1.411   7.208  18.666  2.0727  1.1719 -1.7151
 3106TIP3   OH233512   7.108   4.805  16.850 -0.0360  0.6188 -0.3877
 3106TIP3    H133513   7.163   4.883  16.843  0.5094  0.3440  0.5736
 3106TIP3    H233514   7.157   4.737  16.805  1.5972 -0.1934  2.3570
 3107TIP3   OH233515   5.386   4.582  18.027 -0.5292  0.1866 -0.0788
 3107TIP3    H133516   5.367   4.514  17.962  3.1931 -0.9505 -0.2286
 3107TIP3    H233517   5.329   4.562  18.101 -3.0595 -0.0031 -1.9286
 3108TIP3   OH233518   1.474   6.568  19.373 -0.0136 -0.1446  0.0437
 3108TIP3    H133519   1.560   6.554  19.333 -1.0736  1.2060 -3.0462
 3108TIP3    H233520   1.490   6.629  19.445  1.7933 -1.2612  0.6483
 3109TIP3   OH233521   3.395   6.417  19.242  0.0366  0.3198 -0.1646
 3109TIP3    H133522   3.349   6.487  19.196 -1.2494  0.4717  1.3100
 3109TIP3    H233523   3.340   6.340  19.229  0.9944 -0.2558 -1.0187
 3110TIP3   OH233524   4.486   1.125  16.792 -0.4605  0.1752  0.0826
 3110TIP3    H133525   4.482   1.048  16.849  1.7259 -1.3251 -1.5992
 3110TIP3    H233526   4.457   1.093  16.707  1.3367  0.9078 -0.8717
 3111TIP3   OH233527   7.315   0.141  18.167 -0.0427  1.0182  0.0604
 3111TIP3    H133528   7.268   0.197  18.230 -0.6525  1.4652 -0.7811
 3111TIP3    H233529   7.407   0.152  18.191  0.1270  4.2341 -1.4363
 3112TIP3   OH233530   7.367   1.393  18.647  0.2786 -0.5562  0.4111
 3112TIP3    H133531   7.272   1.392  18.654  0.2943 -0.1203  0.7257
 3112TIP3    H233532   7.393   1.476  18.686  0.7476 -0.3846 -0.2640
 3113TIP3   OH233533   4.845   5.226  17.298 -0.5773 -0.2400 -0.0927
 3113TIP3    H133534   4.814   5.288  17.232 -0.9876 -2.0235 -1.6612
 3113TIP3    H233535   4.798   5.144  17.279  2.7337 -2.2150 -0.6799
 3114TIP3   OH233536   4.106   2.931  18.671  0.6957  0.0866  0.1805
 3114TIP3    H133537   4.179   2.947  18.611  0.7861 -0.3735  0.1586
 3114TIP3    H233538   4.122   2.990  18.744  1.8821 -0.9732  0.8345
 3115TIP3   OH233539   4.876   5.550  17.988 -0.3297 -0.4001 -0.4997
 3115TIP3    H133540   4.840   5.533  17.901  0.1844 -1.0589 -0.5911
 3115TIP3    H233541   4.943   5.618  17.973 -2.9020  2.4761 -0.0244
 3116TIP3   OH233542   5.179   0.869  18.855 -0.0007 -0.1577  0.4788
 3116TIP3    H133543   5.136   0.905  18.933 -1.2587  1.0894 -0.7333
 3116TIP3    H233544   5.124   0.795  18.830 -1.5736  1.4104 -1.0447
 3117TIP3   OH233545   4.570   2.247  18.973 -0.3915  0.4480 -0.0506
 3117TIP3    H133546   4.604   2.162  19.001 -0.6718  0.9390  1.9174
 3117TIP3    H233547   4.551   2.236  18.880 -1.1657 -1.8938  0.3280
 3118TIP3   OH233548   3.896   4.479  17.377 -0.0626 -0.1596 -0.7543
 3118TIP3    H133549   3.966   4.421  17.348 -0.0297  0.8751 -2.8880
 3118TIP3    H233550   3.824   4.464  17.315 -1.4467 -0.5617  0.8692
 3119TIP3   OH233551   0.140   4.315  19.461 -0.3067  0.1914  0.1123
 3119TIP3    H133552   0.220   4.366  19.464 -0.9933  1.7427 -3.4088
 3119TIP3    H233553   0.070   4.380  19.453 -1.6994 -1.1922  0.5167
 3120TIP3   OH233554   1.330   3.504  17.631  0.0666  0.1958 -0.0133
 3120TIP3    H133555   1.263   3.439  17.609  0.1711 -0.3996  1.3616
 3120TIP3    H233556   1.382   3.463  17.699  1.5344  0.8522 -0.6877
 3121TIP3   OH233557   1.559   3.318  18.212  0.0323  0.4634 -0.1721
 3121TIP3    H133558   1.639   3.348  18.169  0.2513  0.6721  0.3679
 3121TIP3    H233559   1.582   3.233  18.248  0.2204  0.8023  0.5369
 3122TIP3   OH233560   5.640   0.905  19.772 -0.1131 -0.1324 -0.0940
 3122TIP3    H133561   5.728   0.869  19.764 -1.0039 -2.1442 -2.2338
 3122TIP3    H233562   5.635   0.939  19.861  2.9822  0.6094 -0.1084
 3123TIP3   OH233563   2.110   5.504  18.719 -0.0323  0.4153  0.3011
 3123TIP3    H133564   2.079   5.452  18.794  0.6255 -1.7913 -0.8466
 3123TIP3    H233565   2.082   5.593  18.738 -2.7873 -0.5972  1.6323
 3124TIP3   OH233566   5.845   5.904  17.757  0.7675  0.1385 -0.3466
 3124TIP3    H133567   5.880   5.821  17.790 -0.6509  0.0360  1.0412
 3124TIP3    H233568   5.764   5.916  17.806 -1.0118  0.4979 -3.1724
 3125TIP3   OH233569   2.489   2.128  17.649  0.5129  0.1076  0.1205
 3125TIP3    H133570   2.567   2.094  17.692 -0.2255 -1.5102  0.2751
 3125TIP3    H233571   2.416   2.083  17.693 -0.3861 -0.0303 -1.4194
 3126TIP3   OH233572   4.168   7.472  17.112 -0.1221 -0.0953  0.0197
 3126TIP3    H133573   4.197   7.501  17.026  0.5818  0.4579  0.4352
 3126TIP3    H233574   4.114   7.394  17.095 -0.0279  0.0435 -0.9153
 3127TIP3   OH233575   3.138   0.203  17.431 -0.2581  0.2491 -0.5635
 3127TIP3    H133576   3.085   0.172  17.505  0.5465 -0.4123 -0.2523
 3127TIP3    H233577   3.116   0.144  17.360 -1.6028  1.3411 -1.1124
 3128TIP3   OH233578   1.541   3.640  17.780 -0.7606 -0.6901  0.7721
 3128TIP3    H133579   1.524   3.550  17.750 -0.4131 -0.3300 -0.5527
 3128TIP3    H233580   1.636   3.646  17.782 -0.7495  0.1264 -0.7223
 3129TIP3   OH233581   6.239   5.354  19.467 -0.5972 -0.5360  0.0869
 3129TIP3    H133582   6.178   5.416  19.508  0.6475  0.0951  1.0704
 3129TIP3    H233583   6.190   5.316  19.394 -1.8388  0.6476  0.2693
 3130TIP3   OH233584   0.482   4.804  17.543 -0.0697 -0.3283 -0.0860
 3130TIP3    H133585   0.557   4.750  17.570  0.0923 -0.3330 -0.5454
 3130TIP3    H233586   0.410   4.741  17.537 -0.3809 -0.1604  1.3954
 3131TIP3   OH233587   2.799   0.763  18.841 -0.2136  0.0035 -0.1787
 3131TIP3    H133588   2.888   0.751  18.809  0.1358  3.7766 -1.0554
 3131TIP3    H233589   2.744   0.724  18.773  0.7289 -0.3734 -0.7483
 3132TIP3   OH233590   2.223   2.781  18.157  0.2618  0.0654  0.3094
 3132TIP3    H133591   2.208   2.779  18.063  1.4878  0.3485  0.0959
 3132TIP3    H233592   2.169   2.853  18.189  0.9028  0.8563 -0.3755
 3133TIP3   OH233593   5.408   5.410  19.514 -0.6184 -0.2216 -0.6893
 3133TIP3    H133594   5.399   5.420  19.420  0.1118  2.1294 -0.5904
 3133TIP3    H233595   5.470   5.338  19.525 -1.1946 -0.9466 -1.9526
 3134TIP3   OH233596   0.279   5.092  19.760 -0.1472 -0.2229 -0.1548
 3134TIP3    H133597   0.257   5.005  19.726  1.6556 -1.3419  1.3633
 3134TIP3    H233598   0.326   5.135  19.689 -1.0092 -0.4766 -0.8975
 3135TIP3   OH233599   3.506   4.375  18.624  0.0109  0.0844  0.4981
 3135TIP3    H133600   3.457   4.304  18.584  1.0284  0.3054 -1.2352
 3135TIP3    H233601   3.442   4.420  18.680 -0.7208 -1.9700  1.4272
 3136TIP3   OH233602   1.839   2.806  17.018 -0.1808  0.5652  0.6788
 3136TIP3    H133603   1.898   2.742  16.978 -0.9570  1.2172 -1.6229
 3136TIP3    H233604   1.897   2.876  17.048  0.3225  0.8274 -0.8209
 3137TIP3   OH233605   2.651   5.174  18.481  0.4639 -0.0268 -0.2501
 3137TIP3    H133606   2.589   5.167  18.553 -0.2807 -1.8022 -1.0125
 3137TIP3    H233607   2.609   5.232  18.417  0.6818  0.7169  0.2618
 3138TIP3   OH233608   2.482   4.865  17.926  0.1769 -0.0349 -0.4277
 3138TIP3    H133609   2.576   4.866  17.908  0.2463  1.4104 -0.1072
 3138TIP3    H233610   2.441   4.894  17.845  0.3065  3.4503  0.6218
 3139TIP3   OH233611   1.064   0.281  16.992 -0.4879  0.1468  0.7606
 3139TIP3    H133612   1.008   0.205  16.979 -0.3899 -0.2604  2.5312
 3139TIP3    H233613   1.029   0.324  17.069  1.2535  0.2196  1.5630
 3140TIP3   OH233614   2.267   6.771  19.455  0.0103  0.6423 -0.1851
 3140TIP3    H133615   2.308   6.825  19.523 -0.1682 -1.6783  1.8947
 3140TIP3    H233616   2.340   6.732  19.408  0.1470  0.7744 -0.0847
 3141TIP3   OH233617   7.032   0.498  18.173 -0.3039  0.2777 -0.5898
 3141TIP3    H133618   7.099   0.437  18.143  1.3163  1.3251  0.7294
 3141TIP3    H233619   7.024   0.562  18.102  1.3892  1.1104 -0.0762
 3142TIP3   OH233620   0.030   5.466  18.458 -0.4875 -0.1604  0.2448
 3142TIP3    H133621   0.089   5.434  18.526 -1.4897  0.7025  1.5784
 3142TIP3    H233622   0.007   5.388  18.407 -1.2898 -1.2501  2.1533
 3143TIP3   OH233623   7.698   3.977  18.241  0.4336 -0.8343  0.2593
 3143TIP3    H133624   7.720   3.893  18.202  0.8454 -1.7009  2.2557
 3143TIP3    H233625   7.724   3.969  18.333 -1.4496  0.7162  1.0056
 3144TIP3   OH233626   0.106   3.836  17.504  0.6306 -0.2513  0.0431
 3144TIP3    H133627   0.097   3.788  17.587 -0.4660 -0.8840 -0.4146
 3144TIP3    H233628   0.055   3.784  17.442 -0.4996  1.4475 -0.5145
 3145TIP3   OH233629   0.121   0.452  19.402 -0.8958 -0.1636 -0.2683
 3145TIP3    H133630   0.140   0.458  19.308 -2.7498  3.0006 -0.5677
 3145TIP3    H233631   0.050   0.388  19.409 -0.7176 -0.4468 -1.0032
 3146TIP3   OH233632   4.634   7.633  17.414 -0.4072 -0.0976 -0.1178
 3146TIP3    H133633   4.716   7.583  17.409 -0.4031 -0.2541  1.1845
 3146TIP3    H233634   4.589   7.613  17.332 -0.3108 -2.1148  0.2623
 3147TIP3   OH233635   0.296   1.105  16.979  0.3177 -0.4023  0.6763
 3147TIP3    H133636   0.212   1.148  16.961  0.0818  0.1456  2.8548
 3147TIP3    H233637   0.308   1.046  16.904 -0.3050  1.9604 -1.4543
 3148TIP3   OH233638   7.292   4.861  19.396 -0.1077 -0.1092  0.3994
 3148TIP3    H133639   7.236   4.937  19.412 -0.5066 -0.3363  0.1099
 3148TIP3    H233640   7.231   4.789  19.380  0.2045  0.0710 -2.0587
 3149TIP3   OH233641   0.427   2.725  18.846  0.3770  0.0042 -0.1629
 3149TIP3    H133642   0.419   2.669  18.923 -1.4691 -0.2888 -0.5224
 3149TIP3    H233643   0.511   2.770  18.858  2.3667 -3.3433 -0.2308
 3150TIP3   OH233644   5.733   1.088  19.067  0.5058 -0.6125  0.2084
 3150TIP3    H133645   5.728   1.022  18.999 -2.5398 -0.7183  0.3629
 3150TIP3    H233646   5.793   1.052  19.132  0.3358 -2.3858 -0.5576
 3151TIP3   OH233647   2.394   3.317  17.790  0.0949 -0.1080 -0.4708
 3151TIP3    H133648   2.479   3.279  17.814 -0.1273  1.3206  3.2643
 3151TIP3    H233649   2.415   3.380  17.721  2.1476  0.4335  0.5759
 3152TIP3   OH233650   6.768   0.966  18.100  0.0157  0.3155 -0.3991
 3152TIP3    H133651   6.863   0.960  18.091 -0.1229 -1.1249 -1.0655
 3152TIP3    H233652   6.741   0.883  18.138 -0.9750  0.7324 -0.1472
 3153TIP3   OH233653   2.281   1.108  16.772  0.0086 -0.4031  0.0474
 3153TIP3    H133654   2.297   1.017  16.797  3.4566 -1.2966 -4.1074
 3153TIP3    H233655   2.360   1.155  16.801 -0.4376  0.6256 -0.3567
 3154TIP3   OH233656   7.645   2.272  18.932  0.1127  0.1048  0.1884
 3154TIP3    H133657   7.561   2.302  18.898  0.2925  0.2501 -0.1297
 3154TIP3    H233658   7.643   2.177  18.920  0.3247  0.1933 -0.5657
 3155TIP3   OH233659   5.263   2.971  17.182 -0.2462 -0.1535 -0.2278
 3155TIP3    H133660   5.271   3.066  17.184  2.0164 -0.2811 -0.1971
 3155TIP3    H233661   5.253   2.950  17.089 -0.6775  0.0953 -0.2400
 3156TIP3   OH233662   2.381   5.489  17.864 -0.1367 -0.9629  1.0337
 3156TIP3    H133663   2.420   5.409  17.829  2.0534  0.3158  0.3490
 3156TIP3    H233664   2.450   5.530  17.915 -0.4365  1.4848 -0.3196
 3157TIP3   OH233665   5.162   3.049  18.242  0.2258  0.1934 -0.1253
 3157TIP3    H133666   5.201   3.110  18.305  1.7949 -0.9551  0.0826
 3157TIP3    H233667   5.213   3.062  18.162 -1.8052  1.7000 -1.2594
 3158TIP3   OH233668   6.061   2.492  17.698  0.3300  0.0751 -0.1980
 3158TIP3    H133669   6.054   2.586  17.688 -0.7464  0.2114  1.3655
 3158TIP3    H233670   5.971   2.460  17.690  0.6439 -0.7819 -0.4348
 3159TIP3   OH233671   3.624   0.347  16.863 -0.1790  0.1017  0.0925
 3159TIP3    H133672   3.632   0.264  16.816  0.8473 -0.1283  0.6296
 3159TIP3    H233673   3.674   0.409  16.809 -0.5717  0.2633 -0.0828
 3160TIP3   OH233674   7.201   5.088  18.062  0.6333 -0.1302  0.7724
 3160TIP3    H133675   7.280   5.069  18.011  1.7127  0.2720  2.2053
 3160TIP3    H233676   7.215   5.176  18.098 -0.1652 -0.3037  1.5711
 3161TIP3   OH233677   3.615   7.396  18.623  0.5981  0.7067  0.7091
 3161TIP3    H133678   3.577   7.366  18.541 -0.1531  0.5858  1.0915
 3161TIP3    H233679   3.663   7.475  18.600 -0.3843  1.1962  0.3133
 3162TIP3   OH233680   2.379   1.077  17.599  0.2343 -0.3768 -0.0176
 3162TIP3    H133681   2.365   1.117  17.513 -3.5749 -0.0562  0.5469
 3162TIP3    H233682   2.383   1.152  17.659  0.0551 -0.6412  0.3277
 3163TIP3   OH233683   6.320   2.169  18.257 -0.4160  0.1075 -0.2446
 3163TIP3    H133684   6.373   2.206  18.327  0.0127 -0.1559 -0.4262
 3163TIP3    H233685   6.241   2.223  18.255 -0.3443  0.2333  0.3111
 3164TIP3   OH233686   4.839   0.935  19.272 -0.1901  0.0869 -0.3773
 3164TIP3    H133687   4.852   0.897  19.359 -0.6557 -0.3128 -0.4819
 3164TIP3    H233688   4.747   0.959  19.269 -0.0886  0.4614 -0.6220
 3165TIP3   OH233689   1.464   0.465  19.176 -0.0786  0.2619 -0.2648
 3165TIP3    H133690   1.475   0.555  19.144  2.0731  0.1987  0.1677
 3165TIP3    H233691   1.447   0.414  19.097  0.0924  0.8509 -0.6917
 3166TIP3   OH233692   0.549   4.562  18.468  0.5732 -0.3361  0.3354
 3166TIP3    H133693   0.602   4.597  18.396  0.9132 -0.0862  0.7035
 3166TIP3    H233694   0.596   4.484  18.497 -0.2858 -1.2427 -0.6165
 3167TIP3   OH233695   2.544   4.696  17.596 -0.1358  0.4874 -0.3216
 3167TIP3    H133696   2.596   4.717  17.673 -0.7055  2.3612 -0.3966
 3167TIP3    H233697   2.457   4.675  17.631  0.0516 -0.3468 -0.3496
 3168TIP3   OH233698   2.051   5.823  18.431 -0.1974 -0.2147  0.4115
 3168TIP3    H133699   2.023   5.914  18.416 -4.7567 -1.4728 -0.3313
 3168TIP3    H233700   2.050   5.813  18.526  0.4869  0.4880  0.5073
 3169TIP3   OH233701   4.692   4.207  17.066  0.0150  0.0275  0.1778
 3169TIP3    H133702   4.668   4.200  16.974 -2.3599 -1.1083  0.8093
 3169TIP3    H233703   4.734   4.123  17.086  1.1686  0.5472 -0.0154
 3170TIP3   OH233704   6.043   7.165  18.043  0.9523 -0.1580 -0.5249
 3170TIP3    H133705   5.988   7.143  17.968 -1.5928  0.2551  1.1129
 3170TIP3    H233706   6.010   7.111  18.115  2.2548  0.5952  0.6957
 3171TIP3   OH233707   0.496   1.263  17.098  0.4160 -0.9453 -0.6634
 3171TIP3    H133708   0.428   1.206  17.061  0.4473  0.4841 -3.1698
 3171TIP3    H233709   0.543   1.207  17.160 -2.9274 -2.0112  1.1233
 3172TIP3   OH233710   4.270   0.280  18.507 -0.3694  0.1427  0.0747
 3172TIP3    H133711   4.187   0.317  18.477  1.3334  1.6959 -3.3486
 3172TIP3    H233712   4.297   0.220  18.437  1.2922 -0.4544  1.1568
 3173TIP3   OH233713   4.599   3.047  18.601 -0.0553  0.4152 -0.2228
 3173TIP3    H133714   4.509   3.014  18.599 -0.1378  0.3759  1.7118
 3173TIP3    H233715   4.603   3.112  18.531 -1.7906  0.8920  0.0722
 3174TIP3   OH233716   3.571   2.035  18.131 -0.6350  0.0447  0.0195
 3174TIP3    H133717   3.592   2.015  18.222  3.1113  2.7011 -0.0278
 3174TIP3    H233718   3.498   2.097  18.136 -1.0924 -0.5665  1.1249
 3175TIP3   OH233719   5.369   3.400  17.384 -0.2456  0.2252 -0.0101
 3175TIP3    H133720   5.290   3.365  17.342 -1.0816 -0.2222  1.8244
 3175TIP3    H233721   5.441   3.371  17.328 -1.3918  1.4146 -2.2400
 3176TIP3   OH233722   6.455   7.424  17.307  0.0644  0.4969 -0.1973
 3176TIP3    H133723   6.395   7.467  17.246 -0.7744 -0.2777  0.0618
 3176TIP3    H233724   6.448   7.331  17.285 -0.9256  0.1021  1.6444
 3177TIP3   OH233725   5.370   5.950  17.346 -0.0450 -0.0589 -0.3422
 3177TIP3    H133726   5.319   5.922  17.422 -0.0757 -0.7684 -0.6198
 3177TIP3    H233727   5.455   5.907  17.357  0.3088  0.6646 -0.1788
 3178TIP3   OH233728   2.656   2.055  18.956 -0.2917 -0.1175 -0.2034
 3178TIP3    H133729   2.562   2.043  18.943 -0.3270 -0.3827  0.2678
 3178TIP3    H233730   2.664   2.144  18.990 -0.8812 -1.5222  4.3080
 3179TIP3   OH233731   0.231   6.368  18.173 -0.0507 -0.3055  0.3856
 3179TIP3    H133732   0.323   6.386  18.152 -0.6492  0.3158 -2.1043
 3179TIP3    H233733   0.217   6.278  18.144 -0.3867 -0.1485  0.0452
 3180TIP3   OH233734   1.544   1.509  18.731 -0.5452 -0.0046  0.1908
 3180TIP3    H133735   1.606   1.564  18.683 -1.1571  0.4180 -0.1376
 3180TIP3    H233736   1.519   1.441  18.668 -1.7803  0.8752 -0.3216
 3181TIP3   OH233737   0.822   0.049  19.089  0.3844 -0.2789 -0.0926
 3181TIP3    H133738   0.802  -0.032  19.137 -0.4566  1.0250  1.9086
 3181TIP3    H233739   0.918   0.055  19.091  0.4858 -1.4585 -0.7168
 3182TIP3   OH233740   6.116   4.303  16.879 -0.2131 -0.1688  0.1300
 3182TIP3    H133741   6.155   4.218  16.902 -1.3879 -0.0592  2.8516
 3182TIP3    H233742   6.190   4.364  16.879  0.3028 -0.7783  0.5683
 3183TIP3   OH233743   3.501   1.142  18.810 -0.6607 -0.8615  0.1120
 3183TIP3    H133744   3.488   1.152  18.716 -0.2491 -0.9155  0.0499
 3183TIP3    H233745   3.473   1.226  18.847 -0.1001 -0.5573 -0.1313
 3184TIP3   OH233746   1.451   2.250  16.744  0.1621  0.0476  0.4887
 3184TIP3    H133747   1.378   2.212  16.793 -0.7415  2.5256  1.1911
 3184TIP3    H233748   1.471   2.184  16.677 -0.7020 -2.0161  2.1344
 3185TIP3   OH233749   2.689   3.072  18.409 -0.2481  0.5088  0.0649
 3185TIP3    H133750   2.703   3.006  18.342  0.2412 -0.3416  0.9789
 3185TIP3    H233751   2.746   3.145  18.384  0.6315 -0.1744  0.0602
 3186TIP3   OH233752   1.868   4.844  18.904 -0.0847 -0.1018 -0.3647
 3186TIP3    H133753   1.900   4.862  18.816  0.1391 -0.0552 -0.2757
 3186TIP3    H233754   1.828   4.926  18.932  0.6449  0.1698 -0.0836
 3187TIP3   OH233755   4.560   2.470  19.252  0.0345 -0.0152  0.0451
 3187TIP3    H133756   4.642   2.451  19.298 -0.5282 -1.2364  0.5712
 3187TIP3    H233757   4.493   2.422  19.301 -0.6955 -0.7522 -1.6124
 3188TIP3   OH233758   1.383   0.091  17.836  0.6857 -0.3483  0.1915
 3188TIP3    H133759   1.374   0.164  17.773 -0.2067 -0.1482  0.5310
 3188TIP3    H233760   1.419   0.132  17.914  1.2419 -0.4879  0.0126
 3189TIP3   OH233761   1.105   6.084  17.843  0.0246  0.2430  0.0832
 3189TIP3    H133762   1.060   6.168  17.835  0.6374  0.5263 -0.4036
 3189TIP3    H233763   1.126   6.077  17.936 -0.3465  0.4618  0.1853
 3190TIP3   OH233764   5.401   3.871  17.604 -0.7525 -0.2742 -0.7409
 3190TIP3    H133765   5.317   3.825  17.610 -0.3077 -1.0203  0.1083
 3190TIP3    H233766   5.466   3.801  17.599 -0.0232  0.2350  0.9684
 3191TIP3   OH233767   6.794   1.710  17.305  0.0573  0.0081  0.4004
 3191TIP3    H133768   6.755   1.699  17.219  0.3265 -0.3040  0.3166
 3191TIP3    H233769   6.761   1.794  17.336  0.2377  0.2884 -0.1536
 3192TIP3   OH233770   2.916   3.638  17.406 -0.7127  0.8593 -0.1153
 3192TIP3    H133771   2.963   3.658  17.487  0.4996 -1.0718 -0.2902
 3192TIP3    H233772   2.982   3.599  17.349 -1.8500  0.9871 -1.5716
 3193TIP3   OH233773   3.762   0.979  17.971 -0.5473 -0.3161 -0.4768
 3193TIP3    H133774   3.690   1.042  17.970 -0.7617 -0.5505  0.1292
 3193TIP3    H233775   3.829   1.019  18.026 -1.2144 -1.1876  1.0259
 3194TIP3   OH233776   0.992   0.248  17.923  0.1810  0.1349 -0.5114
 3194TIP3    H133777   1.004   0.173  17.864  0.8421 -0.0980 -0.1025
 3194TIP3    H233778   1.081   0.283  17.935  0.2129 -0.4112  1.0899
 3195TIP3   OH233779   5.502   2.920  17.337  0.0578  0.0766  0.5999
 3195TIP3    H133780   5.475   2.994  17.392  3.0590  1.9927 -0.2972
 3195TIP3    H233781   5.461   2.938  17.252  1.4089  1.2469  0.1495
 3196TIP3   OH233782   1.801   4.158  17.609  0.3688  0.1158  0.8359
 3196TIP3    H133783   1.758   4.155  17.694  1.2396  0.7564  1.3222
 3196TIP3    H233784   1.870   4.092  17.614  0.3638  0.0878  0.5853
 3197TIP3   OH233785   0.140   1.103  18.383  0.0287  0.9327  0.0444
 3197TIP3    H133786   0.097   1.061  18.458  1.6442  1.2759  1.2237
 3197TIP3    H233787   0.176   1.184  18.419  3.5547 -0.3208 -0.2052
 3198TIP3   OH233788   4.433   2.684  17.529 -0.5093 -0.8251  0.5027
 3198TIP3    H133789   4.528   2.676  17.532 -0.2549  0.5320 -1.4557
 3198TIP3    H233790   4.414   2.765  17.576 -0.6512 -0.8867  0.5532
 3199TIP3   OH233791   1.101   2.128  18.978  0.3948 -0.6908 -0.4956
 3199TIP3    H133792   1.180   2.159  18.933  0.3427  0.2143  0.0001
 3199TIP3    H233793   1.125   2.043  19.014  1.4214 -0.0643  0.3432
 3200TIP3   OH233794   0.975   4.268  17.605  0.2955  0.0198 -0.1206
 3200TIP3    H133795   0.969   4.350  17.555  1.4443 -0.6853 -1.4762
 3200TIP3    H233796   0.951   4.200  17.542  1.0337 -0.8389  0.5102
 3201TIP3   OH233797   7.595   6.163  18.974  0.2299  0.1233 -0.5304
 3201TIP3    H133798   7.680   6.206  18.984  0.3294 -0.4301  1.4074
 3201TIP3    H233799   7.560   6.159  19.063 -1.2357 -0.8608 -1.1145
 3202TIP3   OH233800   3.868   0.959  18.788 -0.7658  0.0364  0.4708
 3202TIP3    H133801   3.855   1.029  18.852 -1.7132 -0.3469  0.7102
 3202TIP3    H233802   3.794   0.967  18.727 -0.3065 -0.1003 -0.1229
 3203TIP3   OH233803   7.630   2.460  18.673  0.4223  0.4071 -0.5527
 3203TIP3    H133804   7.698   2.445  18.606 -0.1374  2.6745 -1.7246
 3203TIP3    H233805   7.551   2.423  18.635  0.2976  0.8749 -0.7590
 3204TIP3   OH233806   0.103   3.334  19.019  0.1417  0.0660 -0.1555
 3204TIP3    H133807   0.010   3.352  19.024  0.0051 -0.2772 -1.3707
 3204TIP3    H233808   0.113   3.247  19.058 -0.0101  0.1750  0.1330
 3205TIP3   OH233809   5.463   0.812  19.590 -0.6846 -0.1334 -0.2391
 3205TIP3    H133810   5.535   0.811  19.528  0.7551 -4.3112  1.1684
 3205TIP3    H233811   5.492   0.870  19.661 -0.0212  0.4501 -0.9752
 3206TIP3   OH233812   7.079   2.067  18.157 -0.2876 -0.1289  0.0289
 3206TIP3    H133813   7.115   2.153  18.137  1.0217 -0.7576 -0.4445
 3206TIP3    H233814   7.131   2.037  18.232 -1.2079 -0.2383  0.6480
 3207TIP3   OH233815   7.642   7.380  19.240 -0.9624 -0.5472 -0.0851
 3207TIP3    H133816   7.547   7.372  19.231 -1.0713 -0.5605  0.9830
 3207TIP3    H233817   7.660   7.353  19.330  0.1271 -1.1572 -0.4647
 3208TIP3   OH233818   1.623   1.490  17.628  0.0172 -0.0642 -0.0641
 3208TIP3    H133819   1.539   1.531  17.650  0.1172  0.0473  0.1157
 3208TIP3    H233820   1.623   1.408  17.677  0.5234  0.4914  0.8926
 3209TIP3   OH233821   0.294   5.042  17.580  0.1912 -0.3312 -0.3710
 3209TIP3    H133822   0.357   4.970  17.572  0.2259 -0.6755  2.0914
 3209TIP3    H233823   0.339   5.118  17.543  1.4568 -0.9095 -0.0795
 3210TIP3   OH233824   4.758   1.623  19.284  0.1927  0.2355 -0.1876
 3210TIP3    H133825   4.776   1.535  19.250 -0.0013  0.5948 -1.2765
 3210TIP3    H233826   4.829   1.640  19.346  1.9033  0.4050 -2.0687
 3211TIP3   OH233827   4.996   5.078  18.239 -0.1915  0.3432  0.4297
 3211TIP3    H133828   4.904   5.077  18.214  0.0100  1.4339 -0.4687
 3211TIP3    H233829   5.023   5.169  18.228  0.7864  0.2020  1.4823
 3212TIP3   OH233830   1.719   6.240  19.597 -0.0941 -0.0936 -0.1737
 3212TIP3    H133831   1.646   6.182  19.577  0.7534 -1.3161  0.2000
 3212TIP3    H233832   1.681   6.307  19.654 -1.3588  0.4720 -1.6103
 3213TIP3   OH233833   5.936   4.635  17.738 -0.2313 -0.0457  0.0239
 3213TIP3    H133834   5.997   4.707  17.756 -0.4215 -0.2683  1.7774
 3213TIP3    H233835   5.990   4.567  17.698  0.3948  0.2885  0.2890
 3214TIP3   OH233836   6.302   5.727  17.853 -0.3249  0.6242  0.0102
 3214TIP3    H133837   6.340   5.641  17.870  0.2943  0.6228 -1.2441
 3214TIP3    H233838   6.218   5.708  17.812 -0.3219  0.6149  0.0082
 3215TIP3   OH233839   4.767   3.505  17.832 -0.7307  0.1802  0.4041
 3215TIP3    H133840   4.679   3.473  17.815 -0.2673 -0.9184 -0.0081
 3215TIP3    H233841   4.785   3.567  17.761 -1.2135  0.5100  0.5676
 3216TIP3   OH233842   7.434   2.018  18.594 -0.2876  0.0277  0.2200
 3216TIP3    H133843   7.350   2.045  18.630 -0.5821 -0.1943 -0.2953
 3216TIP3    H233844   7.412   1.950  18.530  0.2930 -0.1321  0.1874
 3217TIP3   OH233845   4.522   1.505  18.052  0.0156 -0.1082 -0.0147
 3217TIP3    H133846   4.591   1.560  18.087  0.0576  0.7291 -1.3304
 3217TIP3    H233847   4.447   1.519  18.110  0.0452  1.3144 -0.2980
 3218TIP3   OH233848   2.483   3.273  18.407  0.0054 -0.8608 -0.2805
 3218TIP3    H133849   2.459   3.287  18.499  0.3294  1.1093 -0.4606
 3218TIP3    H233850   2.550   3.205  18.410  0.4326 -0.4141  0.9955
 3219TIP3   OH233851   3.818   3.810  18.339 -0.2241  0.0841 -0.0405
 3219TIP3    H133852   3.898   3.859  18.319 -0.5931  0.0432 -1.8321
 3219TIP3    H233853   3.838   3.721  18.309 -0.3542 -0.3258  1.0752
 3220TIP3   OH233854   6.180   0.992  17.691  0.2024 -0.0964  0.2247
 3220TIP3    H133855   6.271   1.021  17.689  0.0124  0.5306  0.3473
 3220TIP3    H233856   6.185   0.897  17.696  0.8392 -0.1705 -1.4179
 3221TIP3   OH233857   0.739   2.152  16.652  0.0403  0.8431 -0.1662
 3221TIP3    H133858   0.660   2.145  16.598  0.2553 -0.9801 -0.3058
 3221TIP3    H233859   0.734   2.240  16.690 -2.4343  0.5571  0.3833
 3222TIP3   OH233860   2.547   2.841  19.476  0.2380  0.7673  0.1104
 3222TIP3    H133861   2.454   2.838  19.497 -0.3527 -2.2016 -2.2255
 3222TIP3    H233862   2.585   2.766  19.523  1.1496  1.0347 -0.1637
 3223TIP3   OH233863   7.462   0.564  18.347 -0.6231 -0.4045  0.1986
 3223TIP3    H133864   7.412   0.504  18.292 -0.0884 -0.7386  0.0690
 3223TIP3    H233865   7.403   0.639  18.360 -1.5111 -1.1818  0.8134
 3224TIP3   OH233866   5.133   3.863  17.578 -0.1719 -0.0383 -0.7164
 3224TIP3    H133867   5.098   3.945  17.612 -1.4151 -0.6426 -0.4902
 3224TIP3    H233868   5.152   3.881  17.486 -0.8038  0.3932 -0.7674
 3225TIP3   OH233869   6.180   5.955  19.178 -0.2925 -0.3791  0.3399
 3225TIP3    H133870   6.175   5.947  19.083  0.3232 -0.2400  0.2924
 3225TIP3    H233871   6.154   5.868  19.211  1.4640 -1.0752 -0.0194
 3226TIP3   OH233872   0.237   3.605  17.248 -0.5988  0.2393 -0.3386
 3226TIP3    H133873   0.183   3.526  17.246 -0.1561 -0.0525 -1.1433
 3226TIP3    H233874   0.188   3.670  17.197 -0.2264 -0.0126 -1.0320
 3227TIP3   OH233875   5.167   3.721  18.464  0.0491 -0.2539 -0.0188
 3227TIP3    H133876   5.139   3.672  18.542 -1.6854 -0.7900 -0.9227
 3227TIP3    H233877   5.167   3.813  18.492 -1.7245 -0.3209  0.3410
 3228TIP3   OH233878   3.703   2.330  17.544 -0.0715  0.6840  0.1581
 3228TIP3    H133879   3.694   2.342  17.450 -0.8591 -0.6662  0.0357
 3228TIP3    H233880   3.742   2.243  17.553 -1.0498  0.3164  1.0935
 3229TIP3   OH233881   5.130   2.877  17.929  0.6038  0.2230 -0.2320
 3229TIP3    H133882   5.129   2.825  18.009  0.0707  1.2385  0.4408
 3229TIP3    H233883   5.222   2.875  17.900  1.0659  0.8775  1.1120
 3230TIP3   OH233884   2.012   7.147  18.274  0.3113 -0.4275 -0.5100
 3230TIP3    H133885   1.958   7.147  18.195 -1.1009 -1.4560  0.4030
 3230TIP3    H233886   2.043   7.057  18.283  1.3713 -0.0725 -0.4706
 3231TIP3   OH233887   4.233   2.130  18.205 -0.0421  0.0264  0.2221
 3231TIP3    H133888   4.219   2.122  18.111  0.0652  1.2406  0.0830
 3231TIP3    H233889   4.294   2.060  18.227  1.3474  0.8064 -0.9581
 3232TIP3   OH233890   1.272   3.205  18.295 -0.2813 -0.4095 -0.2649
 3232TIP3    H133891   1.216   3.128  18.305  0.4674 -1.2418 -2.0226
 3232TIP3    H233892   1.359   3.169  18.279  0.7428  0.8569  2.0161
 3233TIP3   OH233893   3.766   6.972  18.256  0.1215 -0.4312 -0.3055
 3233TIP3    H133894   3.690   7.011  18.300  1.2714  0.0034  1.3595
 3233TIP3    H233895   3.776   7.023  18.176 -1.2105 -0.3743 -0.4628
 3234TIP3   OH233896   3.244   4.242  19.420  0.1252 -0.6036 -0.4083
 3234TIP3    H133897   3.298   4.245  19.341  0.8583 -0.7114  0.0768
 3234TIP3    H233898   3.168   4.190  19.395  0.9166 -1.6460 -0.7205
 3235TIP3   OH233899   2.634   3.819  18.385  0.4898  0.2238 -0.3671
 3235TIP3    H133900   2.579   3.820  18.306 -0.5190 -1.6471  0.2630
 3235TIP3    H233901   2.715   3.861  18.357 -0.4986  1.2832 -1.8773
 3236TIP3   OH233902   1.648   7.064  18.227  0.4985 -0.6246 -0.0483
 3236TIP3    H133903   1.627   7.150  18.189 -0.0239  0.0114  1.5756
 3236TIP3    H233904   1.594   7.002  18.178 -0.2135  0.1695 -0.2950
 3237TIP3   OH233905   1.045   3.275  17.694 -0.3332 -0.4683 -0.3511
 3237TIP3    H133906   0.970   3.334  17.702  0.8553  1.0001  0.5870
 3237TIP3    H233907   1.041   3.222  17.774  0.7948  1.1180  0.8324
 3238TIP3   OH233908   5.955   5.681  17.870 -0.2185 -0.1095  0.0556
 3238TIP3    H133909   5.869   5.657  17.904  0.0332  0.2312  0.9312
 3238TIP3    H233910   6.016   5.661  17.941  0.5308 -1.0295 -0.8062
 3239TIP3   OH233911   4.392   0.944  18.866 -0.9088  0.7220 -0.4007
 3239TIP3    H133912   4.408   1.006  18.795 -2.2856  1.6757  0.0723
 3239TIP3    H233913   4.299   0.955  18.886 -1.0942 -1.1975  0.0065
 3240TIP3   OH233914   3.530   7.539  17.784 -0.4202 -0.1361 -0.1352
 3240TIP3    H133915   3.438   7.539  17.757 -0.5848 -1.4818  0.3417
 3240TIP3    H233916   3.579   7.539  17.702 -0.8493  0.1411 -0.3967
 3241TIP3   OH233917   5.143   0.055  19.140  0.1327  0.1349 -0.1639
 3241TIP3    H133918   5.068   0.078  19.085 -1.4646 -0.3920  1.6513
 3241TIP3    H233919   5.149   0.126  19.203  0.1514 -0.5738  0.6518
 3242TIP3   OH233920   0.387   5.990  19.207  0.6481 -0.3535  0.0206
 3242TIP3    H133921   0.433   6.073  19.196  0.1221 -0.0554  0.0439
 3242TIP3    H233922   0.378   5.979  19.302 -0.8244  0.4369 -0.0002
 3243TIP3   OH233923   2.815   6.966  18.905 -0.2323  0.1265  0.1875
 3243TIP3    H133924   2.809   7.001  18.994  2.9375  0.5599  0.3519
 3243TIP3    H233925   2.867   6.886  18.914 -2.6128 -1.6836 -0.9424
 3244TIP3   OH233926   1.698   5.715  17.537  0.0086 -0.0462 -0.3759
 3244TIP3    H133927   1.690   5.800  17.494 -1.3504 -0.1407 -0.3578
 3244TIP3    H233928   1.683   5.651  17.466 -0.5594 -0.2348 -0.0916
 3245TIP3   OH233929   1.879   3.108  18.218  0.1676  0.1474 -0.2340
 3245TIP3    H133930   1.855   3.049  18.147 -0.0558  1.2505 -1.1068
 3245TIP3    H233931   1.964   3.078  18.248 -0.3571 -1.1892 -0.0046
 3246TIP3   OH233932   6.151   6.737  16.798  0.1779 -0.4486 -0.2649
 3246TIP3    H133933   6.081   6.690  16.843 -0.3391  1.8296  1.4874
 3246TIP3    H233934   6.232   6.703  16.837  0.2788 -3.6432 -2.8276
 3247TIP3   OH233935   6.849   7.631  18.662 -0.7066  0.2565  0.2820
 3247TIP3    H133936   6.937   7.645  18.697 -0.2050 -1.6209 -0.1447
 3247TIP3    H233937   6.861   7.628  18.567 -1.1124 -0.6332  0.2470
 3248TIP3   OH233938   4.289   1.625  18.489 -0.3284 -0.2623  0.4082
 3248TIP3    H133939   4.196   1.642  18.501 -0.1421  0.3880  1.0068
 3248TIP3    H233940   4.331   1.666  18.565  0.4353 -0.6249  0.1918
 3249TIP3   OH233941   1.727   7.046  19.409 -0.0486 -0.0925 -0.3977
 3249TIP3    H133942   1.813   7.057  19.450 -0.4267 -1.6091  0.9222
 3249TIP3    H233943   1.743   7.061  19.316  1.7882 -0.9085 -0.2666
 3250TIP3   OH233944   0.493   2.810  17.700 -0.0131 -0.3577 -0.4415
 3250TIP3    H133945   0.534   2.846  17.621 -2.4287  0.2764 -1.5083
 3250TIP3    H233946   0.540   2.851  17.772  1.1656  0.3496 -1.5675
 3251TIP3   OH233947   3.178   4.664  16.733 -0.3741  0.2940 -0.0377
 3251TIP3    H133948   3.218   4.578  16.749 -1.6775 -0.4566 -0.5639
 3251TIP3    H233949   3.192   4.680  16.640 -3.3877 -1.2127 -0.8832
 3252TIP3   OH233950   2.909   6.068  18.517 -0.0836  0.2132 -0.3095
 3252TIP3    H133951   2.996   6.046  18.483 -0.5365  0.5549 -1.7793
 3252TIP3    H233952   2.887   6.151  18.475 -0.5631  0.8435  1.1306
 3253TIP3   OH233953   0.080   5.577  18.767 -0.3530  0.1227 -0.4842
 3253TIP3    H133954   0.152   5.596  18.706  1.0102 -4.4809 -0.6577
 3253TIP3    H233955   0.058   5.486  18.750 -2.5860 -0.2454  3.3521
 3254TIP3   OH233956   4.498   1.304  19.002 -0.8867  0.1004 -0.2038
 3254TIP3    H133957   4.438   1.343  19.065  1.3840  1.2350  1.4180
 3254TIP3    H233958   4.519   1.218  19.039 -2.2670 -0.7697 -1.3368
 3255TIP3   OH233959   4.628   4.479  18.170  0.4798 -0.1936 -0.1520
 3255TIP3    H133960   4.596   4.410  18.228 -1.5997 -0.3370 -1.3879
 3255TIP3    H233961   4.624   4.441  18.083 -2.0537  1.8678 -1.0477
 3256TIP3   OH233962   3.377   6.096  17.144 -0.1421 -0.1754  0.1987
 3256TIP3    H133963   3.310   6.032  17.121 -1.7753  1.3384  0.4636
 3256TIP3    H233964   3.407   6.069  17.231 -1.8119  0.1257  0.9243
 3257TIP3   OH233965   1.561   0.437  17.804 -0.0043  0.1256 -0.3026
 3257TIP3    H133966   1.630   0.503  17.804 -1.2222  1.4815 -0.9947
 3257TIP3    H233967   1.547   0.416  17.896 -0.5225  1.9202  0.0673
 3258TIP3   OH233968   4.402   4.545  18.303 -0.0046 -0.3880  0.5308
 3258TIP3    H133969   4.469   4.575  18.242 -0.0853  1.2379  1.1818
 3258TIP3    H233970   4.340   4.618  18.308 -1.3309 -1.4798  0.6671
 3259TIP3   OH233971   3.521   5.078  18.646 -0.3027 -0.1264 -0.3327
 3259TIP3    H133972   3.569   5.014  18.594 -0.6541 -1.4441  0.8838
 3259TIP3    H233973   3.574   5.090  18.724  0.7661  2.6525 -1.3827
 3260TIP3   OH233974   0.560   0.857  16.925 -0.3082 -0.0615  0.0726
 3260TIP3    H133975   0.605   0.930  16.968 -1.7733  0.2080  1.2518
 3260TIP3    H233976   0.506   0.898  16.858  0.4738 -0.2857 -0.6995
 3261TIP3   OH233977   7.166   3.257  16.858 -0.1924 -0.0678  0.2988
 3261TIP3    H133978   7.114   3.335  16.841 -2.3972 -1.4010  0.5179
 3261TIP3    H233979   7.141   3.230  16.946 -0.4962 -1.7467 -0.2723
 3262TIP3   OH233980   5.588   6.231  19.068  0.1703 -0.1977  0.4000
 3262TIP3    H133981   5.652   6.189  19.127  0.8640  0.1595 -0.0856
 3262TIP3    H233982   5.639   6.298  19.023 -0.1846 -0.9081 -1.0993
 3263TIP3   OH233983   2.519   1.523  17.271 -0.6472 -0.1945 -0.4135
 3263TIP3    H133984   2.513   1.507  17.177 -0.5454  2.2071 -0.9044
 3263TIP3    H233985   2.572   1.451  17.305 -0.0694 -0.7134 -2.3016
 3264TIP3   OH233986   6.720   0.719  16.947  0.0184 -0.2117  0.0932
 3264TIP3    H133987   6.815   0.727  16.934  0.1335  0.8426  1.3494
 3264TIP3    H233988   6.694   0.803  16.984 -1.4691 -0.3923 -0.4864
 3265TIP3   OH233989   0.543   2.835  18.615  0.3083  0.6906  0.1121
 3265TIP3    H133990   0.481   2.806  18.548 -0.7700  1.5561  0.6890
 3265TIP3    H233991   0.493   2.831  18.697  1.4356  0.1696  0.7997
 3266TIP3   OH233992   7.286   6.788  17.183  0.4896 -0.1997  0.6872
 3266TIP3    H133993   7.248   6.799  17.096  1.4550  1.5832  0.4437
 3266TIP3    H233994   7.241   6.712  17.220  0.0307 -0.9671 -1.3399
 3267TIP3   OH233995   3.864   6.848  17.065 -0.1730 -0.1647 -0.0885
 3267TIP3    H133996   3.808   6.925  17.057 -1.1572 -0.9692 -1.2692
 3267TIP3    H233997   3.814   6.788  17.121 -0.2406 -0.6599 -0.6745
 3268TIP3   OH233998   3.823   4.169  17.847  0.2949 -0.3607  0.2158
 3268TIP3    H133999   3.798   4.166  17.939  0.6973 -0.6201  0.3189
 3268TIP3    H234000   3.822   4.262  17.824 -2.5101 -0.4244 -0.2755
 3269TIP3   OH234001   2.672   1.520  17.030  0.0416 -0.3879 -0.5774
 3269TIP3    H134002   2.760   1.484  17.039 -0.1130 -0.6510 -0.0734
 3269TIP3    H234003   2.685   1.605  16.987  0.6577  0.0687  0.4742
 3270TIP3   OH234004   0.665   3.268  17.716 -0.0896  0.2758 -0.5458
 3270TIP3    H134005   0.672   3.241  17.625 -1.3060  2.0968 -1.2378
 3270TIP3    H234006   0.721   3.346  17.722  1.0623 -0.5893  0.6500
 3271TIP3   OH234007   5.895   6.915  16.471 -0.8061  0.2490  0.2805
 3271TIP3    H134008   5.970   6.855  16.471  0.1783  1.4275 -0.2168
 3271TIP3    H234009   5.823   6.863  16.435 -0.0504 -0.6902  0.0617
 3272TIP3   OH234010   7.090   4.539  17.755  0.0134  0.5101 -0.6474
 3272TIP3    H134011   7.024   4.470  17.762 -0.6032  1.2206  1.5264
 3272TIP3    H234012   7.148   4.510  17.684 -0.2539 -2.2169  0.1185
 3273TIP3   OH234013   0.548   1.639  18.881 -0.0435  0.5116 -0.1767
 3273TIP3    H134014   0.598   1.565  18.847  2.4626  3.3953 -3.6000
 3273TIP3    H234015   0.490   1.664  18.809 -1.2080  1.5810  1.0683
 3274TIP3   OH234016   5.922   0.893  17.716  0.0869 -0.1648 -0.1366
 3274TIP3    H134017   5.875   0.918  17.637 -0.4882 -0.1425  0.1998
 3274TIP3    H234018   6.014   0.902  17.694 -0.0749  1.6112 -0.2537
 3275TIP3   OH234019   4.336   2.910  17.648 -0.3691 -0.3550  0.0221
 3275TIP3    H134020   4.423   2.948  17.653 -0.5938  0.2755 -0.6302
 3275TIP3    H234021   4.277   2.982  17.673 -0.8076 -0.1843 -1.3823
 3276TIP3   OH234022   0.711   4.357  18.578 -0.5654  0.0841  0.3507
 3276TIP3    H134023   0.806   4.361  18.594 -0.4101 -0.2250 -0.4654
 3276TIP3    H234024   0.674   4.340  18.664  0.1699 -0.3819  0.5936
 3277TIP3   OH234025   1.903   3.749  17.211  0.0583 -0.3143  0.0427
 3277TIP3    H134026   1.975   3.689  17.233  1.0241  1.0126  0.6993
 3277TIP3    H234027   1.903   3.752  17.115 -0.3234 -1.6989 -0.0202
 3278TIP3   OH234028   6.830   3.236  19.209  0.0098  0.4059 -0.1520
 3278TIP3    H134029   6.809   3.211  19.299  1.3927  0.6247  0.2623
 3278TIP3    H234030   6.915   3.280  19.216  0.6537 -0.5148 -1.7092
 3279TIP3   OH234031   4.876   0.499  19.521  0.8173  0.1886 -0.0374
 3279TIP3    H134032   4.840   0.456  19.444  0.0242  1.7058 -0.5563
 3279TIP3    H234033   4.849   0.444  19.594  0.3210 -0.4952 -0.7208
 3280TIP3   OH234034   1.019   4.912  18.724 -0.1568  0.1085 -1.0021
 3280TIP3    H134035   1.054   4.966  18.654 -0.8235  1.4592 -0.3502
 3280TIP3    H234036   1.064   4.943  18.803 -0.0843 -0.7478 -0.6987
 3281TIP3   OH234037   0.551   2.150  17.905  0.2487 -0.7860  0.6399
 3281TIP3    H134038   0.574   2.166  17.814 -1.2830  0.3647  0.4119
 3281TIP3    H234039   0.630   2.173  17.954  0.2917  1.0914 -0.2327
 3282TIP3   OH234040   2.456   6.874  17.675 -0.1580 -0.2790 -0.2796
 3282TIP3    H134041   2.506   6.894  17.754  2.2374  0.9633 -1.9975
 3282TIP3    H234042   2.482   6.941  17.612 -1.8605 -1.3127 -2.2002
 3283TIP3   OH234043   6.930   2.992  17.649 -0.1877  0.2654 -0.4990
 3283TIP3    H134044   6.963   2.919  17.597  1.5873  0.6100  0.0502
 3283TIP3    H234045   6.901   2.952  17.731 -2.5604 -0.2189 -1.5111
 3284TIP3   OH234046   1.691   7.380  17.080  0.2370 -0.0349 -0.3467
 3284TIP3    H134047   1.728   7.333  17.155 -0.1141  0.8970  0.4332
 3284TIP3    H234048   1.655   7.311  17.024  1.0929 -0.7924  0.0096
 3285TIP3   OH234049   0.306   3.737  17.951 -0.5557 -0.1357 -0.4102
 3285TIP3    H134050   0.298   3.815  18.006 -0.0950 -2.9425  4.2022
 3285TIP3    H234051   0.399   3.728  17.934 -0.3659 -0.5119  0.6799
 3286TIP3   OH234052   6.500   0.973  18.538  0.1019 -0.0168  0.2385
 3286TIP3    H134053   6.580   0.972  18.486 -2.2144  0.6919 -3.8285
 3286TIP3    H234054   6.480   1.066  18.548 -0.4744 -0.1912  0.7401
 3287TIP3   OH234055   4.688   5.673  17.478 -0.2596 -0.2153  0.3047
 3287TIP3    H134056   4.678   5.745  17.417  0.7581 -0.0410  0.3274
 3287TIP3    H234057   4.629   5.605  17.445 -1.1803  0.5906  0.2498
 3288TIP3   OH234058   6.724   4.855  17.954 -0.1113  0.6288 -0.1965
 3288TIP3    H134059   6.785   4.840  17.882 -0.0913 -0.1845 -0.0173
 3288TIP3    H234060   6.768   4.920  18.010  0.6960 -0.1084  0.0449
 3289TIP3   OH234061   2.538   2.680  17.008  0.1789 -0.2188  0.2117
 3289TIP3    H134062   2.587   2.753  16.970 -0.4697 -0.1756 -0.5661
 3289TIP3    H234063   2.452   2.683  16.965 -0.1204 -0.9824  0.7213
 3290TIP3   OH234064   1.730   3.122  16.645  0.0066  0.3869  0.0345
 3290TIP3    H134065   1.643   3.110  16.606 -0.2703 -0.1481  0.7931
 3290TIP3    H234066   1.767   3.034  16.650  0.5842  0.6069 -0.2451
 3291TIP3   OH234067   2.444   3.440  18.922 -0.0433  0.5633 -0.0977
 3291TIP3    H134068   2.522   3.455  18.974  2.9298 -0.6342 -3.7450
 3291TIP3    H234069   2.440   3.514  18.861 -1.2843  0.1928 -0.5108
 3292TIP3   OH234070   6.704   0.127  18.935 -0.0962 -0.3435  0.6245
 3292TIP3    H134071   6.638   0.194  18.916  0.7652  0.4270  0.2982
 3292TIP3    H234072   6.747   0.111  18.851  1.2690  0.4097  1.1439
 3293TIP3   OH234073   0.120   1.348  19.229 -0.5589 -0.0071  0.1273
 3293TIP3    H134074   0.095   1.263  19.266  1.6873 -0.5040  0.6688
 3293TIP3    H234075   0.169   1.327  19.150 -0.7521  0.8234 -0.2258
 3294TIP3   OH234076   0.445   2.996  17.133 -0.0833 -0.1074  0.2013
 3294TIP3    H134077   0.455   2.911  17.177  0.0180 -1.3264 -2.0246
 3294TIP3    H234078   0.437   2.974  17.040 -2.6178  2.1788 -0.2468
 3295TIP3   OH234079   0.008   4.346  17.526  0.3012  0.0732 -0.7590
 3295TIP3    H134080   0.022   4.422  17.581 -0.0831 -0.9024  0.7347
 3295TIP3    H234081   0.058   4.276  17.569 -1.4591 -1.1465 -0.6125
 3296TIP3   OH234082   5.909   6.863  17.134 -0.6408  0.4104  0.2668
 3296TIP3    H134083   5.874   6.783  17.174 -2.9947  1.1151 -0.2292
 3296TIP3    H234084   5.939   6.915  17.208  0.6703 -0.7785  0.6158
 3297TIP3   OH234085   4.851   3.800  19.216 -0.3550 -0.0296 -0.1650
 3297TIP3    H134086   4.874   3.889  19.242 -0.7960  0.5318 -1.5772
 3297TIP3    H234087   4.784   3.773  19.278  0.5592  0.1942  0.9470
 3298TIP3   OH234088   3.248   4.708  19.107 -0.0778  0.2466 -0.4295
 3298TIP3    H134089   3.330   4.753  19.125  0.6376 -0.4679 -1.7837
 3298TIP3    H234090   3.207   4.759  19.036 -0.4968  0.2186 -0.2155
 3299TIP3   OH234091   4.868   2.162  17.750  0.3926 -0.7326  0.1059
 3299TIP3    H134092   4.772   2.164  17.755  0.2051  0.3367 -2.5432
 3299TIP3    H234093   4.894   2.252  17.772  0.8665 -1.1323  1.2664
 3300TIP3   OH234094   6.242   6.437  17.859  0.2052  0.0475 -0.1936
 3300TIP3    H134095   6.260   6.352  17.819  0.2894 -0.5442  1.0366
 3300TIP3    H234096   6.149   6.453  17.842  0.3891  0.1245 -1.1635
 3301TIP3   OH234097   6.362   3.758  17.961  0.1330  0.3153 -0.2621
 3301TIP3    H134098   6.369   3.670  17.997  0.3381  0.7773  0.8706
 3301TIP3    H234099   6.440   3.769  17.906  1.2968  0.5752  1.3842
 3302TIP3   OH234100   0.352   3.929  18.149  0.1065 -0.0913 -0.1205
 3302TIP3    H134101   0.431   3.952  18.101 -2.0988 -0.2784 -4.2689
 3302TIP3    H234102   0.372   3.845  18.190  1.9316 -0.2669 -1.2851
 3303TIP3   OH234103   5.184   0.703  18.424 -0.4490  0.1216  0.3083
 3303TIP3    H134104   5.179   0.782  18.369  2.3858  0.8644  0.9872
 3303TIP3    H234105   5.190   0.736  18.513 -1.6260 -0.9954  0.8420
 3304TIP3   OH234106   2.467   6.310  17.274 -0.0976  0.4973  0.2148
 3304TIP3    H134107   2.538   6.286  17.333 -0.2260 -2.8719 -0.7815
 3304TIP3    H234108   2.469   6.244  17.205 -3.4940  0.9126 -0.4902
 3305TIP3   OH234109   5.977   2.405  18.519 -0.0996  0.0015 -0.3143
 3305TIP3    H134110   5.959   2.497  18.499  1.0560  0.2413 -0.3233
 3305TIP3    H234111   6.001   2.367  18.435  2.1100  0.3705  0.0804
 3306TIP3   OH234112   2.581   3.042  17.184 -0.5134 -0.5768 -0.5021
 3306TIP3    H134113   2.646   3.104  17.152 -0.7519  0.2580  0.5832
 3306TIP3    H234114   2.629   2.985  17.244 -0.9254  0.5270  0.8976
 3307TIP3   OH234115   3.751   0.539  16.716 -0.3894 -0.5411  0.0220
 3307TIP3    H134116   3.817   0.562  16.650  0.3559 -3.1887 -0.2554
 3307TIP3    H234117   3.794   0.558  16.800 -0.3279  0.3071 -0.1925
 3308TIP3   OH234118   2.081   0.972  17.349 -0.1092 -0.1276 -0.2532
 3308TIP3    H134119   2.061   1.065  17.342  1.1542  0.2794  0.9966
 3308TIP3    H234120   2.095   0.944  17.259  0.7938  1.2160 -0.5693
 3309TIP3   OH234121   2.041   4.585  18.355  0.3468 -0.0921 -0.2674
 3309TIP3    H134122   1.958   4.547  18.383  0.3359 -1.2934 -1.8034
 3309TIP3    H234123   2.022   4.627  18.271  1.0001  0.8310  0.0277
 3310TIP3   OH234124   2.057   6.383  17.572 -0.3682  0.4952  0.0197
 3310TIP3    H134125   2.090   6.468  17.602  0.0534  0.1106  0.6989
 3310TIP3    H234126   2.117   6.357  17.503 -1.6956  1.6633 -1.6594
 3311TIP3   OH234127   1.708   0.554  18.600  0.3813 -0.2988  0.2300
 3311TIP3    H134128   1.625   0.509  18.614 -0.4387  1.3308  0.7801
 3311TIP3    H234129   1.747   0.561  18.687 -0.6311  2.0984  0.5637
 3312TIP3   OH234130   2.257   5.342  19.063  0.3959  0.2124 -0.3897
 3312TIP3    H134131   2.205   5.312  19.137 -1.3948 -1.5089 -2.2106
 3312TIP3    H234132   2.193   5.360  18.994  2.0217  1.0642 -1.7714
 3313TIP3   OH234133   6.610   5.923  16.829  0.2455  0.3974 -0.1194
 3313TIP3    H134134   6.603   5.831  16.802  1.3546  0.3256 -0.2268
 3313TIP3    H234135   6.685   5.924  16.889  0.5853  1.3144 -0.5414
 3314TIP3   OH234136   4.343   4.146  19.318  0.1715 -0.4323 -0.5033
 3314TIP3    H134137   4.435   4.124  19.300  0.1060 -0.9380 -0.2369
 3314TIP3    H234138   4.315   4.081  19.382 -0.1014  0.2780  0.1237
 3315TIP3   OH234139   4.023   4.023  19.096 -0.3107 -0.2458 -0.1533
 3315TIP3    H134140   4.100   4.075  19.119  0.8710 -1.7117 -0.6662
 3315TIP3    H234141   3.990   3.991  19.180 -0.4031  0.3992  0.0687
 3316TIP3   OH234142   5.315   5.346  19.251  0.5109 -0.1117 -0.0022
 3316TIP3    H134143   5.226   5.343  19.286  0.4811  1.8127  0.1712
 3316TIP3    H234144   5.314   5.417  19.187  1.6172 -0.8904 -0.9248
 3317TIP3   OH234145   4.440   4.837  18.099 -0.6125  0.2541  0.5109
 3317TIP3    H134146   4.501   4.863  18.030 -0.0233 -0.3550  0.7917
 3317TIP3    H234147   4.489   4.851  18.180 -0.3441 -1.5319  0.6784
 3318TIP3   OH234148   1.055   1.827  17.830  0.5431  0.5451  0.0399
 3318TIP3    H134149   1.053   1.812  17.735  1.1069  1.7229 -0.1720
 3318TIP3    H234150   1.140   1.794  17.858 -0.0053 -0.7024  0.3217
 3319TIP3   OH234151   0.523   0.420  19.022 -0.0543 -0.0712  0.3782
 3319TIP3    H134152   0.602   0.381  19.058  0.0520 -0.1093  0.1048
 3319TIP3    H234153   0.461   0.348  19.015 -0.1139 -0.0423  0.5872
 3320TIP3   OH234154   1.497   5.512  18.014  0.2936  0.7220  1.3227
 3320TIP3    H134155   1.519   5.556  17.931 -0.4390  1.8955  1.7294
 3320TIP3    H234156   1.427   5.451  17.991  2.2499 -1.3478  0.4774
 3321TIP3   OH234157   7.390   5.399  17.231  0.3806  0.2170 -0.2354
 3321TIP3    H134158   7.365   5.460  17.161  0.0169  0.1644 -0.1537
 3321TIP3    H234159   7.348   5.434  17.309 -1.1174 -0.9614 -0.4678
 3322TIP3   OH234160   4.468   7.539  17.202  0.4467  0.2027  0.3762
 3322TIP3    H134161   4.381   7.541  17.162  0.8340  1.3854 -0.4519
 3322TIP3    H234162   4.524   7.497  17.137  0.4231 -1.0508  1.1241
 3323TIP3   OH234163   5.707   5.669  17.998  0.8013  0.0782 -0.2169
 3323TIP3    H134164   5.698   5.623  18.082  0.6742 -1.4789 -1.0577
 3323TIP3    H234165   5.622   5.658  17.956  1.4142 -0.6673 -1.2881
 3324TIP3   OH234166   1.637   5.969  17.359 -0.4050 -0.2203  0.6255
 3324TIP3    H134167   1.578   6.045  17.361 -0.7225 -0.4306 -0.1955
 3324TIP3    H234168   1.702   5.991  17.292 -1.0625 -1.0695 -0.3131
 3325TIP3   OH234169   7.175   3.977  16.564  0.1393 -0.2545 -0.4363
 3325TIP3    H134170   7.136   3.928  16.491  0.8137 -1.8267  0.2122
 3325TIP3    H234171   7.131   3.943  16.642  0.1216  0.7136 -0.0119
 3326TIP3   OH234172   3.663   3.545  18.552 -0.0091 -0.0489  0.1113
 3326TIP3    H134173   3.740   3.521  18.603  0.2644  1.2821  0.3628
 3326TIP3    H234174   3.589   3.534  18.613 -0.0569 -1.3884 -0.1515
 3327TIP3   OH234175   0.731   4.860  18.895 -0.0205  0.1156 -0.1142
 3327TIP3    H134176   0.766   4.947  18.874 -1.5039  0.4533 -1.3372
 3327TIP3    H234177   0.696   4.827  18.813 -0.6778 -1.0942  0.6195
 3328TIP3   OH234178   3.059   7.589  18.381  0.2489  0.0368  0.0726
 3328TIP3    H134179   3.053   7.559  18.291  0.2490  1.1978 -0.3217
 3328TIP3    H234180   2.999   7.531  18.429 -0.4323 -0.0144 -0.8124
 3329TIP3   OH234181   5.381   2.745  19.444 -0.0230  1.1173  0.2575
 3329TIP3    H134182   5.456   2.788  19.402 -1.6917  1.4922 -2.6564
 3329TIP3    H234183   5.394   2.652  19.427  0.7854  0.9539  1.6328
 3330TIP3   OH234184   0.908   5.467  18.315 -0.2708 -0.0096 -0.3342
 3330TIP3    H134185   0.984   5.515  18.284 -0.6658  1.0306  0.2731
 3330TIP3    H234186   0.883   5.411  18.241 -2.1591  3.4860 -2.6089
 3331TIP3   OH234187   6.790   5.563  19.127  0.3255 -0.0662 -0.2450
 3331TIP3    H134188   6.856   5.503  19.162 -1.0864 -1.1422  0.6854
 3331TIP3    H234189   6.707   5.532  19.164 -0.8674  0.5505 -2.2534
 3332TIP3   OH234190   3.725   5.269  18.528  0.0431 -0.0166  0.3177
 3332TIP3    H134191   3.680   5.223  18.457  0.5679 -0.5939  0.3482
 3332TIP3    H234192   3.677   5.352  18.537 -1.2166 -0.7329  0.5593
 3333TIP3   OH234193   3.407   4.214  19.156 -0.6016  0.3009 -0.3280
 3333TIP3    H134194   3.351   4.291  19.142 -1.1942 -0.1197 -0.3111
 3333TIP3    H234195   3.403   4.166  19.074 -0.1277  0.3520 -0.3841
 3334TIP3   OH234196   1.719   1.662  19.196  0.4846 -0.1712 -0.3498
 3334TIP3    H134197   1.674   1.615  19.267 -0.4708  2.0599  0.6195
 3334TIP3    H234198   1.663   1.647  19.119 -0.9074  0.9244  0.3974
 3335TIP3   OH234199   2.407   5.744  17.266 -0.8069 -0.5961 -0.1706
 3335TIP3    H134200   2.477   5.679  17.251 -0.8312 -0.3560 -1.4997
 3335TIP3    H234201   2.452   5.820  17.301 -0.5878 -0.8739  0.1617
 3336TIP3   OH234202   2.743   2.069  16.888 -0.3424 -0.6571 -0.3500
 3336TIP3    H134203   2.748   2.111  16.803 -0.8414 -2.2190 -1.2004
 3336TIP3    H234204   2.652   2.080  16.915  0.1599  1.1946  0.7589
 3337TIP3   OH234205   1.272   6.393  17.311  0.1508 -0.2299 -0.2990
 3337TIP3    H134206   1.281   6.342  17.231 -1.3701  0.1915 -0.7778
 3337TIP3    H234207   1.246   6.481  17.281  1.1580  0.3926  0.5827
 3338TIP3   OH234208   0.155   0.887  19.373  0.5063 -0.0478 -0.0203
 3338TIP3    H134209   0.246   0.858  19.387  0.1694 -0.3796  1.6498
 3338TIP3    H234210   0.104   0.806  19.377  0.1433  0.0972 -1.2891
 3339TIP3   OH234211   6.919   5.035  17.384  0.0060  1.0082  0.3254
 3339TIP3    H134212   6.989   5.064  17.443 -0.1030  0.6965  0.6105
 3339TIP3    H234213   6.957   4.961  17.337 -0.6293 -0.1936  1.6028
 3340TIP3   OH234214   4.163   2.508  19.447  0.4756 -0.5766  0.2933
 3340TIP3    H134215   4.077   2.528  19.410 -0.5720 -0.3997  2.6412
 3340TIP3    H234216   4.204   2.593  19.461  0.5433 -0.6026  0.2551
 3341TIP3   OH234217  -0.041   0.664  19.343 -0.2311  0.6364  0.1077
 3341TIP3    H134218   0.002   0.583  19.373  1.3617  1.1830 -0.5849
 3341TIP3    H234219  -0.130   0.659  19.378  0.3823 -0.5807  1.5775
 3342TIP3   OH234220   2.623   3.017  17.621  0.1497  0.9474 -0.2169
 3342TIP3    H134221   2.619   3.113  17.622 -0.2984  0.9537 -1.0840
 3342TIP3    H234222   2.669   2.996  17.540  1.6949  0.4408  0.7498
 3343TIP3   OH234223   4.375   6.872  17.823 -0.2105 -0.3594  0.0680
 3343TIP3    H134224   4.302   6.909  17.872  0.4523 -0.3527  1.0770
 3343TIP3    H234225   4.362   6.778  17.827 -0.1018 -0.3643  0.3648
 3344TIP3   OH234226   2.348   1.408  18.089 -0.4662  0.2915  0.9347
 3344TIP3    H134227   2.309   1.343  18.147 -1.2531  0.3105  0.4411
 3344TIP3    H234228   2.413   1.452  18.143 -0.1567 -0.6782  1.3735
 3345TIP3   OH234229   4.426   5.716  19.447  0.1719  0.2403 -0.5269
 3345TIP3    H134230   4.398   5.626  19.463  0.8894  0.1099  0.0176
 3345TIP3    H234231   4.444   5.718  19.353 -1.3400  0.2507 -0.8455
 3346TIP3   OH234232   2.062   0.834  17.841  0.1086 -0.3139  0.3845
 3346TIP3    H134233   1.973   0.867  17.852  0.1238 -0.5853  1.3635
 3346TIP3    H234234   2.098   0.887  17.769 -1.0020 -0.5583 -0.3775
 3347TIP3   OH234235   1.647   0.710  16.945  0.0453 -0.0837 -0.4191
 3347TIP3    H134236   1.581   0.641  16.940  3.1633 -3.5256  1.5828
 3347TIP3    H234237   1.704   0.694  16.870  0.7567  0.3448  0.0163
 3348TIP3   OH234238   7.645   6.335  18.620  0.1051  0.5414  0.0883
 3348TIP3    H134239   7.724   6.316  18.670  0.0642  1.8482  0.6616
 3348TIP3    H234240   7.675   6.390  18.547  0.0134 -0.5634 -0.8192
 3349TIP3   OH234241   5.172   0.859  17.489  0.2140  0.3437 -0.1904
 3349TIP3    H134242   5.221   0.925  17.539 -0.2102 -1.0209  2.1645
 3349TIP3    H234243   5.230   0.837  17.416  1.0872  2.0748 -0.0677
 3350TIP3   OH234244   1.095   0.279  17.636  0.0795  0.1481  0.0163
 3350TIP3    H134245   1.183   0.290  17.672  0.8231  1.1028 -1.9466
 3350TIP3    H234246   1.064   0.196  17.672  2.9403 -1.7221 -1.5009
 3351TIP3   OH234247   2.192   6.310  17.344  0.2530  0.1082 -0.4675
 3351TIP3    H134248   2.281   6.340  17.327 -0.0132  0.2316 -1.7703
 3351TIP3    H234249   2.181   6.234  17.286 -0.0171 -0.7845  0.7212
 3352TIP3   OH234250   1.479   4.838  19.086  0.4170 -0.2695 -0.3539
 3352TIP3    H134251   1.396   4.803  19.053  0.0295  0.1107  0.1990
 3352TIP3    H234252   1.469   4.933  19.079  2.0029 -0.1713 -3.2093
 3353TIP3   OH234253   3.779   1.234  18.602  0.2726  0.5136 -0.1117
 3353TIP3    H134254   3.694   1.277  18.597  0.9334  1.7775 -1.3957
 3353TIP3    H234255   3.761   1.143  18.578 -0.7593  0.6828 -0.0228
 3354TIP3   OH234256   3.606   5.106  18.305  0.0093  0.4668 -0.2448
 3354TIP3    H134257   3.520   5.130  18.270 -0.3520 -0.6539 -0.1691
 3354TIP3    H234258   3.663   5.103  18.228  0.1083  1.6796 -0.2359
 3355TIP3   OH234259   2.935   2.873  18.740  0.6042  0.2095 -0.7522
 3355TIP3    H134260   3.005   2.812  18.766  0.2278 -0.4114 -1.1847
 3355TIP3    H234261   2.941   2.878  18.645  1.4793  1.8889 -0.6489
 3356TIP3   OH234262   7.366   2.834  18.513 -0.8458  0.0260 -0.0652
 3356TIP3    H134263   7.437   2.898  18.519  0.7936 -1.6072 -1.0600
 3356TIP3    H234264   7.296   2.870  18.568  1.0848  1.2721  1.6978
 3357TIP3   OH234265   2.286   6.903  18.077 -0.3010  0.3749  0.1561
 3357TIP3    H134266   2.359   6.862  18.031 -0.2328  2.2680 -1.5464
 3357TIP3    H234267   2.328   6.964  18.138 -0.4325  0.9032 -0.2735
 3358TIP3   OH234268   2.678   0.157  18.747 -0.1323 -0.1906  0.3990
 3358TIP3    H134269   2.627   0.132  18.670 -0.9308 -0.0019  0.8587
 3358TIP3    H234270   2.637   0.238  18.777 -0.3234 -0.6766  1.4747
 3359TIP3   OH234271   3.160   5.707  18.538  0.0653 -0.3573  0.3151
 3359TIP3    H134272   3.087   5.685  18.596  0.4375 -2.4704  0.0506
 3359TIP3    H234273   3.223   5.636  18.551  0.9707  0.1008 -1.3124
 3360TIP3   OH234274   3.575   6.500  17.521  0.0695  0.2014 -0.0434
 3360TIP3    H134275   3.594   6.593  17.536 -1.6661  0.7725 -1.0595
 3360TIP3    H234276   3.540   6.497  17.432 -0.6601 -1.3074  0.2631
 3361TIP3   OH234277   7.109   3.601  17.552 -0.2075  0.6541  0.0856
 3361TIP3    H134278   7.080   3.618  17.462  0.3426  2.7235  0.2410
 3361TIP3    H234279   7.178   3.536  17.543 -0.5996  0.3517 -0.9122
 3362TIP3   OH234280   2.601   7.189  19.260  0.3270  0.7573  0.1989
 3362TIP3    H134281   2.513   7.205  19.226  0.2995  0.3913  0.0909
 3362TIP3    H234282   2.587   7.157  19.349  0.3707  1.1135  0.3352
 3363TIP3   OH234283   1.140   5.793  17.975 -0.4287 -0.0625  0.0659
 3363TIP3    H134284   1.142   5.864  18.039  0.1811 -0.9166  1.0228
 3363TIP3    H234285   1.215   5.810  17.918 -1.3064  1.0176 -0.7985
 3364TIP3   OH234286   2.755   6.393  19.167 -0.7663  0.3737  0.2396
 3364TIP3    H134287   2.741   6.359  19.255  1.6471 -0.3590  0.4204
 3364TIP3    H234288   2.778   6.316  19.115 -1.4461  0.9034 -0.8911
 3365TIP3   OH234289   6.211   6.234  19.218 -0.2520 -0.1555  0.1512
 3365TIP3    H134290   6.174   6.276  19.140 -0.5847 -1.7113 -0.5695
 3365TIP3    H234291   6.202   6.140  19.201  1.9217 -0.5654  1.0082
 3366TIP3   OH234292   1.414   5.172  18.765 -0.0769  0.0459 -0.2252
 3366TIP3    H134293   1.329   5.205  18.794  0.9641  0.4195  2.7401
 3366TIP3    H234294   1.451   5.244  18.713 -0.8518  0.5642 -0.0739
 3367TIP3   OH234295   1.445   4.982  18.124 -0.0091  0.1112  1.0026
 3367TIP3    H134296   1.431   5.042  18.198 -0.6546 -0.2696  1.1914
 3367TIP3    H234297   1.457   5.040  18.049  0.8523  0.5135  1.4250
 3368TIP3   OH234298   4.944   5.031  17.941  0.2600 -0.0163 -0.0563
 3368TIP3    H134299   4.995   5.058  17.864  0.4251 -1.0177 -0.3188
 3368TIP3    H234300   5.008   4.987  17.997 -0.3413 -1.4898 -0.4880
 3369TIP3   OH234301   2.639   0.583  18.407 -0.2833 -0.1177 -0.1430
 3369TIP3    H134302   2.716   0.635  18.431 -0.6189  0.8145 -0.9889
 3369TIP3    H234303   2.670   0.526  18.336 -0.0722 -0.6134  0.3476
 3370TIP3   OH234304   6.344   2.195  16.334  0.0673 -0.5132 -0.4211
 3370TIP3    H134305   6.396   2.165  16.260  0.8266  0.1521 -0.1664
 3370TIP3    H234306   6.311   2.281  16.308  0.7496 -0.0555  0.2021
 3371TIP3   OH234307   7.635   4.844  17.875 -0.0044 -0.1890  0.2367
 3371TIP3    H134308   7.580   4.793  17.816 -0.0595  0.0788  0.0537
 3371TIP3    H234309   7.722   4.842  17.835  0.6551 -2.4475  1.6406
 3372TIP3   OH234310   1.320   2.194  18.825  0.3135  0.0285 -0.0475
 3372TIP3    H134311   1.382   2.226  18.890 -1.0322  2.0853  0.3074
 3372TIP3    H234312   1.337   2.247  18.747 -0.0036 -0.4271 -0.4318
 3373TIP3   OH234313   5.972   3.367  17.158 -0.0337  0.2362 -0.4521
 3373TIP3    H134314   6.059   3.373  17.119 -0.4262  1.2824 -1.2266
 3373TIP3    H234315   5.988   3.356  17.251  0.9244 -0.4295 -0.6784
 3374TIP3   OH234316   6.615   7.056  17.720 -0.4567  0.0224 -0.1630
 3374TIP3    H134317   6.613   7.146  17.754 -0.5076 -0.0665  0.0678
 3374TIP3    H234318   6.595   7.001  17.796  1.0556 -0.2757  0.0595
 3375TIP3   OH234319   1.833   3.789  18.848 -0.4299 -0.2998  0.1666
 3375TIP3    H134320   1.794   3.876  18.834  0.6114  0.2852  0.8205
 3375TIP3    H234321   1.768   3.728  18.812 -1.6583  0.6773  0.6376
 3376TIP3   OH234322   2.475   1.171  17.907 -0.0819 -0.3443 -0.0191
 3376TIP3    H134323   2.464   1.247  17.850  0.5398  0.8410  1.3787
 3376TIP3    H234324   2.410   1.183  17.976  2.3310  0.8853  2.1972
 3377TIP3   OH234325   2.078   3.256  18.767  0.5430  0.3671  0.0065
 3377TIP3    H134326   2.114   3.257  18.855  1.0874 -3.0262 -0.0379
 3377TIP3    H234327   2.145   3.212  18.714 -1.1077 -0.6043 -1.3794
 3378TIP3   OH234328   3.707   2.037  17.548 -0.5076 -0.3769 -0.0122
 3378TIP3    H134329   3.640   2.031  17.480 -0.1665  0.7250 -0.4719
 3378TIP3    H234330   3.764   1.961  17.532  0.2566  0.5055 -1.7385
 3379TIP3   OH234331   4.910   0.448  17.644 -0.5588 -0.4913  0.3604
 3379TIP3    H134332   4.962   0.428  17.567 -0.9640 -1.3304  0.2933
 3379TIP3    H234333   4.918   0.543  17.654  1.1052 -0.6158  0.4614
 3380TIP3   OH234334   0.728   1.320  18.479  0.2078  0.4004  0.2880
 3380TIP3    H134335   0.664   1.382  18.442  0.2761  0.6429  0.5730
 3380TIP3    H234336   0.758   1.362  18.560 -0.0334 -0.1823  0.6881
 3381TIP3   OH234337   7.218   4.028  18.540 -0.1469 -0.4288  0.1160
 3381TIP3    H134338   7.283   3.960  18.518  0.8631  0.4069  0.4383
 3381TIP3    H234339   7.231   4.043  18.634 -0.1893  0.3765 -0.0008
 3382TIP3   OH234340   5.983   4.537  19.635 -0.1370 -0.4480 -0.8331
 3382TIP3    H134341   6.079   4.532  19.641 -0.1051  0.5354 -0.1674
 3382TIP3    H234342   5.967   4.557  19.543  0.1952 -2.1348 -1.2890
 3383TIP3   OH234343   3.143   4.097  18.670  0.3753  0.4695  0.3625
 3383TIP3    H134344   3.115   4.152  18.743 -1.8704  0.8641 -0.7045
 3383TIP3    H234345   3.097   4.013  18.684  1.3912 -0.1004  0.3676
 3384TIP3   OH234346   0.053   0.700  17.475 -0.3125  0.2109  0.3332
 3384TIP3    H134347   0.042   0.790  17.506 -1.9969 -0.1790  0.9594
 3384TIP3    H234348   0.119   0.707  17.406 -0.4327  1.9204  0.3439
 3385TIP3   OH234349   1.183   0.708  18.002  0.5455  0.0561  0.3097
 3385TIP3    H134350   1.272   0.701  18.036  0.0969 -2.5627  1.1514
 3385TIP3    H234351   1.194   0.703  17.907  1.3631  1.3404  0.3104
 3386TIP3   OH234352   0.928   3.195  18.256  0.0190 -0.6921  0.2420
 3386TIP3    H134353   0.929   3.288  18.280 -0.1942 -0.4577 -0.6123
 3386TIP3    H234354   0.841   3.165  18.284 -0.6008 -0.1826 -1.0709
 3387TIP3   OH234355   3.750   7.078  16.918  0.5372  0.5324 -0.4310
 3387TIP3    H134356   3.688   7.095  16.847  0.1274 -0.7775 -0.4178
 3387TIP3    H234357   3.828   7.044  16.874 -0.1695 -1.5123 -0.2356
 3388TIP3   OH234358   2.163   4.768  19.045 -0.5279 -0.2518 -0.0541
 3388TIP3    H134359   2.232   4.748  19.108  0.7869  2.3352 -0.5487
 3388TIP3    H234360   2.103   4.694  19.052 -0.0325 -0.5139  3.6109
 3389TIP3   OH234361   0.762   3.942  18.277  0.3174 -0.3273 -0.6596
 3389TIP3    H134362   0.760   4.021  18.330 -2.2716 -1.0637  0.5031
 3389TIP3    H234363   0.708   3.963  18.200 -0.1312 -0.8414 -0.4958
 3390TIP3   OH234364   3.316   4.467  19.100  0.4735  0.6639  0.1025
 3390TIP3    H134365   3.409   4.477  19.080  0.8197 -0.8038  0.7919
 3390TIP3    H234366   3.284   4.556  19.112  1.9146  1.1792  0.3589
 3391TIP3   OH234367   0.666   1.336  19.290  0.1951  0.3427  0.1776
 3391TIP3    H134368   0.591   1.392  19.272 -1.2447 -1.9559 -1.6384
 3391TIP3    H234369   0.736   1.396  19.318 -1.9618  2.6693  0.8933
 3392TIP3   OH234370   3.776   6.865  17.923 -0.1591  0.4557 -0.5987
 3392TIP3    H134371   3.853   6.902  17.880 -0.2530  1.7893  0.3248
 3392TIP3    H234372   3.714   6.938  17.929 -0.5302  0.0525  0.8743
 3393TIP3   OH234373   0.945   2.530  18.455 -0.0673  0.0426 -0.3028
 3393TIP3    H134374   0.866   2.484  18.426 -0.9548  1.2526  0.1142
 3393TIP3    H234375   1.005   2.523  18.381 -0.9602 -0.0043 -1.0410
 3394TIP3   OH234376   1.514   7.235  17.717 -0.0168 -0.3173 -0.0734
 3394TIP3    H134377   1.510   7.212  17.624  0.1397 -0.2873 -0.0875
 3394TIP3    H234378   1.592   7.190  17.750 -0.7358 -1.2974  0.3221
 3395TIP3   OH234379   1.926   0.072  17.290  0.0119 -0.1055  0.0773
 3395TIP3    H134380   1.859   0.040  17.350  0.5144  0.4201  0.9497
 3395TIP3    H234381   1.906   0.030  17.206 -1.3052 -0.0797  0.3536
 3396TIP3   OH234382   5.944   4.069  19.120 -0.2718 -0.1786  0.2525
 3396TIP3    H134383   5.984   4.124  19.053 -0.6161 -1.1881 -0.8166
 3396TIP3    H234384   5.854   4.102  19.128 -1.0258 -1.5495 -1.6107
 3397TIP3   OH234385   0.578   0.446  18.758  0.1792  0.3293  0.5743
 3397TIP3    H134386   0.580   0.452  18.854  0.3063  0.0492  0.5896
 3397TIP3    H234387   0.488   0.472  18.735  0.1377  0.3642  0.7718
 3398TIP3   OH234388   4.126   2.536  18.619  0.3222  0.2368  0.3966
 3398TIP3    H134389   4.152   2.447  18.642 -0.2806  0.7250  3.2907
 3398TIP3    H234390   4.200   2.570  18.567 -0.0742 -2.3388 -2.1216
 3399TIP3   OH234391   2.587   6.893  18.458  0.3630 -0.0124 -0.0461
 3399TIP3    H134392   2.616   6.983  18.445 -0.4266  0.6213  2.2242
 3399TIP3    H234393   2.664   6.847  18.492  1.2443 -0.6763 -2.6981
 3400TIP3   OH234394   5.750   5.944  17.293 -0.7819 -0.8582  0.4535
 3400TIP3    H134395   5.703   5.890  17.357 -0.1666 -0.9919  0.8009
 3400TIP3    H234396   5.685   5.963  17.225 -1.3083 -1.1186  0.8773
 3401TIP3   OH234397   3.548   6.718  18.489  0.5565  0.0207  0.0302
 3401TIP3    H134398   3.576   6.654  18.423  2.9216  1.7138 -0.7399
 3401TIP3    H234399   3.470   6.758  18.451  0.6030 -0.5578 -0.7118
 3402TIP3   OH234400   6.933   7.595  18.360 -0.3904  1.0829 -0.1303
 3402TIP3    H134401   7.008   7.583  18.300  0.0680  0.2572  0.5829
 3402TIP3    H234402   6.857   7.572  18.307  0.1523 -1.3774  0.0676
 3403TIP3   OH234403   3.969   6.919  19.079 -0.3103  0.0104  0.2552
 3403TIP3    H134404   3.946   6.828  19.096  0.4516  0.1359  2.2748
 3403TIP3    H234405   3.952   6.932  18.985 -1.3368 -1.9114  0.1375
 3404TIP3   OH234406   4.974   2.721  19.419  0.0939  0.4259  0.5424
 3404TIP3    H134407   5.059   2.703  19.458  1.5970  1.4108 -2.0619
 3404TIP3    H234408   4.987   2.799  19.366 -2.3809  0.4655 -0.1475
 3405TIP3   OH234409   4.144   0.384  17.826  0.6911 -0.5164  0.8625
 3405TIP3    H134410   4.135   0.472  17.790 -0.4729 -0.9253  0.0733
 3405TIP3    H234411   4.069   0.375  17.886 -0.1937 -1.5265 -0.3394
 3406TIP3   OH234412   5.011   6.019  18.189 -0.3856  0.2065  0.3274
 3406TIP3    H134413   4.951   5.947  18.207  0.3808 -0.6288 -0.3823
 3406TIP3    H234414   5.096   5.977  18.177 -0.2722  0.9809 -2.1032
 3407TIP3   OH234415   5.828   4.643  19.351  0.2284  0.2454 -0.0645
 3407TIP3    H134416   5.864   4.565  19.310  0.2096  0.1106  0.1778
 3407TIP3    H234417   5.736   4.622  19.367  0.2636  0.2542  0.1554
 3408TIP3   OH234418   0.396   1.768  18.671  0.1782 -0.5088 -0.2964
 3408TIP3    H134419   0.305   1.747  18.691  0.1570  0.3367  0.5766
 3408TIP3    H234420   0.392   1.857  18.635  0.8688  0.5662  2.0961
 3409TIP3   OH234421   3.778   5.690  16.837  0.1827  0.1188  0.0707
 3409TIP3    H134422   3.739   5.733  16.760 -0.4013  0.8367  0.7550
 3409TIP3    H234423   3.714   5.624  16.862  1.1206 -1.2550 -1.0324
 3410TIP3   OH234424   4.525   4.842  18.690  0.8832 -0.0897 -0.8049
 3410TIP3    H134425   4.486   4.766  18.646  1.2104  0.6224 -2.3585
 3410TIP3    H234426   4.546   4.903  18.620  0.6685  1.4468  0.4145
 3411TIP3   OH234427   0.650   5.591  17.485 -0.1077 -0.5848  0.6846
 3411TIP3    H134428   0.587   5.663  17.480  2.1797  1.4793 -0.9330
 3411TIP3    H234429   0.613   5.523  17.429 -0.4017  1.0827 -1.2746
 3412TIP3   OH234430   5.214   3.992  17.330 -0.0048 -0.0083  0.5404
 3412TIP3    H134431   5.266   4.045  17.389  1.7642  0.1781 -1.0866
 3412TIP3    H234432   5.160   4.055  17.283  0.8224  0.1941 -0.1617
 3413TIP3   OH234433   0.352   0.837  17.799 -0.0468  0.2798  0.2601
 3413TIP3    H134434   0.342   0.886  17.717  1.3793 -0.1636 -0.2075
 3413TIP3    H234435   0.292   0.763  17.790 -0.9820  1.0199  0.2576
 3414TIP3   OH234436   2.007   4.637  17.857  0.3194 -0.5818  0.0266
 3414TIP3    H134437   1.953   4.655  17.934  0.2391 -2.8783  0.6007
 3414TIP3    H234438   2.097   4.639  17.889  0.3396 -0.6359 -0.0252
 3415TIP3   OH234439   0.021   5.188  17.852 -0.0644  0.0492 -0.1624
 3415TIP3    H134440   0.111   5.157  17.861  0.3821  0.7552 -1.8117
 3415TIP3    H234441   0.020   5.274  17.894  1.1206  1.8129 -3.3983
 3416TIP3   OH234442   0.656   4.650  19.497 -0.1706  0.4079 -0.5904
 3416TIP3    H134443   0.640   4.565  19.455  0.3840  0.2878 -0.5652
 3416TIP3    H234444   0.569   4.683  19.517 -0.3668 -0.9454  0.9815
 3417TIP3   OH234445   1.606   4.990  18.710 -0.1958  0.3677  0.6194
 3417TIP3    H134446   1.660   5.068  18.724  0.0631  0.2026  0.5404
 3417TIP3    H234447   1.518   5.018  18.735  0.2094  0.1407  2.4581
 3418TIP3   OH234448   1.737   7.390  17.927  0.5355  0.2243 -0.2326
 3418TIP3    H134449   1.723   7.307  17.881  0.1494  0.3001 -0.2540
 3418TIP3    H234450   1.832   7.394  17.940  0.6465  0.1733 -0.9659
 3419TIP3   OH234451   5.071   3.072  17.471 -0.3408  0.7096  0.2892
 3419TIP3    H134452   5.021   3.052  17.550  0.5178 -0.6052  0.5393
 3419TIP3    H234453   5.084   2.987  17.429  0.2908  1.2335 -0.6059
 3420TIP3   OH234454   5.674   3.503  18.806 -0.1241  0.2702  0.1205
 3420TIP3    H134455   5.656   3.479  18.715 -0.4816 -0.8399  0.4553
 3420TIP3    H234456   5.703   3.421  18.846 -1.5833  0.3315  1.3956
 3421TIP3   OH234457   3.445   3.725  17.429  0.5668  0.0274 -0.1004
 3421TIP3    H134458   3.423   3.785  17.357  0.3548 -2.2105 -2.0315
 3421TIP3    H234459   3.419   3.772  17.508 -2.0967  1.4268 -1.6457
 3422TIP3   OH234460   5.068   1.267  18.752 -0.1299  0.3591  0.3001
 3422TIP3    H134461   5.087   1.357  18.779  0.3203 -0.0682  1.4794
 3422TIP3    H234462   5.115   1.213  18.815 -0.5180 -0.7108 -0.3027
 3423TIP3   OH234463   1.558   3.144  17.470  0.3375  0.2312 -0.8853
 3423TIP3    H134464   1.634   3.177  17.517 -0.7480 -1.1465  2.0150
 3423TIP3    H234465   1.564   3.049  17.475 -0.4304  0.0330 -2.6478
 3424TIP3   OH234466   3.865   1.759  18.923  0.5155  0.5878 -0.7840
 3424TIP3    H134467   3.811   1.807  18.859  1.4352  0.6696 -1.5264
 3424TIP3    H234468   3.955   1.775  18.894  0.9467  0.4960  0.4609
 3425TIP3   OH234469   0.099   7.287  17.888  0.7883 -0.3267  0.1106
 3425TIP3    H134470   0.131   7.209  17.843  0.5193 -0.8812  0.8475
 3425TIP3    H234471   0.009   7.297  17.857  0.2799 -1.2704  1.2082
 3426TIP3   OH234472   5.999   6.762  18.502  0.1660 -0.1311 -0.1054
 3426TIP3    H134473   5.955   6.776  18.417  1.4791  1.9393 -0.4999
 3426TIP3    H234474   5.932   6.721  18.556 -2.6477  3.5175 -0.4274
 3427TIP3   OH234475   7.474   3.009  18.918 -0.1069  0.4033  0.1191
 3427TIP3    H134476   7.430   2.951  18.980 -3.4073 -0.4718 -2.7153
 3427TIP3    H234477   7.495   2.954  18.843  1.3179  1.9091 -0.6730
 3428TIP3   OH234478   1.578   0.553  18.349  0.1708 -1.1385  0.0181
 3428TIP3    H134479   1.506   0.491  18.352  0.0620 -1.0054  0.1677
 3428TIP3    H234480   1.609   0.558  18.439  0.1454 -0.9378  0.0172
 3429TIP3   OH234481   6.931   0.370  18.905 -0.2091 -0.5769 -0.6829
 3429TIP3    H134482   6.876   0.323  18.842  0.2836 -1.8806 -0.1667
 3429TIP3    H234483   6.872   0.434  18.945 -0.8234 -0.5499 -1.6042
 3430TIP3   OH234484   5.150   2.730  18.999 -0.3996 -0.0053 -0.7940
 3430TIP3    H134485   5.064   2.714  18.962 -0.6562  0.9784 -0.6545
 3430TIP3    H234486   5.190   2.794  18.940  0.8076 -1.5032 -1.6595
 3431TIP3   OH234487   1.405   2.491  17.575 -0.2182  0.2839  0.3482
 3431TIP3    H134488   1.362   2.523  17.496  0.3268 -1.6348 -0.7851
 3431TIP3    H234489   1.367   2.542  17.646 -0.3362  2.4512 -1.1802
 3432TIP3   OH234490   6.925   0.871  18.972 -0.3006 -0.1115 -0.1517
 3432TIP3    H134491   6.859   0.802  18.964 -0.4581 -0.0923  0.8626
 3432TIP3    H234492   6.911   0.926  18.895 -1.6649  0.0483  0.1858
 3433TIP3   OH234493   5.061   6.323  17.855  0.8083 -0.4317  0.0979
 3433TIP3    H134494   5.027   6.381  17.924  1.0465  1.0774 -1.0121
 3433TIP3    H234495   5.017   6.239  17.872 -3.1897  1.2064 -0.8761
 3434TIP3   OH234496   2.184   5.411  18.465 -0.3281 -0.5665 -0.0480
 3434TIP3    H134497   2.250   5.476  18.440 -1.5393  0.8895  0.3975
 3434TIP3    H234498   2.148   5.444  18.547 -3.7709  0.3900 -1.7611
 3435TIP3   OH234499   1.433   2.328  19.356 -0.1266  0.0178 -0.0421
 3435TIP3    H134500   1.412   2.409  19.310 -1.1905  0.4907  1.2300
 3435TIP3    H234501   1.358   2.312  19.413  0.7777 -0.9983  0.9155
 3436TIP3   OH234502   2.372   6.241  17.791 -0.1149  0.1458 -0.7464
 3436TIP3    H134503   2.293   6.205  17.749 -1.4212  0.7667  1.0528
 3436TIP3    H234504   2.407   6.169  17.842  1.1867 -0.4601 -2.3995
 3437TIP3   OH234505   3.914   1.292  17.285 -0.3932  0.4297 -0.1398
 3437TIP3    H134506   3.831   1.327  17.254 -0.5346 -0.0912 -0.3640
 3437TIP3    H234507   3.890   1.242  17.364 -0.2480  0.5491 -0.0207
 3438TIP3   OH234508   5.462   0.572  18.623  0.5923 -0.2173  0.1681
 3438TIP3    H134509   5.512   0.500  18.583  0.9273 -0.3295  0.7940
 3438TIP3    H234510   5.468   0.643  18.559  1.1018 -0.4044  0.0031
 3439TIP3   OH234511   3.514   4.331  17.769  0.2321  0.2245  0.0308
 3439TIP3    H134512   3.586   4.366  17.715  0.3577 -1.3757 -0.9144
 3439TIP3    H234513   3.540   4.350  17.859  0.2412  2.5699 -0.4117
 3440TIP3   OH234514   1.610   5.250  18.229 -0.2819 -0.2820 -0.2759
 3440TIP3    H134515   1.641   5.337  18.252 -0.2950 -0.0159 -1.2221
 3440TIP3    H234516   1.521   5.247  18.263  0.1743 -0.4267  0.9413
 3441TIP3   OH234517   2.016   3.302  19.267 -0.1684  0.3101  0.1060
 3441TIP3    H134518   2.088   3.239  19.263  0.2748  0.8506 -0.8508
 3441TIP3    H234519   2.024   3.343  19.353 -0.8348 -1.3487  0.9985
 3442TIP3   OH234520   5.660   6.855  19.142 -0.1572 -0.6666 -0.1331
 3442TIP3    H134521   5.710   6.889  19.216 -3.7698  3.1226  0.9721
 3442TIP3    H234522   5.627   6.770  19.172  0.8896 -0.5903  1.3576
 3443TIP3   OH234523   0.859   2.906  16.883 -0.2867  0.2137 -0.6310
 3443TIP3    H134524   0.818   2.819  16.880  0.2664 -0.0186 -1.9924
 3443TIP3    H234525   0.951   2.890  16.863 -0.0925  1.0777 -0.4769
 3444TIP3   OH234526   1.297   5.236  17.076  0.0143 -0.0638 -0.0847
 3444TIP3    H134527   1.388   5.225  17.049 -0.3932 -1.0492 -1.1459
 3444TIP3    H234528   1.250   5.169  17.028 -1.1305 -0.2757  1.2604
 3445TIP3   OH234529   6.220   1.524  18.644  0.1917  0.1313 -0.0597
 3445TIP3    H134530   6.170   1.552  18.720  2.1695 -0.6692  1.6335
 3445TIP3    H234531   6.306   1.565  18.654  0.1886  0.8920 -2.4784
 3446TIP3   OH234532   5.876   0.704  19.717  0.4545  0.7916 -0.1565
 3446TIP3    H134533   5.879   0.609  19.725 -2.2014  0.6766  0.1105
 3446TIP3    H234534   5.895   0.721  19.625 -1.4017 -0.2091 -0.7765
 3447TIP3   OH234535   1.026   6.834  17.243  0.3134  0.1787 -0.0401
 3447TIP3    H134536   0.974   6.911  17.265 -0.2617 -0.5621  1.3221
 3447TIP3    H234537   0.967   6.780  17.190 -0.3870 -0.6546  1.4915
 3448TIP3   OH234538   7.016   2.673  17.015  0.2563  0.5438  0.0287
 3448TIP3    H134539   7.063   2.718  16.945 -1.8943  0.2126 -1.7271
 3448TIP3    H234540   6.974   2.598  16.972 -0.2552 -0.3157  1.8973
 3449TIP3   OH234541   7.007   5.940  19.522  0.0877 -0.3738 -0.1344
 3449TIP3    H134542   7.065   5.966  19.450 -0.4562 -0.6288 -0.6806
 3449TIP3    H234543   6.932   5.999  19.515  0.0231 -0.4179  0.2043
 3450TIP3   OH234544   4.349   7.227  16.943  0.1019  0.0721  0.4004
 3450TIP3    H134545   4.253   7.227  16.948 -0.0024 -1.8064 -0.8080
 3450TIP3    H234546   4.369   7.293  16.877 -0.4987 -0.8817 -0.7756
 3451TIP3   OH234547   4.370   4.625  18.607  0.0093 -0.4076  1.1448
 3451TIP3    H134548   4.314   4.679  18.552  1.2958 -0.6619 -0.5022
 3451TIP3    H234549   4.323   4.542  18.615 -0.1953 -0.3785  0.3632
 3452TIP3   OH234550   1.480   1.263  19.154 -0.5186 -0.4221  0.1375
 3452TIP3    H134551   1.451   1.193  19.213  0.1119  0.2317  1.2484
 3452TIP3    H234552   1.399   1.309  19.131 -0.5684  0.7071  2.3290
 3453TIP3   OH234553   1.482   1.970  17.803 -0.2037 -0.3273 -0.3917
 3453TIP3    H134554   1.520   2.045  17.758  0.6844 -0.5066  0.0326
 3453TIP3    H234555   1.455   1.911  17.733 -0.4626  0.1671 -0.7128
 3454TIP3   OH234556   4.050   6.359  18.722  0.0338 -0.3044 -0.2481
 3454TIP3    H134557   4.021   6.449  18.741 -1.5053 -0.8587  0.1739
 3454TIP3    H234558   4.097   6.332  18.800  1.6708  0.5746 -0.8936
 3455TIP3   OH234559   2.264   1.175  18.240  0.9069 -0.0810  0.3518
 3455TIP3    H134560   2.206   1.169  18.316  1.1860 -0.0101  0.5749
 3455TIP3    H234561   2.341   1.122  18.264  0.9029 -0.2380  0.0307
 3456TIP3   OH234562   4.754   0.784  18.396  0.3695 -0.3401 -0.2309
 3456TIP3    H134563   4.667   0.750  18.416 -0.6150  0.9089 -2.1133
 3456TIP3    H234564   4.798   0.712  18.350 -0.0960 -0.5860 -0.2922
 3457TIP3   OH234565   3.312   6.976  19.405  0.1289  0.5361  0.2945
 3457TIP3    H134566   3.295   6.881  19.409 -0.7524  0.5641 -1.6150
 3457TIP3    H234567   3.229   7.013  19.374  0.5490  1.9183  0.7796
 3458TIP3   OH234568   6.495   3.042  18.614  0.7783  0.9797 -0.0749
 3458TIP3    H134569   6.526   2.964  18.660  0.5018 -0.2756 -1.9092
 3458TIP3    H234570   6.566   3.105  18.624  1.2358  0.3117  1.0110
 3459TIP3   OH234571   6.037   7.241  18.455  0.3822 -0.1029 -0.1775
 3459TIP3    H134572   5.970   7.184  18.418  0.6129  0.2824 -1.1954
 3459TIP3    H234573   5.989   7.320  18.480  0.3430 -0.1034 -0.2496
 3460TIP3   OH234574   3.556   2.923  18.800 -0.0528 -0.0268  0.1982
 3460TIP3    H134575   3.650   2.905  18.810  0.1346  0.4867 -0.5652
 3460TIP3    H234576   3.537   2.902  18.709 -0.5760  0.3223  0.2208
 3461TIP3   OH234577   5.639   4.380  17.780  0.0802 -0.2526 -0.1869
 3461TIP3    H134578   5.636   4.370  17.875  0.9233 -0.1943 -0.1471
 3461TIP3    H234579   5.580   4.312  17.746 -0.5190 -0.0239  0.3869
 3462TIP3   OH234580   6.573   0.031  18.452 -0.2374 -0.1852 -0.0644
 3462TIP3    H134581   6.558  -0.040  18.513 -0.0521 -2.3967 -2.4241
 3462TIP3    H234582   6.497   0.088  18.461 -0.3982 -0.6555  1.8624
 3463TIP3   OH234583   4.934   3.559  17.222 -0.3401  0.0294  0.2663
 3463TIP3    H134584   4.898   3.526  17.140 -0.6897 -1.2882  0.9106
 3463TIP3    H234585   4.992   3.489  17.252 -0.8864  0.1114  1.5614
 3464TIP3   OH234586   6.888   3.235  18.848 -0.2626 -0.7447  0.0461
 3464TIP3    H134587   6.880   3.216  18.941 -2.8760 -2.2917 -0.4032
 3464TIP3    H234588   6.934   3.159  18.812 -0.9469 -1.0463 -0.1932
 3465TIP3   OH234589   2.960   1.616  17.773  0.0268 -0.6256 -0.9340
 3465TIP3    H134590   2.886   1.676  17.782  0.6252  0.1209 -0.8920
 3465TIP3    H234591   2.920   1.529  17.764 -0.9351 -0.0286 -3.1042
 3466TIP3   OH234592   5.140   4.747  16.822 -0.4332 -0.2779 -0.1400
 3466TIP3    H134593   5.097   4.822  16.864 -1.9732 -0.8838 -0.5850
 3466TIP3    H234594   5.208   4.787  16.768 -0.4412  0.7177  0.5542
 3467TIP3   OH234595   5.337   6.349  19.406  0.3770  0.6216 -0.3557
 3467TIP3    H134596   5.256   6.352  19.355 -0.5721  1.6663  1.1350
 3467TIP3    H234597   5.328   6.271  19.461  0.5652  0.5193 -0.4703
 3468TIP3   OH234598   6.444   6.780  18.499 -0.0068  0.1137  0.2678
 3468TIP3    H134599   6.418   6.702  18.547  0.0027  0.8379  1.5078
 3468TIP3    H234600   6.362   6.822  18.474 -0.0204  0.1067  0.3014
 3469TIP3   OH234601   5.661   5.599  18.844  0.1652  0.0119 -0.0896
 3469TIP3    H134602   5.660   5.631  18.754  0.4018 -0.2493 -0.1847
 3469TIP3    H234603   5.673   5.504  18.836 -0.2578 -0.0713  0.2012
 3470TIP3   OH234604   7.341   1.634  19.357  0.2400 -0.6079 -0.0484
 3470TIP3    H134605   7.434   1.613  19.355  0.3471 -0.7302  2.6288
 3470TIP3    H234606   7.308   1.588  19.435 -1.8898  0.0863 -0.4815
 3471TIP3   OH234607   6.836   3.400  18.179 -0.6133 -0.2839  0.6020
 3471TIP3    H134608   6.771   3.385  18.110 -0.0028  2.5610 -0.7503
 3471TIP3    H234609   6.816   3.488  18.211  3.1349  1.2481 -0.6598
 3472TIP3   OH234610   6.411   4.980  19.770  0.5630 -0.0587 -0.4340
 3472TIP3    H134611   6.342   5.044  19.750 -0.0575 -0.5701  0.0301
 3472TIP3    H234612   6.378   4.933  19.847  2.6183  1.4808  1.4980
 3473TIP3   OH234613   2.544   1.027  18.260 -0.8195  0.0892 -0.1936
 3473TIP3    H134614   2.599   1.002  18.186  0.0467 -1.3241  0.8573
 3473TIP3    H234615   2.568   1.118  18.279  1.8305 -0.6952  0.7103
 3474TIP3   OH234616   2.464   4.246  17.788  0.0498 -0.3028 -0.2199
 3474TIP3    H134617   2.496   4.163  17.824 -1.8905 -0.5550  1.0613
 3474TIP3    H234618   2.452   4.228  17.695  1.7951 -0.7240 -0.4139
 3475TIP3   OH234619   1.307   5.937  17.244 -0.0755 -0.0654  0.1982
 3475TIP3    H134620   1.240   5.982  17.192  0.7566 -1.2532 -2.0279
 3475TIP3    H234621   1.358   6.008  17.283 -0.3198  0.9066 -1.1822
 3476TIP3   OH234622   2.644   6.149  17.664  0.6912 -0.2140  0.0746
 3476TIP3    H134623   2.584   6.205  17.714 -0.8569 -2.2746  0.6302
 3476TIP3    H234624   2.587   6.088  17.617  2.1641  0.5514 -2.9758
 3477TIP3   OH234625   6.863   4.257  18.105  0.1003 -0.3842 -0.2513
 3477TIP3    H134626   6.938   4.202  18.080  0.0597 -0.9058  0.7238
 3477TIP3    H234627   6.789   4.196  18.107  0.2152 -0.5248  1.7218
 3478TIP3   OH234628   2.400   6.724  19.031 -0.4482  0.4640  0.0862
 3478TIP3    H134629   2.315   6.698  18.996 -1.0925  1.5284  0.8125
 3478TIP3    H234630   2.443   6.771  18.960 -1.5452  2.1882  0.5237
 3479TIP3   OH234631   6.320   0.253  18.163  0.4613  0.2369  0.0448
 3479TIP3    H134632   6.356   0.189  18.224 -1.5498  0.9345  2.0987
 3479TIP3    H234633   6.300   0.202  18.084 -0.0723 -1.4552  1.2193
 3480TIP3   OH234634   0.096   0.148  18.996 -0.3409  0.2699  0.4516
 3480TIP3    H134635   0.021   0.204  18.980 -1.1714 -0.9423 -0.0704
 3480TIP3    H234636   0.060   0.059  19.000  1.0814 -0.3671  0.0016
 3481TIP3   OH234637   2.881   3.865  18.003 -0.1342  0.5122 -0.5861
 3481TIP3    H134638   2.788   3.880  17.987 -0.1229  2.5953  0.9362
 3481TIP3    H234639   2.926   3.928  17.947  0.2074  1.5363  0.7807
 3482TIP3   OH234640   5.290   0.922  18.608  0.1044  0.1046 -0.3750
 3482TIP3    H134641   5.254   0.910  18.696 -1.8836  1.6966 -0.8895
 3482TIP3    H234642   5.221   0.969  18.561  2.5012  2.5045 -1.7579
 3483TIP3   OH234643   5.784   0.673  17.251  0.1786  0.3909 -0.4092
 3483TIP3    H134644   5.854   0.629  17.203 -0.2102  0.4659 -1.0774
 3483TIP3    H234645   5.816   0.762  17.264  0.6092  0.1552  0.1677
 3484TIP3   OH234646   6.438   1.671  16.968  0.2727  0.1426  0.3114
 3484TIP3    H134647   6.383   1.665  16.890  0.3805 -0.1091  0.2541
 3484TIP3    H234648   6.517   1.715  16.938  0.1463  0.4093  0.3709
 3485TIP3   OH234649   2.027   6.977  17.610  0.1165  0.2448 -0.1691
 3485TIP3    H134650   2.104   7.009  17.657  0.8583  0.1219 -1.2800
 3485TIP3    H234651   1.959   7.041  17.631 -0.0666 -0.6421  2.3675
 3486TIP3   OH234652   1.362   7.607  18.747  0.3959  0.0800  0.5194
 3486TIP3    H134653   1.442   7.660  18.747  0.0421  0.6264  0.4297
 3486TIP3    H234654   1.386   7.528  18.794  0.8155  0.5092  1.0462
 3487TIP3   OH234655   4.640   4.334  17.709 -0.4146 -0.0270 -0.5384
 3487TIP3    H134656   4.665   4.269  17.775 -0.2879 -0.1967 -0.7532
 3487TIP3    H234657   4.577   4.391  17.754 -0.2635 -0.0903 -0.2440
 3488TIP3   OH234658   1.403   1.915  18.369  0.4594  0.3316 -0.2547
 3488TIP3    H134659   1.436   1.915  18.459  0.3088  0.4989 -0.1994
 3488TIP3    H234660   1.480   1.933  18.315  0.7202 -0.6090 -0.2183
 3489TIP3   OH234661   1.261   7.561  17.964 -0.3560 -0.2374 -0.3854
 3489TIP3    H134662   1.308   7.537  18.044  0.5096 -0.8928 -1.0725
 3489TIP3    H234663   1.319   7.621  17.919 -0.5564 -0.3710 -0.8250
 3490TIP3   OH234664   6.965   2.851  19.068  0.0449 -0.2782 -0.7045
 3490TIP3    H134665   7.002   2.867  19.154  0.5741  0.2883 -1.0303
 3490TIP3    H234666   7.040   2.840  19.011 -0.2584  0.8510 -1.3695
 3491TIP3   OH234667   6.334   3.348  19.102  0.3437 -0.0255  0.7220
 3491TIP3    H134668   6.382   3.288  19.045  1.9341  0.8014  1.1372
 3491TIP3    H234669   6.361   3.323  19.191 -1.2663 -0.5909  1.0821
 3492TIP3   OH234670   5.914   1.383  19.570 -0.4958  0.1530  0.0262
 3492TIP3    H134671   5.916   1.319  19.640  0.8950 -0.7637 -0.8028
 3492TIP3    H234672   5.983   1.446  19.593  0.4992 -0.5726 -0.8510
 3493TIP3   OH234673   3.859   6.001  19.143  0.1776 -0.1728 -0.0960
 3493TIP3    H134674   3.812   5.949  19.209  0.2568 -0.3073 -0.1457
 3493TIP3    H234675   3.952   5.988  19.164  0.2044  2.0499  1.5415
 3494TIP3   OH234676   0.365   5.359  17.745 -0.1274  0.0951 -0.0751
 3494TIP3    H134677   0.341   5.351  17.653  2.1212 -1.5732 -0.6041
 3494TIP3    H234678   0.340   5.275  17.784 -0.1947  0.4307  0.6182
 3495TIP3   OH234679   5.689   3.950  18.049  0.1413 -0.5639 -0.5679
 3495TIP3    H134680   5.711   3.976  17.960 -0.7712  1.6515 -0.2172
 3495TIP3    H234681   5.604   3.905  18.041  1.1456 -2.4664 -1.0374
 3496TIP3   OH234682   7.112   2.358  18.068 -0.1386  0.5058  0.0552
 3496TIP3    H134683   7.123   2.343  17.974  1.9648  0.2759  0.2900
 3496TIP3    H234684   7.189   2.408  18.093 -1.2160  1.5102  1.4812
 3497TIP3   OH234685   2.410   4.794  18.329  0.0402 -0.2478  0.3023
 3497TIP3    H134686   2.370   4.722  18.280  1.2331 -0.1799 -0.8387
 3497TIP3    H234687   2.349   4.812  18.401 -1.7432 -0.4080 -1.1095
 3498TIP3   OH234688   3.172   4.370  18.442  0.0802  0.1789 -0.0062
 3498TIP3    H134689   3.182   4.383  18.537 -1.2205  2.4920 -0.0895
 3498TIP3    H234690   3.141   4.456  18.410 -0.3147 -0.7835 -2.3980
 3499TIP3   OH234691   0.377   0.603  16.904  0.6088 -0.0297 -0.4770
 3499TIP3    H134692   0.292   0.629  16.868  0.1010  1.0726  1.4300
 3499TIP3    H234693   0.429   0.683  16.902  0.2198  0.3504  2.1372
 3500TIP3   OH234694   2.819   5.271  18.994 -0.9920 -0.6562  0.1486
 3500TIP3    H134695   2.844   5.315  19.075  0.6413 -0.8907 -0.1874
 3500TIP3    H234696   2.896   5.281  18.937 -1.8106 -1.1718 -1.0795
 3501TIP3   OH234697   6.751   0.251  18.411 -0.1296 -0.6903  0.0985
 3501TIP3    H134698   6.723   0.160  18.425 -0.6987 -0.4719  0.3988
 3501TIP3    H234699   6.846   0.248  18.420  0.0208 -1.5302 -1.3739
 3502TIP3   OH234700   5.727   1.030  18.784 -0.4420 -0.2417  0.6169
 3502TIP3    H134701   5.764   0.956  18.735  0.5359  0.5439  0.1058
 3502TIP3    H234702   5.658   1.064  18.727  0.8086  0.7790 -0.3861
 3503TIP3   OH234703   7.179   3.943  17.917  0.1214  0.4544  0.0999
 3503TIP3    H134704   7.084   3.942  17.925  0.1692  0.7912  0.7509
 3503TIP3    H234705   7.210   3.886  17.987  0.3815 -0.1489 -0.4928
 3504TIP3   OH234706   2.649   3.684  17.974 -0.0954  0.3560 -0.4222
 3504TIP3    H134707   2.609   3.769  17.990  2.3111  1.9021 -1.9046
 3504TIP3    H234708   2.655   3.679  17.878  0.6930 -1.0450 -0.3252
 3505TIP3   OH234709   6.076   1.501  17.108 -0.6554  0.4889  0.1346
 3505TIP3    H134710   5.995   1.506  17.057 -0.4421  0.5302 -0.1977
 3505TIP3    H234711   6.076   1.412  17.144  0.1815 -0.2467 -1.5719
 3506TIP3   OH234712   2.699   1.358  18.611 -0.8971  0.6395 -0.3283
 3506TIP3    H134713   2.733   1.409  18.684 -0.0223  0.1340 -0.3568
 3506TIP3    H234714   2.770   1.360  18.546 -0.4247 -1.3821  0.0566
 3507TIP3   OH234715   0.536   6.282  17.675  0.2426  0.3126 -0.0960
 3507TIP3    H134716   0.555   6.304  17.766 -1.3902  1.8737 -0.0799
 3507TIP3    H234717   0.604   6.328  17.625  0.9182 -0.2412  0.2985
 3508TIP3   OH234718   3.553   2.896  19.120 -0.0313  0.0356  0.0473
 3508TIP3    H134719   3.497   2.918  19.195  1.0347  2.3787  0.2586
 3508TIP3    H234720   3.508   2.936  19.045  0.6021  0.6832  0.0012
 3509TIP3   OH234721   3.425   5.516  18.305  0.2228 -0.4465  0.0003
 3509TIP3    H134722   3.345   5.568  18.305  2.2142  2.9280  1.0724
 3509TIP3    H234723   3.406   5.443  18.363 -1.7069  0.9150  1.2024
 3510TIP3   OH234724   0.620   0.593  18.195  0.8656 -0.4307 -0.1732
 3510TIP3    H134725   0.559   0.561  18.128 -0.8014  0.2125  0.9663
 3510TIP3    H234726   0.633   0.685  18.173  0.7552 -0.3614  0.0434
 3511TIP3   OH234727   2.933   6.697  17.969 -0.0559  0.7550 -0.4097
 3511TIP3    H134728   2.942   6.680  17.876  0.6627 -0.2457 -0.1720
 3511TIP3    H234729   2.839   6.697  17.985 -0.1544 -0.2268 -0.9333
 3512TIP3   OH234730   5.027   3.194  19.629  0.0791 -0.0670  0.2987
 3512TIP3    H134731   5.120   3.176  19.635 -0.0378 -0.5617  0.6935
 3512TIP3    H234732   5.001   3.161  19.542  0.1529 -0.5015  0.4376
 3513TIP3   OH234733   2.473   6.344  19.162 -0.0403 -0.2337  0.0688
 3513TIP3    H134734   2.440   6.255  19.150  0.6956 -0.4762 -0.2497
 3513TIP3    H234735   2.568   6.336  19.148  0.3666  0.2042  2.2021
 3514TIP3   OH234736   7.310   4.477  19.265  0.0397 -0.0235 -0.3394
 3514TIP3    H134737   7.268   4.393  19.283  1.2429 -0.1559  2.2543
 3514TIP3    H234738   7.238   4.541  19.272 -0.2025 -0.4548  1.9299
 3515TIP3   OH234739   7.035   1.723  18.979 -0.0154  0.2368  0.3391
 3515TIP3    H134740   6.986   1.656  19.028  0.0726  1.0484  1.5646
 3515TIP3    H234741   6.973   1.753  18.912 -1.1552  1.0879  1.7281
 3516TIP3   OH234742   3.431   7.274  17.581 -1.0685  0.0831  1.1010
 3516TIP3    H134743   3.486   7.290  17.505 -1.5807  0.2415  0.7607
 3516TIP3    H234744   3.486   7.222  17.640 -0.3970  0.6212  0.9686
 3517TIP3   OH234745   6.137   0.512  19.052  0.4221 -0.3459 -0.3715
 3517TIP3    H134746   6.043   0.527  19.048  0.5113  0.7930 -5.7242
 3517TIP3    H234747   6.175   0.599  19.068  0.5816 -0.2821 -1.0767
 3518TIP3   OH234748   7.217   1.479  18.045 -0.5325 -0.1420  0.1300
 3518TIP3    H134749   7.240   1.565  18.080  0.7333 -1.0057  1.4981
 3518TIP3    H234750   7.165   1.438  18.114 -2.4449  0.0438 -1.1191
 3519TIP3   OH234751   5.492   0.918  17.915  0.3019  0.1041 -0.6676
 3519TIP3    H134752   5.397   0.921  17.911  0.1173  1.0041  2.0448
 3519TIP3    H234753   5.520   1.003  17.881  0.1832 -0.2180 -1.6074
 3520TIP3   OH234754   6.662   0.657  17.422 -0.0428 -0.2702 -0.0239
 3520TIP3    H134755   6.668   0.566  17.453  0.5822 -0.0389  0.5565
 3520TIP3    H234756   6.749   0.677  17.388  0.5729  0.8654  2.0470
 3521TIP3   OH234757   3.080   2.172  18.595  0.3332  0.0394 -0.4840
 3521TIP3    H134758   3.137   2.172  18.671  1.9666 -0.6133 -1.6378
 3521TIP3    H234759   3.046   2.082  18.589  0.6312 -0.0528 -0.8188
 3522TIP3   OH234760   2.505   4.484  17.411 -0.2895 -0.4623 -0.0103
 3522TIP3    H134761   2.540   4.538  17.482  0.7890 -0.8783 -0.1976
 3522TIP3    H234762   2.545   4.519  17.332 -2.4011  0.7567 -0.6104
 3523TIP3   OH234763   6.968   3.151  18.010 -0.6818 -0.2510 -0.7023
 3523TIP3    H134764   6.937   3.203  18.083  0.1665 -2.0057  1.0101
 3523TIP3    H234765   6.934   3.195  17.932 -4.1550  0.0693  0.8191
 3524TIP3   OH234766   1.231   2.534  17.356  0.0731  0.0407  0.2894
 3524TIP3    H134767   1.238   2.626  17.380  2.5865 -0.0027 -0.0361
 3524TIP3    H234768   1.169   2.534  17.283 -0.4911  1.3582  0.7252
 3525TIP3   OH234769   2.318   1.945  17.741  0.0711 -0.5933 -0.3191
 3525TIP3    H134770   2.321   1.958  17.835  1.1481 -0.6436 -0.3349
 3525TIP3    H234771   2.225   1.931  17.721  0.0033 -2.0205  0.9115
 3526TIP3   OH234772   4.294   6.453  19.381  0.2656 -0.2050 -0.2442
 3526TIP3    H134773   4.235   6.527  19.396  2.5541  1.5791  0.5464
 3526TIP3    H234774   4.310   6.417  19.469  0.3026 -0.7250 -0.4597
 3527TIP3   OH234775   3.307   4.284  18.150  0.7761  0.2311  0.0954
 3527TIP3    H134776   3.311   4.289  18.246 -0.3538 -0.6941  0.2047
 3527TIP3    H234777   3.361   4.208  18.128  1.0212  0.4337 -0.0083
 3528TIP3   OH234778   4.929   6.427  16.741  0.2595  0.2949 -0.2078
 3528TIP3    H134779   4.924   6.342  16.785  3.8441 -0.2325 -0.5469
 3528TIP3    H234780   4.886   6.414  16.657 -1.0599 -0.5178  0.5553
 3529TIP3   OH234781   4.153   2.531  17.808 -0.6625 -0.0890  0.0573
 3529TIP3    H134782   4.125   2.527  17.899 -0.4368 -1.3562  0.0880
 3529TIP3    H234783   4.111   2.455  17.767  1.9024 -1.5309 -0.1058
 3530TIP3   OH234784   5.742   6.681  18.601  0.0026 -0.3866 -0.7265
 3530TIP3    H134785   5.651   6.708  18.618 -0.1854 -1.9067  1.0946
 3530TIP3    H234786   5.745   6.589  18.627  1.8127 -0.6997 -1.8542
 3531TIP3   OH234787   1.582   4.083  18.333 -0.2664 -0.0453  0.2044
 3531TIP3    H134788   1.648   4.079  18.402  0.5631  2.7739 -0.2939
 3531TIP3    H234789   1.504   4.117  18.377 -0.5742 -0.7994  0.2560
 3532TIP3   OH234790   2.743   4.498  18.512 -0.1719 -0.1319 -0.1759
 3532TIP3    H134791   2.752   4.469  18.603 -0.0881  4.0371  1.3655
 3532TIP3    H234792   2.786   4.429  18.461  1.5804 -1.7208  3.0772
 3533TIP3   OH234793   7.268   2.596  18.113  0.2361  0.8740  0.1602
 3533TIP3    H134794   7.175   2.612  18.125 -0.0365  1.4361 -2.1933
 3533TIP3    H234795   7.305   2.683  18.098  0.8556  0.4928 -0.5714
 3534TIP3   OH234796   0.456   6.591  17.529  0.3140  0.3307 -0.5970
 3534TIP3    H134797   0.373   6.580  17.483  0.7751  1.4679 -1.7866
 3534TIP3    H234798   0.431   6.620  17.617 -0.5555  0.2509 -0.8069
 3535TIP3   OH234799   5.390   1.323  18.268  0.1681 -0.3518  0.1119
 3535TIP3    H134800   5.355   1.387  18.206 -2.4791 -0.3588  1.4550
 3535TIP3    H234801   5.359   1.353  18.353  2.3764 -1.2008  1.2880
 3536TIP3   OH234802   4.361   5.463  18.698  0.3624  1.0071  0.0111
 3536TIP3    H134803   4.319   5.395  18.646  2.4734 -0.0716 -0.4154
 3536TIP3    H234804   4.333   5.545  18.659 -1.2138  0.3650 -0.2876
 3537TIP3   OH234805   5.147   5.610  17.962 -0.1667  0.2880 -0.3593
 3537TIP3    H134806   5.166   5.676  18.029 -1.2355  0.3558 -0.1011
 3537TIP3    H234807   5.162   5.526  18.005 -1.4809  0.3156  0.1889
 3538TIP3   OH234808   5.322   6.287  18.748  0.1827  0.6073  0.6006
 3538TIP3    H134809   5.389   6.353  18.767  0.9314  0.1626 -0.3955
 3538TIP3    H234810   5.346   6.213  18.804 -1.0638  1.3846  2.2425
 3539TIP3   OH234811   1.755   2.114  16.550  0.3598 -0.0920 -0.0265
 3539TIP3    H134812   1.663   2.089  16.552  0.1669  0.5134  3.0678
 3539TIP3    H234813   1.777   2.134  16.641  3.3036  0.7395 -0.8052
 3540TIP3   OH234814   0.576   6.805  17.968 -0.2816  0.4153  0.7994
 3540TIP3    H134815   0.592   6.899  17.979  2.5733  0.1057  0.0061
 3540TIP3    H234816   0.536   6.777  18.050  0.5135  2.0024  1.7721
 3541TIP3   OH234817   1.168   3.727  19.256 -0.1136 -0.1132 -0.1350
 3541TIP3    H134818   1.244   3.682  19.219  0.9615  0.9954  0.6510
 3541TIP3    H234819   1.203   3.808  19.292 -1.4261 -0.2248  1.5464
 3542TIP3   OH234820   3.699   3.076  19.278 -0.4304  0.1867  0.1127
 3542TIP3    H134821   3.759   3.005  19.303 -0.3977  0.1043 -0.1935
 3542TIP3    H234822   3.614   3.049  19.312  0.0107  1.1398  2.1349
 3543TIP3   OH234823   7.179   4.236  18.381  0.2560 -0.0536  0.0861
 3543TIP3    H134824   7.203   4.163  18.439 -1.1518  0.2830  1.1576
 3543TIP3    H234825   7.217   4.313  18.423  0.2255  0.0552 -0.0861
 3544TIP3   OH234826   3.991   4.702  18.827 -0.2468 -0.2719 -0.2705
 3544TIP3    H134827   4.006   4.792  18.797 -0.5706 -0.2337 -0.3226
 3544TIP3    H234828   3.954   4.658  18.751  0.3722 -0.5814 -0.3964
 3545TIP3   OH234829   4.856   3.613  18.560  0.1194 -0.5458 -0.0180
 3545TIP3    H134830   4.951   3.619  18.555  0.3067 -1.1984  1.9961
 3545TIP3    H234831   4.826   3.704  18.560  0.6463 -0.3439 -1.6028
 3546TIP3   OH234832   6.704   5.741  17.673 -0.1007  0.2581 -0.3203
 3546TIP3    H134833   6.653   5.666  17.640 -0.2576  0.0639  0.3436
 3546TIP3    H234834   6.656   5.769  17.751 -1.9179  3.1004 -2.2597
 3547TIP3   OH234835   2.183   0.896  17.612 -0.4783 -0.0357  1.0447
 3547TIP3    H134836   2.134   0.944  17.545 -1.0379  0.9099  2.0889
 3547TIP3    H234837   2.268   0.941  17.616 -0.1202 -0.6254  0.4077
 3548TIP3   OH234838   4.084   1.455  18.848  0.2999  0.7162  0.0588
 3548TIP3    H134839   4.139   1.401  18.905 -0.6513 -0.2705  0.0601
 3548TIP3    H234840   4.080   1.406  18.765 -0.0591  1.1039 -0.1549
 3549TIP3   OH234841   5.533   0.336  17.249 -0.0161  0.2185 -0.4661
 3549TIP3    H134842   5.467   0.267  17.245  1.7349 -1.5234 -0.5378
 3549TIP3    H234843   5.601   0.301  17.306  1.5459  1.3285 -1.5879
 3550TIP3   OH234844   7.116   4.005  19.114 -0.4507 -0.2141 -0.5426
 3550TIP3    H134845   7.029   4.045  19.118  0.2991  1.3942  2.3053
 3550TIP3    H234846   7.176   4.080  19.115  0.9692 -1.3078  1.4573
 3551TIP3   OH234847   1.761   0.576  17.683  0.5530 -0.5943  0.3283
 3551TIP3    H134848   1.735   0.489  17.651  1.1991 -0.8185  0.3951
 3551TIP3    H234849   1.843   0.560  17.730 -0.0635 -0.1723  1.5783
 3552TIP3   OH234850   6.949   1.212  16.571  0.0597 -0.6100 -0.4137
 3552TIP3    H134851   6.854   1.215  16.565  0.1587 -0.2248 -2.8240
 3552TIP3    H234852   6.979   1.295  16.532  1.3882 -0.5974  0.5508
 3553TIP3   OH234853   2.842   0.810  19.114  0.3878  0.4100 -0.6348
 3553TIP3    H134854   2.801   0.735  19.156  1.4579 -0.3199 -0.8786
 3553TIP3    H234855   2.845   0.787  19.021 -0.7175  1.4379 -0.9622
 3554TIP3   OH234856   7.652   4.481  16.709 -0.2436  0.1571  0.1095
 3554TIP3    H134857   7.561   4.456  16.726  0.1826 -0.9057  0.8996
 3554TIP3    H234858   7.704   4.416  16.755  0.9347  0.4681 -0.7382
 3555TIP3   OH234859   4.340   6.666  18.033  0.1232  0.5216 -0.0552
 3555TIP3    H134860   4.385   6.593  18.075 -0.7438  0.2335  0.4076
 3555TIP3    H234861   4.365   6.743  18.084  0.4628  0.4369 -0.0923
 3556TIP3   OH234862   6.033   3.850  19.259 -0.2580  0.1384  0.5066
 3556TIP3    H134863   5.987   3.921  19.215  0.5154  0.1776 -0.2790
 3556TIP3    H234864   5.965   3.788  19.285 -0.8647  0.8344  0.5702
 3557TIP3   OH234865   3.082   2.522  18.579  0.1020 -0.5302  0.5759
 3557TIP3    H134866   3.123   2.587  18.636 -0.1931 -1.4549  1.8807
 3557TIP3    H234867   3.155   2.486  18.529  0.2488  0.9034 -0.3236
 3558TIP3   OH234868   0.521   1.104  18.439  0.6368  0.2654 -0.3843
 3558TIP3    H134869   0.582   1.178  18.440  1.4121 -0.3726 -0.2781
 3558TIP3    H234870   0.469   1.119  18.360  0.2681  1.3293  0.0339
 3559TIP3   OH234871   0.563   0.282  18.214 -0.7342 -0.3171 -0.8441
 3559TIP3    H134872   0.526   0.369  18.200 -2.0438 -1.1934 -3.5154
 3559TIP3    H234873   0.636   0.297  18.275 -2.2477  2.2714  0.5286
 3560TIP3   OH234874   2.206   2.264  17.576  0.0419  0.0549 -0.6191
 3560TIP3    H134875   2.183   2.322  17.648  1.5390  0.0579 -0.1174
 3560TIP3    H234876   2.295   2.290  17.551  0.7613 -2.0107 -0.3788
 3561TIP3   OH234877   0.686   6.660  19.034  0.7093 -0.0528 -0.2613
 3561TIP3    H134878   0.639   6.733  19.074  1.3876 -0.6989  1.8363
 3561TIP3    H234879   0.618   6.595  19.015  0.4656 -0.0501  0.5964
 3562TIP3   OH234880   1.350   2.013  18.051 -0.0793  0.6808  0.0851
 3562TIP3    H134881   1.256   2.005  18.035  0.1337  0.8814 -1.4333
 3562TIP3    H234882   1.390   1.991  17.967  1.3294 -1.0464  1.1282
 3563TIP3   OH234883   0.678   5.127  17.524  0.0154 -0.0062  0.3836
 3563TIP3    H134884   0.705   5.055  17.467  2.5928  1.9792 -1.0828
 3563TIP3    H234885   0.587   5.145  17.498  0.1689 -1.0749 -0.9982
 3564TIP3   OH234886   2.737   3.970  18.592  0.2767 -0.4008  0.5680
 3564TIP3    H134887   2.695   4.051  18.563  2.8456  0.0519 -2.5449
 3564TIP3    H234888   2.688   3.901  18.548  0.4854 -0.1852 -0.0127
 3565TIP3   OH234889   0.699   0.990  19.044  0.2204  0.3869  0.6341
 3565TIP3    H134890   0.651   0.909  19.028  1.2043 -0.4350  1.6299
 3565TIP3    H234891   0.702   1.033  18.959 -0.2411 -0.6728  0.0529
 3566TIP3   OH234892   0.496   0.491  17.447  1.0309  0.2352 -0.0903
 3566TIP3    H134893   0.483   0.400  17.474  0.6979  0.2539 -0.1890
 3566TIP3    H234894   0.590   0.498  17.432  0.7038 -1.1430 -3.8540
 3567TIP3   OH234895   4.500   6.437  18.122  0.4243 -0.0006  0.3055
 3567TIP3    H134896   4.423   6.380  18.128  1.5475 -1.5307  0.5219
 3567TIP3    H234897   4.548   6.405  18.046  0.9720  0.8049  0.2977
 3568TIP3   OH234898   4.466   7.587  18.303  0.4502  0.2134  0.2309
 3568TIP3    H134899   4.420   7.671  18.310  1.5316  0.9532 -1.2033
 3568TIP3    H234900   4.514   7.580  18.386  2.6684  2.4726 -0.7144
 3569TIP3   OH234901   5.252   5.854  16.398  0.5226  0.9250  0.1562
 3569TIP3    H134902   5.218   5.823  16.483  0.7452 -0.0588 -0.1022
 3569TIP3    H234903   5.342   5.822  16.395  0.0696 -0.3523 -1.0742
 3570TIP3   OH234904   7.449   3.779  19.362 -0.2612 -0.2362  0.1174
 3570TIP3    H134905   7.478   3.866  19.390  0.8283 -0.4095 -0.4237
 3570TIP3    H234906   7.504   3.718  19.410  0.9866 -0.5554 -1.6309
 3571TIP3   OH234907   1.396   4.581  19.499  0.7425 -0.5954 -0.0309
 3571TIP3    H134908   1.431   4.662  19.535  0.3489 -0.8005  0.8327
 3571TIP3    H234909   1.301   4.589  19.510  0.7764 -1.7086  1.2212
 3572TIP3   OH234910   0.769   4.775  19.163 -0.0729  0.6071 -0.3390
 3572TIP3    H134911   0.794   4.797  19.073  1.4287 -0.7840 -0.3104
 3572TIP3    H234912   0.736   4.686  19.157 -1.0491  0.9113  0.3344
 3573TIP3   OH234913   6.395   0.964  17.963 -0.1900 -0.0472 -0.4686
 3573TIP3    H134914   6.380   1.026  17.892 -0.1682 -0.7780 -1.1328
 3573TIP3    H234915   6.413   1.018  18.040 -0.0329  0.7568 -1.0627
 3574TIP3   OH234916   4.401   5.453  17.157  0.2269  0.2520  1.2640
 3574TIP3    H134917   4.315   5.428  17.124  0.9996 -2.2576  0.9659
 3574TIP3    H234918   4.459   5.449  17.081  1.4424 -2.6799  2.1942
 3575TIP3   OH234919   0.667   5.233  19.406 -0.4847  0.4482  0.2156
 3575TIP3    H134920   0.735   5.189  19.457 -0.7119 -0.3451 -0.1545
 3575TIP3    H234921   0.705   5.242  19.319 -1.2419 -0.9771 -0.2848
 3576TIP3   OH234922   6.338   7.140  17.639  0.2616 -0.9727  0.8673
 3576TIP3    H134923   6.325   7.148  17.733  1.2804  0.4885  0.9188
 3576TIP3    H234924   6.430   7.116  17.629  1.2304  2.5099  0.2149
 3577TIP3   OH234925   6.093   6.562  18.141  0.1626 -0.1634  0.2111
 3577TIP3    H134926   6.161   6.521  18.194  0.5339  0.1831  0.0152
 3577TIP3    H234927   6.140   6.629  18.091 -0.5779  1.1389  1.2000
 3578TIP3   OH234928   5.369   6.436  19.060 -0.2008  0.3493 -0.2347
 3578TIP3    H134929   5.400   6.365  19.116  1.0578  3.3145  3.1247
 3578TIP3    H234930   5.434   6.442  18.990  0.8092 -0.4204  0.6190
 3579TIP3   OH234931   4.138   3.666  17.185  0.2477 -0.2635  0.2899
 3579TIP3    H134932   4.185   3.739  17.225 -0.8810  0.5603  0.1624
 3579TIP3    H234933   4.202   3.626  17.127  0.7494  0.9608 -0.0454
 3580TIP3   OH234934   1.087   5.223  18.104  0.5603  0.1939 -0.0375
 3580TIP3    H134935   1.086   5.133  18.072 -0.1946  0.8345 -1.9794
 3580TIP3    H234936   0.998   5.255  18.086  0.7517  1.2836  0.8358
 3581TIP3   OH234937   6.699   4.080  18.939  0.8944 -0.2193  0.2229
 3581TIP3    H134938   6.652   3.996  18.939 -0.8180  0.6731  1.0360
 3581TIP3    H234939   6.760   4.073  18.867 -1.6537 -0.8812 -2.0527
 3582TIP3   OH234940   4.753   1.479  17.002  0.2239  0.0196  0.1043
 3582TIP3    H134941   4.801   1.397  17.017  0.1179  0.0765  0.8087
 3582TIP3    H234942   4.772   1.532  17.080 -1.9390 -0.4234  1.0053
 3583TIP3   OH234943   7.418   5.098  17.892  0.1539  1.1954 -0.3363
 3583TIP3    H134944   7.494   5.040  17.884 -0.6188  0.0454  0.5419
 3583TIP3    H234945   7.439   5.171  17.833  2.9261  2.0087  1.4180
 3584TIP3   OH234946   4.089   1.973  16.933  0.1696  0.1010 -0.1386
 3584TIP3    H134947   4.143   2.002  17.007 -0.6653  0.8980  0.1773
 3584TIP3    H234948   4.084   1.878  16.942 -1.6527  0.3198  2.0783
 3585TIP3   OH234949   7.152   2.881  19.286  0.7032 -0.1092  0.2539
 3585TIP3    H134950   7.177   2.856  19.375 -0.7099  0.6621  0.8910
 3585TIP3    H234951   7.181   2.972  19.277  0.2618  0.0196  0.1474
 3586TIP3   OH234952   3.478   2.062  17.694  0.9654 -0.3843  0.2657
 3586TIP3    H134953   3.556   2.043  17.642  0.7293 -0.0643 -0.2094
 3586TIP3    H234954   3.457   1.978  17.735  0.1249 -1.1300 -1.5593
 3587TIP3   OH234955   6.867   4.223  17.002  0.1963 -0.0682 -0.5900
 3587TIP3    H134956   6.956   4.193  16.983  0.3689  0.3903 -0.5156
 3587TIP3    H234957   6.814   4.143  17.002  0.8428 -0.5222  0.7391
 3588TIP3   OH234958   4.781   0.217  18.707 -0.3739 -0.0091 -0.1405
 3588TIP3    H134959   4.794   0.248  18.617  0.5772  1.1936  0.3638
 3588TIP3    H234960   4.868   0.224  18.747 -0.9488  0.3209  1.1126
 3589TIP3   OH234961   0.877   3.360  16.757 -0.1104 -0.5988 -0.0093
 3589TIP3    H134962   0.851   3.426  16.820 -0.3166 -1.0521  0.3847
 3589TIP3    H234963   0.797   3.338  16.710 -0.5075 -2.0483  1.2563
 3590TIP3   OH234964   5.704   2.413  18.644 -0.0127 -0.4847  0.6086
 3590TIP3    H134965   5.788   2.413  18.599 -0.9594  0.8719 -1.3026
 3590TIP3    H234966   5.654   2.343  18.602 -1.1387  1.2288 -1.0333
 3591TIP3   OH234967   2.950   0.240  17.127  0.3389 -0.0545  0.4622
 3591TIP3    H134968   2.996   0.156  17.128  0.1069 -0.1959  1.9203
 3591TIP3    H234969   2.940   0.261  17.034  0.0403 -1.8459  0.0432
 3592TIP3   OH234970   0.039   6.456  17.845 -0.1151 -0.2830  0.0624
 3592TIP3    H134971   0.022   6.397  17.772 -1.0705  0.2194 -0.1339
 3592TIP3    H234972  -0.042   6.504  17.857  0.2760  0.1869  0.9673
 3593TIP3   OH234973   6.032   5.545  16.844 -0.4197 -0.1169  0.0005
 3593TIP3    H134974   6.004   5.615  16.904  1.8499  0.1058  0.9109
 3593TIP3    H234975   5.977   5.471  16.866  1.1872 -0.4898  3.4870
 3594TIP3   OH234976   5.601   7.146  17.208  0.0241 -0.0261 -0.3453
 3594TIP3    H134977   5.611   7.240  17.193  0.0516 -0.2516 -1.8845
 3594TIP3    H234978   5.522   7.122  17.160 -0.1753 -0.7439  0.3120
 3595TIP3   OH234979   7.218   0.824  17.525 -0.0585  0.2730  0.2663
 3595TIP3    H134980   7.123   0.823  17.542 -0.3374  0.8140 -1.1041
 3595TIP3    H234981   7.257   0.845  17.609 -1.1751  0.3129  0.8011
 3596TIP3   OH234982   5.748   7.370  17.537  0.5179 -0.4585  0.3425
 3596TIP3    H134983   5.816   7.392  17.600  0.2613  0.2553  0.3780
 3596TIP3    H234984   5.731   7.452  17.490  1.1753 -1.1142 -1.1177
 3597TIP3   OH234985   5.538   0.842  18.560  0.3322 -0.3238 -0.3880
 3597TIP3    H134986   5.459   0.859  18.611  0.9457 -0.1003  0.5050
 3597TIP3    H234987   5.543   0.914  18.498  0.2919  0.1386  0.1340
 3598TIP3   OH234988   4.272   0.712  16.930  0.4079  0.3296 -1.0302
 3598TIP3    H134989   4.179   0.735  16.926  0.3108  0.5517  1.1591
 3598TIP3    H234990   4.272   0.617  16.945  0.4721  0.5192  0.2486
 3599TIP3   OH234991   1.613   7.438  17.521  0.4976 -0.0978 -0.3452
 3599TIP3    H134992   1.590   7.460  17.611 -1.6542  0.0165 -0.8795
 3599TIP3    H234993   1.548   7.372  17.495 -0.0952  1.1967 -2.3835
 3600TIP3   OH234994   6.535   4.619  18.739  0.1693  0.3706 -0.4508
 3600TIP3    H134995   6.576   4.533  18.744  1.2874  0.7722 -1.8138
 3600TIP3    H234996   6.577   4.660  18.663 -1.2049  1.6587 -0.5452
 3601TIP3   OH234997   4.132   7.064  19.237 -0.2063  0.4377 -0.1614
 3601TIP3    H134998   4.082   7.006  19.180  2.0977 -1.2483 -0.5930
 3601TIP3    H234999   4.213   7.017  19.254  0.2609  2.0130  2.4633
 3602TIP3   OH235000   4.384   7.001  17.550 -0.1876  0.3353  0.5044
 3602TIP3    H135001   4.449   6.977  17.616  0.3875 -1.4931 -0.6413
 3602TIP3    H235002   4.300   6.974  17.588  0.3210 -2.6570 -0.2231
 3603TIP3   OH235003   1.665   3.624  19.195  0.8332  0.2999  0.2935
 3603TIP3    H135004   1.759   3.605  19.196  0.7199 -0.4432 -0.9889
 3603TIP3    H235005   1.634   3.586  19.113 -0.5098  0.9463  0.4775
 3604TIP3   OH235006   5.248   4.586  18.263 -0.3497  0.3545  0.0166
 3604TIP3    H135007   5.241   4.653  18.331 -0.2081  0.1671  0.2203
 3604TIP3    H235008   5.167   4.535  18.272 -0.1462  0.0784  0.3206
 3605TIP3   OH235009   4.944   2.265  19.467 -0.0499 -0.3213  0.0912
 3605TIP3    H135010   5.021   2.315  19.440  0.0221 -0.5841 -0.1911
 3605TIP3    H235011   4.884   2.270  19.393  0.4202 -1.6010 -0.3992
 3606TIP3   OH235012   0.452   4.713  19.239  0.3006 -0.1676  0.2914
 3606TIP3    H135013   0.448   4.717  19.143 -0.8478 -1.0558  0.2736
 3606TIP3    H235014   0.544   4.724  19.260  0.6236 -0.3566 -0.9457
 3607TIP3   OH235015   6.045   2.442  19.324 -0.3132 -0.1545  0.0600
 3607TIP3    H135016   6.062   2.503  19.252  0.8145  1.2369  1.4163
 3607TIP3    H235017   5.984   2.489  19.381 -0.7500 -0.9950  0.2898
 3608TIP3   OH235018   3.842   5.419  17.027  0.2164  0.8920 -0.3055
 3608TIP3    H135019   3.865   5.458  16.943  2.0064  0.1895 -0.1945
 3608TIP3    H235020   3.880   5.331  17.023  0.2687  0.8223  1.1958
 3609TIP3   OH235021   3.772   7.058  19.503  0.0117 -0.1454  0.0816
 3609TIP3    H135022   3.774   7.144  19.462  0.4520 -0.1236  0.1417
 3609TIP3    H235023   3.689   7.019  19.474 -0.1536  0.2685 -0.0016
 3610TIP3   OH235024   1.774   5.859  17.863  0.3811  0.1291  0.0615
 3610TIP3    H135025   1.718   5.860  17.785 -1.3763  0.0155  1.2462
 3610TIP3    H235026   1.818   5.944  17.862  1.2840 -0.3214 -1.6358
 3611TIP3   OH235027   0.721   4.187  19.498  0.1267  0.2845  0.9262
 3611TIP3    H135028   0.809   4.156  19.516  0.4883  1.0013  0.4584
 3611TIP3    H235029   0.667   4.150  19.568  0.9812  0.6927  1.8314
 3612TIP3   OH235030   1.360   7.413  19.188  0.1709 -0.0189 -0.3159
 3612TIP3    H135031   1.420   7.350  19.147  0.2105 -0.8716  0.9932
 3612TIP3    H235032   1.289   7.359  19.223  1.1814  0.3752  2.5569
 3613TIP3   OH235033   4.640   2.191  16.972  0.2202  0.1046  0.6536
 3613TIP3    H135034   4.591   2.226  16.898 -2.2830 -1.2182  1.5753
 3613TIP3    H235035   4.695   2.122  16.934  0.9889  1.2153 -0.3149
 3614TIP3   OH235036   3.262   5.272  19.338 -0.3634 -0.8267 -0.2604
 3614TIP3    H135037   3.184   5.299  19.290 -0.3197  1.5352  0.8723
 3614TIP3    H235038   3.324   5.344  19.325  0.7098 -1.4919  0.9204
 3615TIP3   OH235039   7.534  -0.162  19.478  0.0854 -0.2439  0.2749
 3615TIP3    H135040   7.618  -0.121  19.456 -0.6657  0.7668 -0.8404
 3615TIP3    H235041   7.542  -0.185  19.570  1.7435 -0.5521  0.0820
 3616TIP3   OH235042   6.659   5.644  18.887 -0.1478 -0.0306  0.0596
 3616TIP3    H135043   6.596   5.706  18.924  1.2406  0.6154  1.4865
 3616TIP3    H235044   6.723   5.630  18.957  0.2428 -2.1882 -0.6373
 3617TIP3   OH235045   6.416   5.546  18.198  0.8143  0.0085 -0.0213
 3617TIP3    H135046   6.360   5.624  18.201 -0.9556 -1.1292 -1.2603
 3617TIP3    H235047   6.494   5.571  18.247  1.2296  3.2810 -2.0367
 3618TIP3   OH235048   5.030   5.938  16.942 -1.0471 -0.1929 -0.3724
 3618TIP3    H135049   4.968   5.867  16.960 -1.2840  0.7936  3.4995
 3618TIP3    H235050   5.116   5.899  16.957 -0.8791 -0.5971 -2.1449
 3619TIP3   OH235051   4.295   6.611  17.496 -0.2140  0.1492  0.0064
 3619TIP3    H135052   4.276   6.639  17.585 -3.4950  0.3412 -0.6328
 3619TIP3    H235053   4.279   6.516  17.497 -0.1074  0.1263 -0.3674
 3620TIP3   OH235054   5.006   2.606  16.697 -0.0583  0.1285 -0.9651
 3620TIP3    H135055   4.915   2.634  16.695 -0.1729 -0.1289  0.0263
 3620TIP3    H235056   5.056   2.684  16.673 -0.5270  0.3427 -1.2445
 3621TIP3   OH235057   4.147   5.340  17.111  0.7269  0.4094 -0.7041
 3621TIP3    H135058   4.113   5.323  17.024 -0.2687  1.1465 -0.4756
 3621TIP3    H235059   4.111   5.425  17.135  2.7027  1.2446 -0.4316
 3622TIP3   OH235060   1.577   4.753  18.049  0.6737  0.0412 -0.3796
 3622TIP3    H135061   1.517   4.821  18.080 -0.4117 -0.6324 -0.9373
 3622TIP3    H235062   1.633   4.798  17.986  0.3653  0.5539 -0.2939
 3623TIP3   OH235063   0.873   5.392  18.657 -0.1578 -0.7533 -0.2035
 3623TIP3    H135064   0.836   5.307  18.634  0.3633 -0.7235 -1.2130
 3623TIP3    H235065   0.807   5.456  18.629 -0.4712 -0.8148  0.3902
 3624TIP3   OH235066   5.967   3.000  17.839  0.3436  0.0652 -0.2901
 3624TIP3    H135067   5.972   3.003  17.744 -0.6145 -0.5047 -0.3755
 3624TIP3    H235068   6.045   3.047  17.869 -0.1175  1.5917 -1.3550
 3625TIP3   OH235069   1.922   2.507  19.567  0.2622 -0.1766  0.1761
 3625TIP3    H135070   1.861   2.544  19.630  0.2057  1.2908 -0.6964
 3625TIP3    H235071   1.869   2.451  19.511 -0.5183  1.7251 -1.0959
 3626TIP3   OH235072   3.757   6.629  17.748  0.3797 -0.3181 -0.5786
 3626TIP3    H135073   3.673   6.674  17.741  0.8335  0.4915 -0.9916
 3626TIP3    H235074   3.820   6.699  17.768  0.9323 -0.9283 -0.1501
 3627TIP3   OH235075   4.203   6.496  17.161 -0.0853  0.2246 -0.0631
 3627TIP3    H135076   4.146   6.475  17.235 -0.4838  0.0816 -0.4059
 3627TIP3    H235077   4.164   6.449  17.087  1.2298 -0.9620 -0.0338
 3628TIP3   OH235078   2.911   0.187  18.570  0.5607 -0.5765  0.2728
 3628TIP3    H135079   2.960   0.106  18.589  0.3660 -0.4436  1.4294
 3628TIP3    H235080   2.819   0.161  18.575  0.4965 -0.5874 -0.8080
 3629TIP3   OH235081   4.117   3.245  18.044 -0.3666  0.1314 -0.5012
 3629TIP3    H135082   4.132   3.339  18.055 -1.7167  0.2665  0.6166
 3629TIP3    H235083   4.022   3.236  18.054 -0.2375 -1.3592 -0.5088
 3630TIP3   OH235084   6.767   5.635  16.859  0.7824 -1.0438 -0.3890
 3630TIP3    H135085   6.765   5.716  16.911 -0.0455 -2.4194  1.8453
 3630TIP3    H235086   6.688   5.641  16.804 -1.1756 -1.7081  2.1381
 3631TIP3   OH235087   5.026   4.746  18.381  0.1187 -0.2453  0.2234
 3631TIP3    H135088   4.966   4.742  18.455  0.6415 -1.1627  0.6252
 3631TIP3    H235089   4.975   4.716  18.306 -0.2058 -0.0199  0.3532
 3632TIP3   OH235090   7.332   7.015  18.373  0.0135 -0.3027 -0.4559
 3632TIP3    H135091   7.408   7.022  18.430  1.0313  0.8542 -1.8625
 3632TIP3    H235092   7.332   7.098  18.324 -3.0874  0.4376  0.6047
 3633TIP3   OH235093   6.554   7.308  18.335 -0.6489  0.4293  0.7924
 3633TIP3    H135094   6.505   7.314  18.417 -1.0344  0.7294  0.5418
 3633TIP3    H235095   6.593   7.220  18.337 -1.7161 -0.0694  0.7142
 3634TIP3   OH235096   4.702   1.670  18.213  0.2982 -0.3519  0.4274
 3634TIP3    H135097   4.674   1.760  18.228  0.2506 -0.4040  0.6554
 3634TIP3    H235098   4.797   1.674  18.211  0.3119  0.1817 -2.4820
 3635TIP3   OH235099   4.170   0.446  17.189 -0.0424 -0.4328  0.0637
 3635TIP3    H135100   4.206   0.461  17.102  2.0560 -1.2290  0.7366
 3635TIP3    H235101   4.213   0.366  17.219 -1.2955 -0.5906  1.5399
 3636TIP3   OH235102   7.093   4.829  17.127  0.5743  0.0336  0.6746
 3636TIP3    H135103   7.014   4.787  17.159  0.2258  1.1951  1.3515
 3636TIP3    H235104   7.092   4.812  17.032  0.0364 -0.7887  0.8169
 3637TIP3   OH235105   7.449   1.992  18.259 -0.1258 -0.2519  0.2580
 3637TIP3    H135106   7.506   1.926  18.221 -0.2298 -0.3163  0.2143
 3637TIP3    H235107   7.381   1.942  18.305  0.4388 -0.1842  1.2086
 3638TIP3   OH235108   4.724   2.850  17.414 -0.0223  0.4104 -0.0777
 3638TIP3    H135109   4.715   2.945  17.425  1.0256  0.2566  3.6242
 3638TIP3    H235110   4.817   2.833  17.430 -0.5453 -1.3756  1.3575
 3639TIP3   OH235111   3.124   4.596  18.301 -0.2028  0.5698 -0.3702
 3639TIP3    H135112   3.062   4.661  18.268  1.0726  2.6874  1.1213
 3639TIP3    H235113   3.160   4.555  18.222  0.2781  3.0034 -1.4994
 3640TIP3   OH235114   4.789   0.950  18.850 -1.0816 -0.4824  0.3501
 3640TIP3    H135115   4.822   0.994  18.772  1.0563 -0.4187  1.2220
 3640TIP3    H235116   4.732   0.881  18.817 -0.8680  0.0508 -1.2141
 3641TIP3   OH235117   7.589   3.028  18.523 -0.0424 -0.0328  0.2505
 3641TIP3    H135118   7.612   3.082  18.599 -2.6893  0.5873  0.7280
 3641TIP3    H235119   7.643   3.061  18.452  0.4356  1.3283  1.2164
 3642TIP3   OH235120   2.737   6.104  19.420 -0.3442  0.5114  0.2419
 3642TIP3    H135121   2.699   6.143  19.498  0.7013 -0.2883  1.1843
 3642TIP3    H235122   2.705   6.013  19.420  0.9013  0.0512  0.6353
 3643TIP3   OH235123   4.112   4.001  18.493 -0.0469  0.0465  0.2792
 3643TIP3    H135124   4.029   4.036  18.460 -0.3045 -1.6081 -0.8980
 3643TIP3    H235125   4.106   3.907  18.480  1.9148 -0.1461  0.4559
 3644TIP3   OH235126   1.231   7.565  18.521 -0.0245  0.1396 -0.5982
 3644TIP3    H135127   1.287   7.584  18.597 -0.9852 -0.1654  0.2120
 3644TIP3    H235128   1.271   7.487  18.482  1.3257  1.1452 -1.2948
 3645TIP3   OH235129   2.482   4.428  18.837 -0.4574  0.1128 -0.1384
 3645TIP3    H135130   2.520   4.515  18.849 -1.0144  0.3116  0.2297
 3645TIP3    H235131   2.555   4.373  18.810 -0.0986  0.6957 -0.3744
 3646TIP3   OH235132   0.524   3.328  18.460  0.6404 -0.2345  0.3553
 3646TIP3    H135133   0.580   3.381  18.517 -0.1442  0.9328  0.0680
 3646TIP3    H235134   0.437   3.335  18.498  0.2432 -0.0550 -0.5477
 3647TIP3   OH235135   6.791   1.870  19.539 -0.1439 -0.0680 -0.2410
 3647TIP3    H135136   6.832   1.796  19.493  0.3163 -0.1239  0.2585
 3647TIP3    H235137   6.836   1.875  19.623 -1.3794 -0.3305  0.4640
 3648TIP3   OH235138   1.592   2.314  18.537 -0.0905 -0.3191 -0.4311
 3648TIP3    H135139   1.611   2.383  18.600 -0.8520 -0.6634  0.1832
 3648TIP3    H235140   1.670   2.258  18.540 -0.0763 -0.2731  0.1179
 3649TIP3   OH235141   1.148   6.851  17.934  0.0288  0.3874  0.2828
 3649TIP3    H135142   1.111   6.925  17.981 -2.5124 -0.4702 -0.2243
 3649TIP3    H235143   1.171   6.787  18.002  1.8622  1.4180  0.6898
 3650TIP3   OH235144   6.677   0.377  17.510  0.5156  0.0576  0.0971
 3650TIP3    H135145   6.696   0.356  17.602 -0.6727  0.7015  0.5219
 3650TIP3    H235146   6.717   0.307  17.460 -0.2606 -1.2431  1.2204
 3651TIP3   OH235147   4.902   2.627  18.879  0.1423 -0.1048  0.7045
 3651TIP3    H135148   4.863   2.714  18.879 -1.2485 -0.6754 -1.1468
 3651TIP3    H235149   4.842   2.574  18.931  0.4881 -0.1838  1.0328
 3652TIP3   OH235150   5.531   2.199  17.788  0.1073 -0.0093  0.6669
 3652TIP3    H135151   5.586   2.167  17.859 -0.1476  0.6666  1.1859
 3652TIP3    H235152   5.466   2.130  17.775 -0.0792  0.0184  1.3695
 3653TIP3   OH235153   2.922   2.404  19.499  0.4178  0.2112  0.8406
 3653TIP3    H135154   2.914   2.312  19.476 -0.5218  0.7792 -1.4149
 3653TIP3    H235155   2.985   2.406  19.571 -0.2521 -2.2427  1.5790
 3654TIP3   OH235156   4.783   7.195  17.209 -0.4787 -0.0355  0.0242
 3654TIP3    H135157   4.726   7.174  17.135 -0.8687 -2.1832  0.8688
 3654TIP3    H235158   4.741   7.154  17.284  0.8543  0.5573  1.1378
 3655TIP3   OH235159   7.261   5.067  18.339  0.5352  0.2796 -0.0854
 3655TIP3    H135160   7.279   5.156  18.307 -1.6270  0.5504 -0.7105
 3655TIP3    H235161   7.211   5.026  18.268  0.4250 -1.0058  0.7146
 3656TIP3   OH235162   0.138   7.252  19.083  0.0142  0.3036 -0.3188
 3656TIP3    H135163   0.113   7.321  19.144  0.2851  0.2362 -0.1327
 3656TIP3    H235164   0.229   7.270  19.061  0.2886 -0.3645  0.2316
 3657TIP3   OH235165   0.565   3.948  16.488 -0.2311 -0.3442  0.1407
 3657TIP3    H135166   0.494   3.969  16.428 -0.0469 -1.4929 -0.4979
 3657TIP3    H235167   0.644   3.980  16.444 -0.2831  0.5048  0.6372
 3658TIP3   OH235168   6.003   4.227  19.332  0.1137  0.0209  0.2265
 3658TIP3    H135169   5.987   4.149  19.280  1.9929 -0.4802  0.3307
 3658TIP3    H235170   6.071   4.202  19.394  2.2782  2.2436 -1.0575
 3659TIP3   OH235171   3.499   0.362  18.140  0.2580  0.7594 -0.0817
 3659TIP3    H135172   3.477   0.306  18.214  1.6204  2.3051  1.5986
 3659TIP3    H235173   3.424   0.355  18.081 -1.1356 -0.1236  1.7038
 3660TIP3   OH235174   0.348   6.732  16.981 -0.3699  0.3124 -0.0076
 3660TIP3    H135175   0.371   6.645  17.012  1.0389  0.0695 -1.5955
 3660TIP3    H235176   0.266   6.753  17.025 -1.0240 -2.0368 -0.0157
 3661TIP3   OH235177   2.184   5.531  16.958 -0.3376 -0.2319 -0.3208
 3661TIP3    H135178   2.210   5.622  16.972  0.8085 -1.0088  4.0128
 3661TIP3    H235179   2.265   5.487  16.933  0.0273 -0.6729  1.5431
 3662TIP3   OH235180   3.066   4.400  17.327 -0.1056 -0.0211  0.3111
 3662TIP3    H135181   3.129   4.449  17.275 -0.6015  1.6746  1.2375
 3662TIP3    H235182   3.094   4.411  17.418 -0.9850 -0.3495  0.6427
 3663TIP3   OH235183   0.680   2.424  17.778 -0.3313 -0.2341 -0.1756
 3663TIP3    H135184   0.713   2.334  17.773  0.1268 -0.0349 -1.0203
 3663TIP3    H235185   0.615   2.429  17.707  0.3244  0.3609 -0.7517
 3664TIP3   OH235186   3.260   3.575  19.139  0.0811 -0.2785  0.2414
 3664TIP3    H135187   3.296   3.591  19.051  1.9184  1.1360  1.1703
 3664TIP3    H235188   3.166   3.586  19.128  0.0624 -1.7487 -1.8496
 3665TIP3   OH235189   5.940   3.570  18.516 -0.1192 -0.4171  0.0718
 3665TIP3    H135190   6.000   3.640  18.542 -0.7794  0.1989 -0.0166
 3665TIP3    H235191   5.854   3.611  18.518 -0.4418 -1.0416 -0.6735
 3666TIP3   OH235192   3.954   6.026  17.860  0.1819  0.2287 -0.5493
 3666TIP3    H135193   3.894   5.995  17.792  1.1749 -0.8421 -0.9747
 3666TIP3    H235194   3.979   6.114  17.832 -0.0506  0.1127 -1.1301
 3667TIP3   OH235195   4.135   5.322  18.560  0.2604 -0.1604  0.5295
 3667TIP3    H135196   4.087   5.362  18.488 -0.8371  1.5681  2.1351
 3667TIP3    H235197   4.067   5.280  18.613  0.5960  1.2234  2.1547
 3668TIP3   OH235198   5.662   6.509  19.023 -0.1390 -0.5767 -0.6196
 3668TIP3    H135199   5.648   6.572  19.093  0.1707 -0.2573 -0.8432
 3668TIP3    H235200   5.755   6.487  19.029  0.2995  0.7263 -1.9810
 3669TIP3   OH235201   5.233   1.368  18.497 -0.1964 -0.2620 -0.0419
 3669TIP3    H135202   5.174   1.295  18.479 -0.7116  0.0791  0.2546
 3669TIP3    H235203   5.223   1.386  18.590 -1.1265  1.0833 -0.3664
 3670TIP3   OH235204   2.332   5.003  17.731 -0.5617 -0.1879  0.2764
 3670TIP3    H135205   2.259   4.942  17.716 -0.0831 -0.5260 -0.8432
 3670TIP3    H235206   2.292   5.079  17.771 -1.5930 -0.2686 -0.5514
 3671TIP3   OH235207   4.480   6.583  17.787 -0.6990 -0.2158 -0.3986
 3671TIP3    H135208   4.435   6.510  17.743  0.0613 -1.4541  0.8101
 3671TIP3    H235209   4.573   6.564  17.775 -0.4916  0.5956 -0.1166
 3672TIP3   OH235210   4.604   7.106  17.396  0.2265 -0.4466  1.1957
 3672TIP3    H135211   4.671   7.131  17.461  0.3913  2.5409  0.0605
 3672TIP3    H235212   4.530   7.076  17.448  0.4938  1.4761  2.8171
 3673TIP3   OH235213   1.716   6.718  18.183 -0.2525 -0.2165 -0.2997
 3673TIP3    H135214   1.673   6.801  18.203  0.6066  0.3703 -0.8108
 3673TIP3    H235215   1.647   6.652  18.188 -0.6783  0.3202  1.4996
 3674TIP3   OH235216   4.203   6.560  18.434 -0.2766 -0.2835  0.1133
 3674TIP3    H135217   4.268   6.553  18.504  0.4682  0.0737 -0.5320
 3674TIP3    H235218   4.126   6.598  18.476 -0.1707 -0.9469  0.9430
 3675TIP3   OH235219   2.162   0.107  18.150 -0.5241  0.2087 -0.3854
 3675TIP3    H135220   2.203   0.106  18.064  0.6594  1.2810  0.1287
 3675TIP3    H235221   2.142   0.015  18.168  1.9193 -0.4387 -0.5663
 3676TIP3   OH235222   3.021   7.578  17.485  0.3013  0.2095  0.1262
 3676TIP3    H135223   3.013   7.654  17.544  0.9343  0.3117  0.0867
 3676TIP3    H235224   3.113   7.578  17.459 -0.3391  1.3872 -2.4977
 3677TIP3   OH235225   6.463   1.609  18.323  0.1129  0.3497 -0.7763
 3677TIP3    H135226   6.534   1.590  18.261  0.1840  0.8736 -0.8635
 3677TIP3    H235227   6.441   1.524  18.360 -0.3998 -0.0879 -2.0154
 3678TIP3   OH235228   2.177   4.742  17.096  0.5386  0.0416 -0.0907
 3678TIP3    H135229   2.232   4.669  17.068  3.0231  2.3967 -1.8773
 3678TIP3    H235230   2.180   4.739  17.192 -0.3486 -2.7184 -0.0505
 3679TIP3   OH235231   2.924   1.623  18.535  0.5231  0.4169 -0.0606
 3679TIP3    H135232   2.960   1.672  18.608  0.0923  1.2108 -0.3663
 3679TIP3    H235233   2.898   1.690  18.471 -0.3714 -0.1871 -0.3522
 3680TIP3   OH235234   3.966   0.673  18.522 -0.2494 -0.0969 -0.6109
 3680TIP3    H135235   3.949   0.600  18.582 -0.1595 -0.0658 -0.5469
 3680TIP3    H235236   4.008   0.739  18.577 -0.3067 -0.0078 -0.6734
 3681TIP3   OH235237   3.365   4.617  17.937 -0.0554 -0.5407  0.2096
 3681TIP3    H135238   3.421   4.546  17.968 -0.0908 -0.7343 -0.1567
 3681TIP3    H235239   3.285   4.609  17.989  0.4333  0.0230  1.0582
 3682TIP3   OH235240   1.358   3.419  18.980 -0.0909  0.1211 -0.0634
 3682TIP3    H135241   1.357   3.501  18.931  0.3237  0.2371  0.1196
 3682TIP3    H235242   1.270   3.383  18.969 -0.4265  0.8343  0.2682
 3683TIP3   OH235243   6.769   6.024  17.707 -0.4804  0.4504  0.8129
 3683TIP3    H135244   6.787   6.083  17.781  0.0143  0.8548  0.3854
 3683TIP3    H235245   6.726   5.948  17.746  1.1203 -0.0318  1.7425
 3684TIP3   OH235246   2.036   5.024  17.294 -0.3299 -0.3756  0.6097
 3684TIP3    H135247   1.999   5.070  17.369 -1.7128  1.6330 -1.1972
 3684TIP3    H235248   1.970   4.960  17.268  0.2981 -1.3241  1.2492
 3685TIP3   OH235249   6.129   7.498  17.423  0.2378 -0.5658 -0.3499
 3685TIP3    H135250   6.064   7.554  17.465  0.3325  0.5393 -1.6342
 3685TIP3    H235251   6.174   7.455  17.496 -3.0132 -2.7235  0.5945
 3686TIP3   OH235252   5.595   4.325  18.486 -0.2651  0.0245  0.0261
 3686TIP3    H135253   5.552   4.407  18.463 -2.6307 -1.2629 -0.5339
 3686TIP3    H235254   5.655   4.308  18.413  2.0107  2.2699  1.2128
 3687TIP3   OH235255   3.470   3.542  18.286  0.0976 -0.0507  0.0506
 3687TIP3    H135256   3.438   3.458  18.254  1.9087 -1.7121  2.3211
 3687TIP3    H235257   3.515   3.522  18.368  2.0587  2.8796 -0.1418
 3688TIP3   OH235258   1.387   1.219  18.062  0.2946 -0.3096 -0.1742
 3688TIP3    H135259   1.408   1.127  18.050 -0.9024 -0.7568  0.9635
 3688TIP3    H235260   1.351   1.247  17.978  0.8271 -0.8242 -0.5792
 3689TIP3   OH235261   4.787   1.987  16.867  0.8526 -0.0198  0.2043
 3689TIP3    H135262   4.794   1.895  16.840  1.2425  0.5012 -1.6511
 3689TIP3    H235263   4.876   2.013  16.888  0.7850  0.0193  0.4494
 3690TIP3   OH235264   4.515   0.385  18.572 -0.4443 -0.5216 -0.6956
 3690TIP3    H135265   4.431   0.340  18.560 -0.2857 -0.6202 -1.5150
 3690TIP3    H235266   4.576   0.336  18.517  0.0143 -0.0649 -0.6000
 3691TIP3   OH235267   1.926   3.195  19.006  0.0139  0.4530 -0.0821
 3691TIP3    H135268   1.963   3.255  19.070  1.2439  1.3657 -1.5793
 3691TIP3    H235269   1.993   3.128  18.994  1.1413  1.8672 -2.4688
 3692TIP3   OH235270   0.213   3.524  18.836  0.0453  0.1824 -0.4433
 3692TIP3    H135271   0.233   3.476  18.755  4.2814  1.6521 -0.5127
 3692TIP3    H235272   0.184   3.456  18.897  2.1408 -1.9275 -1.6206
 3693TIP3   OH235273   0.452   7.097  17.730 -0.6539 -0.2563 -0.0708
 3693TIP3    H135274   0.467   7.136  17.816 -0.0342  0.2840 -0.4158
 3693TIP3    H235275   0.452   7.171  17.670  0.0975 -0.7436 -0.6831
 3694TIP3   OH235276   6.970   7.544  18.041  0.3066 -0.2819 -0.2104
 3694TIP3    H135277   7.052   7.561  17.994  0.0682 -1.0654 -0.9242
 3694TIP3    H235278   6.986   7.462  18.089 -0.3100 -0.8623 -0.9724
 3695TIP3   OH235279   2.593   2.676  17.284 -0.1425 -0.1440  0.0685
 3695TIP3    H135280   2.549   2.666  17.200 -1.3958 -0.5202  0.7346
 3695TIP3    H235281   2.661   2.609  17.285  0.1856  0.1631 -0.8161
 3696TIP3   OH235282   1.339   0.561  17.000  0.2283 -0.0626  0.0236
 3696TIP3    H135283   1.320   0.638  17.054  0.2416 -0.5594  0.7510
 3696TIP3    H235284   1.254   0.520  16.987  0.4408 -0.9391  1.2154
 3697TIP3   OH235285   7.010   6.866  18.832  0.0903  0.5489 -0.4167
 3697TIP3    H135286   6.971   6.909  18.756 -3.5652 -1.2069  0.2204
 3697TIP3    H235287   7.058   6.792  18.796  0.1508  0.9159 -1.1028
 3698TIP3   OH235288   3.222   5.981  17.377 -0.1131 -0.1950  0.3640
 3698TIP3    H135289   3.219   6.073  17.400 -0.8167  0.2308 -1.2754
 3698TIP3    H235290   3.314   5.956  17.390 -0.1836  0.3268  2.1401
 3699TIP3   OH235291   5.400   0.252  17.769 -0.0214  0.1865  0.7791
 3699TIP3    H135292   5.327   0.252  17.831 -0.2746  1.4892  0.5075
 3699TIP3    H235293   5.361   0.279  17.686  0.6095  0.0260  0.4253
 3700TIP3   OH235294   7.230   4.496  17.512 -0.9318 -0.0970  0.3915
 3700TIP3    H135295   7.290   4.434  17.469 -0.2796  0.5137  0.3974
 3700TIP3    H235296   7.276   4.580  17.509 -1.8719  0.4299  0.2322
 3701TIP3   OH235297   6.171   5.655  18.926  0.5543  0.1721 -1.2767
 3701TIP3    H135298   6.131   5.621  18.846 -0.1195 -1.7602 -0.1599
 3701TIP3    H235299   6.264   5.665  18.903  0.4218 -0.5945 -2.2291
 3702TIP3   OH235300   2.816   1.889  19.115  0.0251  0.1615 -0.5296
 3702TIP3    H135301   2.802   1.886  19.210  0.9005  2.2579 -0.2805
 3702TIP3    H235302   2.764   1.964  19.086  0.7399  0.2830 -1.5172
 3703TIP3   OH235303   1.956   6.339  19.010  0.5935  0.2196  0.8940
 3703TIP3    H135304   1.983   6.378  19.094  2.3141 -0.2538  0.6016
 3703TIP3    H235305   1.880   6.285  19.033  0.9431  0.2049  2.1289
 3704TIP3   OH235306   4.229   1.812  19.226  0.0118  0.4823 -0.1284
 3704TIP3    H135307   4.176   1.889  19.205  0.1853  0.9092  0.9319
 3704TIP3    H235308   4.308   1.848  19.267  0.3844 -0.2340 -0.1929
 3705TIP3   OH235309   6.919   5.491  18.416  0.4030 -0.7078  0.0778
 3705TIP3    H135310   6.977   5.437  18.470  1.5765  0.6816  0.2672
 3705TIP3    H235311   6.879   5.553  18.477  0.1291 -0.4668 -0.3406
 3706TIP3   OH235312   3.249   3.700  17.888 -0.3396  0.1699  0.4296
 3706TIP3    H135313   3.302   3.650  17.826  1.1209  1.8412  0.2659
 3706TIP3    H235314   3.302   3.776  17.909 -2.1933  1.3049  1.2314
 3707TIP3   OH235315   6.354   7.538  17.892 -0.0261 -0.4160  0.1821
 3707TIP3    H135316   6.299   7.508  17.819 -1.0292 -0.2875  0.8561
 3707TIP3    H235317   6.367   7.460  17.945 -1.0691 -0.0803  0.9555
 3708TIP3   OH235318   1.678   4.010  18.835  0.2828 -0.7115  0.4665
 3708TIP3    H135319   1.588   4.004  18.865  0.0769 -1.9656 -0.3025
 3708TIP3    H235320   1.714   4.087  18.879 -0.6295 -1.2174  2.1564
 3709TIP3   OH235321   7.389   1.091  18.920 -0.0656 -0.9067  0.2618
 3709TIP3    H135322   7.380   1.175  18.874 -2.8590 -1.9064 -1.2305
 3709TIP3    H235323   7.333   1.100  18.997 -0.1061 -1.3037  0.2773
 3710TIP3   OH235324   5.266   5.611  19.605 -0.1707 -0.2775  0.0798
 3710TIP3    H135325   5.323   5.645  19.674  1.8222 -1.0406 -1.1200
 3710TIP3    H235326   5.315   5.539  19.566 -1.1137  0.2617 -2.2899
 3711TIP3   OH235327   4.312   6.308  16.798  0.0752  0.1907  0.1973
 3711TIP3    H135328   4.287   6.398  16.780 -2.0021 -0.4743 -0.5250
 3711TIP3    H235329   4.357   6.312  16.883 -0.6865  1.7793  0.5587
 3712TIP3   OH235330   1.823   0.987  19.337  0.3233  0.4870  0.2216
 3712TIP3    H135331   1.796   0.954  19.423  1.1586  0.3557  0.4437
 3712TIP3    H235332   1.742   0.995  19.288  0.0796 -2.2020  0.0396
 3713TIP3   OH235333   3.953   0.795  17.839  0.1038 -0.3822  0.2588
 3713TIP3    H135334   3.927   0.825  17.752 -0.1327 -0.1470  0.4086
 3713TIP3    H235335   3.910   0.856  17.899  2.0982  0.9298  0.4855
 3714TIP3   OH235336   5.381   1.994  17.788 -0.9032  0.0151  0.5576
 3714TIP3    H135337   5.385   1.954  17.701 -4.3440 -1.0720  0.7502
 3714TIP3    H235338   5.420   1.929  17.846  0.5876  0.3661  0.0082
 3715TIP3   OH235339   4.171   6.564  17.845  0.0431  0.1396  0.6123
 3715TIP3    H135340   4.256   6.566  17.889  0.3910 -0.2945 -0.0273
 3715TIP3    H235341   4.116   6.623  17.897  0.9255  0.9759  0.6153
 3716TIP3   OH235342   2.792   4.599  19.179 -0.2730  0.9574 -0.1586
 3716TIP3    H135343   2.886   4.616  19.176  0.4143 -2.3323 -0.6211
 3716TIP3    H235344   2.768   4.619  19.270  0.9090  1.5225  0.0559
 3717TIP3   OH235345   3.499   0.481  16.593  0.0419 -0.1772 -0.3810
 3717TIP3    H135346   3.507   0.386  16.597  1.0343 -0.1276 -0.9069
 3717TIP3    H235347   3.582   0.513  16.627 -0.2968  0.5101 -0.1851
 3718TIP3   OH235348   5.415   7.239  18.714 -0.0897 -0.2667  0.3820
 3718TIP3    H135349   5.444   7.252  18.804  1.3387  1.5950 -0.2796
 3718TIP3    H235350   5.478   7.178  18.677 -0.7240 -1.0959  0.6389
 3719TIP3   OH235351   2.479   1.590  18.295 -0.2200  0.2374 -0.0005
 3719TIP3    H135352   2.572   1.575  18.307 -0.2317  0.5060  0.4642
 3719TIP3    H235353   2.467   1.683  18.316 -0.7104  0.0212  0.7027
 3720TIP3   OH235354   6.007   6.262  18.960 -0.4218 -0.1561  0.0952
 3720TIP3    H135355   5.956   6.186  18.990 -1.4947  0.1138 -0.9740
 3720TIP3    H235356   5.984   6.271  18.868  0.0665  1.1780  0.0902
 3721TIP3   OH235357   7.227   5.447  18.607 -0.1269  0.1940  0.3733
 3721TIP3    H135358   7.276   5.421  18.685 -0.9251 -0.0738  0.7973
 3721TIP3    H235359   7.178   5.369  18.582 -1.0644  0.7200  0.5169
 3722TIP3   OH235360   2.958   5.849  17.467 -0.3447  0.4173 -0.1104
 3722TIP3    H135361   2.926   5.909  17.534 -0.3383  0.1965  0.0940
 3722TIP3    H235362   3.053   5.860  17.467 -0.1646 -0.8044  1.1239
 3723TIP3   OH235363   3.403   3.568  18.905  0.3508  0.0151 -0.0424
 3723TIP3    H135364   3.484   3.518  18.911 -0.8214 -2.4137 -2.4665
 3723TIP3    H235365   3.410   3.613  18.820 -0.5580  0.2939  0.0254
 3724TIP3   OH235366   1.657   3.339  17.238 -0.3379  0.1020  0.5077
 3724TIP3    H135367   1.569   3.348  17.274 -0.4591 -0.0431  0.2502
 3724TIP3    H235368   1.677   3.426  17.203 -0.0815  0.3393  1.2272
 3725TIP3   OH235369   6.257   2.828  19.084  0.0871  0.1886  0.2375
 3725TIP3    H135370   6.352   2.826  19.096  0.2116 -1.2117 -0.7406
 3725TIP3    H235371   6.233   2.736  19.076 -0.9549  0.6201 -2.3782
 3726TIP3   OH235372   1.479   2.818  17.685  0.1559 -0.0236  0.1172
 3726TIP3    H135373   1.530   2.857  17.614 -1.6439  0.7125 -0.8225
 3726TIP3    H235374   1.397   2.866  17.685 -0.7739 -1.5206  1.2234
 3727TIP3   OH235375   2.583   0.089  17.246 -0.3883  0.1309  0.4610
 3727TIP3    H135376   2.556   0.019  17.305 -3.3044  1.1403  0.4854
 3727TIP3    H235377   2.624   0.044  17.173 -0.5950 -1.4668  1.2759
 3728TIP3   OH235378   4.259   0.106  17.040 -0.3087  0.5098 -0.6457
 3728TIP3    H135379   4.327   0.158  16.997  0.5077 -0.4869 -0.6128
 3728TIP3    H235380   4.283   0.015  17.020 -1.6963  0.1363 -0.7197
 3729TIP3   OH235381   4.530   5.459  17.389 -0.5775 -0.1177 -0.9565
 3729TIP3    H135382   4.461   5.435  17.328 -1.4784 -1.1354  0.3791
 3729TIP3    H235383   4.508   5.411  17.469  0.7172  0.9076  0.0631
 3730TIP3   OH235384   6.649   4.058  16.941 -0.1473  0.1015 -0.6778
 3730TIP3    H135385   6.652   4.095  16.853  2.6501 -2.9885 -2.1275
 3730TIP3    H235386   6.572   4.002  16.941 -0.8215  1.0183 -0.7166
 3731TIP3   OH235387   3.621   2.333  17.286  0.0248 -0.2188 -0.0513
 3731TIP3    H135388   3.653   2.294  17.205  1.5628  2.9898 -1.1754
 3731TIP3    H235389   3.565   2.405  17.256  0.7338  1.1144  1.6656
 3732TIP3   OH235390   2.144   0.748  18.377 -0.0573  0.1998  0.3972
 3732TIP3    H135391   2.092   0.699  18.314  0.3545 -0.7742  0.7964
 3732TIP3    H235392   2.234   0.721  18.361  0.3442  1.7950 -0.2209
 3733TIP3   OH235393   2.021   3.958  18.154  0.4385  0.6194 -0.0691
 3733TIP3    H135394   2.037   3.919  18.240  0.3026  0.8175  0.0455
 3733TIP3    H235395   2.101   3.941  18.105 -0.5277 -2.1214 -0.8904
 3734TIP3   OH235396   0.474   7.316  17.561  0.0489 -0.0898 -0.0467
 3734TIP3    H135397   0.428   7.317  17.477 -0.1179 -1.7116 -0.0228
 3734TIP3    H235398   0.555   7.364  17.546 -1.6683  3.1005 -0.0245
 3735TIP3   OH235399   5.234   3.606  17.908  0.0770  0.6853  0.2071
 3735TIP3    H135400   5.243   3.605  17.813  0.3800  0.3536  0.2355
 3735TIP3    H235401   5.141   3.626  17.923 -0.1493 -0.0271 -0.1752
 3736TIP3   OH235402   5.530   3.814  18.550 -0.3538 -0.1444  0.1458
 3736TIP3    H135403   5.561   3.825  18.640 -0.2921  1.1715 -0.0131
 3736TIP3    H235404   5.476   3.891  18.534 -0.1466 -0.2255 -1.0391
 3737TIP3   OH235405   2.697   6.299  17.432  0.1659  0.4720  0.0094
 3737TIP3    H135406   2.709   6.387  17.468  0.8902  1.4404 -2.3770
 3737TIP3    H235407   2.680   6.244  17.508 -2.3015  2.9738  1.4623
 3738TIP3   OH235408   3.969   6.885  19.486  0.1211 -0.2963  0.4492
 3738TIP3    H135409   4.026   6.942  19.435 -0.2798  0.7843  1.1815
 3738TIP3    H235410   3.905   6.944  19.527  0.2445 -1.1538  1.9659
 3739TIP3   OH235411   4.471   1.605  17.643 -0.1417  0.5859 -0.0605
 3739TIP3    H135412   4.539   1.595  17.577  0.0337  0.5683  0.1229
 3739TIP3    H235413   4.405   1.660  17.602  0.3195  1.2128  0.0193
 3740TIP3   OH235414   3.896   3.544  19.384  0.2569 -0.2559 -0.9391
 3740TIP3    H135415   3.922   3.528  19.474 -3.6580  0.4827  0.5106
 3740TIP3    H235416   3.874   3.457  19.349  0.8002 -0.4250 -0.8729
 3741TIP3   OH235417   5.079   5.703  19.419  0.4309 -0.4652 -0.1573
 3741TIP3    H135418   5.134   5.747  19.355  0.1505  0.4376  0.2101
 3741TIP3    H235419   5.140   5.649  19.470  0.9612  0.4107  0.1522
 3742TIP3   OH235420   0.615   3.235  17.123 -0.0098  0.0872  0.1638
 3742TIP3    H135421   0.569   3.170  17.176  1.4759 -0.1107  1.2814
 3742TIP3    H235422   0.622   3.194  17.036  0.3725 -0.9879  0.6930
 3743TIP3   OH235423   7.636   3.671  18.762  0.5677 -0.0937 -0.4990
 3743TIP3    H135424   7.627   3.726  18.684 -1.2605  1.4873  0.7300
 3743TIP3    H235425   7.728   3.679  18.787  0.4109  2.2361 -0.5245
 3744TIP3   OH235426   0.451   7.254  18.257  0.3456 -0.5055  0.3332
 3744TIP3    H135427   0.509   7.320  18.218 -0.3735  0.2772  0.5548
 3744TIP3    H235428   0.509   7.202  18.313  1.3371 -1.4337 -1.4559
 3745TIP3   OH235429   1.819   5.343  19.241 -0.1739 -0.2550 -0.3164
 3745TIP3    H135430   1.753   5.281  19.272 -0.4111 -0.9248 -2.0787
 3745TIP3    H235431   1.902   5.308  19.274 -0.0647 -2.6164 -2.7614
 3746TIP3   OH235432   2.439   1.419  18.501  0.0206 -0.8854  0.6833
 3746TIP3    H135433   2.458   1.501  18.456 -2.1407 -0.5535  0.2932
 3746TIP3    H235434   2.522   1.396  18.544  1.2533  0.4033 -0.8708
 3747TIP3   OH235435   7.448   2.227  19.641  0.1210  0.2910 -0.3783
 3747TIP3    H135436   7.452   2.232  19.736  0.4208 -2.1265 -0.2096
 3747TIP3    H235437   7.526   2.274  19.612  1.7818 -1.5871  0.7620
 3748TIP3   OH235438   5.164   6.429  16.213  0.0748  0.2306  0.1024
 3748TIP3    H135439   5.186   6.364  16.147 -0.8286 -0.8752  0.8399
 3748TIP3    H235440   5.245   6.442  16.263  0.6504  0.7790 -0.9556
 3749TIP3   OH235441   6.626   1.530  18.108  0.4378  0.1011  0.0906
 3749TIP3    H135442   6.678   1.486  18.041 -1.5408 -0.7396 -0.9772
 3749TIP3    H235443   6.566   1.586  18.059 -1.2593 -0.7541  1.0710
 3750TIP3   OH235444   5.866   2.090  16.842 -0.1646  0.1063 -0.2052
 3750TIP3    H135445   5.773   2.106  16.858 -0.2436  0.5182 -1.0182
 3750TIP3    H235446   5.911   2.161  16.890 -0.2825  0.0882 -0.0679
 3751TIP3   OH235447   4.586   5.915  19.519 -0.3045 -0.2923 -0.1888
 3751TIP3    H135448   4.530   5.839  19.510  0.4369 -1.1192  1.6343
 3751TIP3    H235449   4.675   5.880  19.517  0.1102  0.7621 -1.1549
 3752TIP3   OH235450   4.884   3.448  19.706  0.1074  0.6808  0.0289
 3752TIP3    H135451   4.933   3.478  19.629 -0.4418  0.6707 -0.3312
 3752TIP3    H235452   4.890   3.353  19.701  0.1464  0.6819  0.0510
 3753TIP3   OH235453   5.068   7.421  17.522  0.7650  0.3921  0.2593
 3753TIP3    H135454   5.147   7.452  17.478  0.9413  0.2601  0.4808
 3753TIP3    H235455   5.026   7.501  17.554  0.9954  0.4335  0.4577
 3754TIP3   OH235456   5.801   3.393  16.899 -0.0426  0.3875 -0.9673
 3754TIP3    H135457   5.863   3.389  16.971  1.1988  3.2209 -1.7462
 3754TIP3    H235458   5.780   3.486  16.891 -3.6566 -0.3237 -1.4133
 3755TIP3   OH235459   0.975   0.669  18.678 -0.3224 -0.1823 -0.0021
 3755TIP3    H135460   0.882   0.667  18.657 -0.9719  0.9858  2.3403
 3755TIP3    H235461   1.010   0.744  18.630 -0.4342 -0.9495 -1.3190
 3756TIP3   OH235462   3.259   2.311  17.868  0.6023 -0.1582 -0.4229
 3756TIP3    H135463   3.225   2.244  17.808 -0.2063  0.9686 -1.2505
 3756TIP3    H235464   3.303   2.374  17.811  1.3314  0.0377  0.3478
 3757TIP3   OH235465   7.179   5.095  19.687  0.2854 -0.3311  0.1925
 3757TIP3    H135466   7.266   5.063  19.709  0.3386 -2.7683 -2.9111
 3757TIP3    H235467   7.193   5.184  19.655  1.2028  0.2414  2.0215
 3758TIP3   OH235468   1.762   5.854  19.486  0.4728 -0.2458  0.5942
 3758TIP3    H135469   1.667   5.862  19.483  0.5972  1.6514 -1.6248
 3758TIP3    H235470   1.781   5.778  19.431  0.2702  0.1792 -0.0766
 3759TIP3   OH235471   1.653   2.878  17.459  0.6517  0.2127  0.1936
 3759TIP3    H135472   1.741   2.856  17.488  1.1362  1.4633 -0.2489
 3759TIP3    H235473   1.647   2.843  17.370  1.8660  2.7591 -0.9925
 3760TIP3   OH235474   6.719   5.763  19.304  0.4194  0.5359 -0.0281
 3760TIP3    H135475   6.762   5.698  19.248  0.4040  0.6703 -0.1993
 3760TIP3    H235476   6.761   5.846  19.280 -0.8452  0.8884 -1.1881
 3761TIP3   OH235477   2.547   1.128  18.696 -0.0289  0.4431 -0.3531
 3761TIP3    H135478   2.584   1.208  18.658  0.1891  0.4162 -0.1935
 3761TIP3    H235479   2.606   1.105  18.767 -0.4188  0.4777 -0.0077
 3762TIP3   OH235480   6.808   3.669  17.500 -0.1938 -0.5112  0.5006
 3762TIP3    H135481   6.773   3.580  17.506  0.7771 -0.9403  0.1873
 3762TIP3    H235482   6.892   3.657  17.455  0.5549  0.4003  1.6165
 3763TIP3   OH235483   6.282   5.160  17.652 -0.4133 -0.3024 -0.2888
 3763TIP3    H135484   6.293   5.072  17.616  1.5786  0.4716 -1.7193
 3763TIP3    H235485   6.201   5.193  17.612  0.7231 -0.1926 -2.6259
 3764TIP3   OH235486   5.980   5.084  17.791 -0.3752 -0.3622 -0.3812
 3764TIP3    H135487   5.890   5.064  17.817 -0.2397  0.8773  1.1567
 3764TIP3    H235488   5.974   5.169  17.748  0.1143 -0.1174  0.0320
 3765TIP3   OH235489   3.726   5.075  17.663  0.1492 -0.2018  0.1786
 3765TIP3    H135490   3.767   5.118  17.588  0.7807 -2.2678 -0.7380
 3765TIP3    H235491   3.722   4.983  17.638  1.3431 -1.1562  3.0760
 3766TIP3   OH235492   3.096   4.721  17.912  0.8027 -0.2474 -0.4602
 3766TIP3    H135493   3.065   4.682  17.830  0.2963 -1.9549  0.4933
 3766TIP3    H235494   3.064   4.661  17.980  0.2615  1.6921  1.0736
 3767TIP3   OH235495   2.513   3.796  19.056 -0.2862  0.2973 -0.2039
 3767TIP3    H135496   2.430   3.755  19.031 -0.2164 -0.9494  1.4237
 3767TIP3    H235497   2.553   3.822  18.973 -1.9703  0.2643 -1.0607
 3768TIP3   OH235498   4.460   1.128  18.043  0.1982  0.2479  0.2434
 3768TIP3    H135499   4.522   1.148  18.113  1.3340 -0.0724 -0.6376
 3768TIP3    H235500   4.484   1.188  17.972 -0.7171  0.3475  0.0142
 3769TIP3   OH235501   0.577   5.181  17.815 -0.0372 -0.2460  0.0258
 3769TIP3    H135502   0.553   5.237  17.742  0.2070  0.9645  0.8376
 3769TIP3    H235503   0.554   5.231  17.893 -0.8304 -1.7373  0.7983
 3770TIP3   OH235504   5.993   6.111  17.652 -0.0695  0.2784  0.0740
 3770TIP3    H135505   5.941   6.187  17.680  0.8839  0.3853  1.6625
 3770TIP3    H235506   5.950   6.036  17.692 -1.7683 -0.2708 -2.5214
 3771TIP3   OH235507   1.712   6.703  17.013 -0.0566  0.2463 -0.4291
 3771TIP3    H135508   1.713   6.775  16.949 -1.1514  0.0212 -0.7187
 3771TIP3    H235509   1.746   6.628  16.965 -1.8040 -0.1760 -1.1100
 3772TIP3   OH235510   4.530   4.964  19.225 -0.2495 -0.3985  0.0053
 3772TIP3    H135511   4.511   4.886  19.172 -0.0692 -1.7486  1.8279
 3772TIP3    H235512   4.515   4.936  19.315  1.0314  1.3264  0.8130
 3773TIP3   OH235513   3.241   4.962  19.393 -0.7104 -0.6356  0.7809
 3773TIP3    H135514   3.244   5.058  19.392 -0.4023 -0.6429  0.4277
 3773TIP3    H235515   3.159   4.940  19.437 -1.1056 -0.2061  0.2600
 3774TIP3   OH235516   0.164   4.838  19.685 -0.0261 -0.0442 -0.1099
 3774TIP3    H135517   0.153   4.759  19.633  1.6635 -0.4703  0.1368
 3774TIP3    H235518   0.125   4.908  19.632 -0.1058 -0.7866 -1.0441
 3775TIP3   OH235519   7.336   1.036  18.016 -0.5437  0.2461  0.0515
 3775TIP3    H135520   7.256   1.087  18.012 -1.1897 -0.5895  1.4798
 3775TIP3    H235521   7.342   1.007  18.107  1.1600 -0.0766 -0.1176
 3776TIP3   OH235522   2.691   5.725  17.537 -0.0635 -0.4031 -0.2775
 3776TIP3    H135523   2.758   5.780  17.495 -0.3411  0.2889  0.1817
 3776TIP3    H235524   2.733   5.639  17.545  0.7804  0.0248  0.0213
 3777TIP3   OH235525   4.618   4.988  18.901  0.0971  0.4869  0.4157
 3777TIP3    H135526   4.654   4.959  18.984 -0.5607 -1.1841  0.1570
 3777TIP3    H235527   4.584   4.908  18.860 -0.1002  1.3532 -1.2017
 3778TIP3   OH235528   0.341   3.763  18.933 -0.0659 -0.4956 -0.2755
 3778TIP3    H135529   0.314   3.675  18.905  1.9476 -0.7608 -1.6157
 3778TIP3    H235530   0.262   3.801  18.973 -0.9728 -2.9006  0.3757
 3779TIP3   OH235531   2.286   3.060  18.709  0.6911  0.1429 -0.4056
 3779TIP3    H135532   2.297   2.983  18.653  0.1498  1.2346 -2.0885
 3779TIP3    H235533   2.360   3.116  18.688  0.7168  0.3823  0.3099
 3780TIP3   OH235534   6.522   1.447  18.955 -0.1191 -0.4892 -0.2443
 3780TIP3    H135535   6.442   1.458  19.006  1.2530  0.5102  1.8764
 3780TIP3    H235536   6.538   1.352  18.957  0.0934 -0.4658  1.6522
 3781TIP3   OH235537   5.860   5.776  18.935 -0.3265 -0.2356 -0.0323
 3781TIP3    H135538   5.949   5.792  18.903  0.0186  0.7698  1.3452
 3781TIP3    H235539   5.848   5.681  18.924  0.8427 -0.3559 -0.4300
 3782TIP3   OH235540   3.573   4.325  19.344 -0.1343  0.2956  0.1428
 3782TIP3    H135541   3.504   4.289  19.287 -0.0226  1.8284 -1.0310
 3782TIP3    H235542   3.654   4.285  19.312 -0.2150  0.2442  0.0020
 3783TIP3   OH235543   3.916   4.380  19.241 -0.5600 -0.2912 -0.5627
 3783TIP3    H135544   4.010   4.398  19.230 -0.2386 -1.9131 -0.8422
 3783TIP3    H235545   3.874   4.420  19.165  0.1179 -0.9168 -1.2787
 3784TIP3   OH235546   6.246   0.114  17.946 -0.7503 -0.2621  0.3121
 3784TIP3    H135547   6.287   0.027  17.948  1.5816  0.7557  1.1015
 3784TIP3    H235548   6.234   0.133  17.853  1.9205 -0.1334 -0.1045
 3785TIP3   OH235549   6.287   1.441  19.097  0.3112  0.6650  0.1419
 3785TIP3    H135550   6.215   1.454  19.035  0.2481  1.1460  0.3133
 3785TIP3    H235551   6.308   1.348  19.090 -1.1227  0.2461  0.9679
 3786TIP3   OH235552   6.516   3.257  18.090  0.7323 -0.4921 -0.0865
 3786TIP3    H135553   6.477   3.344  18.103  1.0205 -0.6073  1.9593
 3786TIP3    H235554   6.536   3.253  17.997 -0.8600  0.9602 -0.5485
 3787TIP3   OH235555   7.136   3.980  17.505 -0.4368 -0.5608  0.5349
 3787TIP3    H135556   7.091   3.974  17.421 -0.2022  2.0148  0.1555
 3787TIP3    H235557   7.071   3.950  17.569 -0.9533 -1.6083 -0.4526
 3788TIP3   OH235558   6.186   3.779  18.328  0.2411  0.3835 -0.1769
 3788TIP3    H135559   6.097   3.803  18.350  0.0070 -1.0576  0.5151
 3788TIP3    H235560   6.220   3.735  18.406  1.9543  1.8762  0.0026
 3789TIP3   OH235561   6.830   6.916  18.640 -0.0217  0.2270 -0.4765
 3789TIP3    H135562   6.767   6.987  18.653  1.0328  0.9463  0.8796
 3789TIP3    H235563   6.862   6.929  18.551  0.1760  1.4860 -0.2362
 3790TIP3   OH235564   2.000   4.135  18.423 -0.7356  0.5755  0.3612
 3790TIP3    H135565   2.020   4.211  18.478 -0.7050 -0.1521  1.3994
 3790TIP3    H235566   1.924   4.095  18.466 -1.1738  0.4035 -0.5680
 3791TIP3   OH235567   3.822   1.157  18.966  0.2096 -0.3012  0.2001
 3791TIP3    H135568   3.854   1.221  19.029 -0.3799 -1.0983  1.3396
 3791TIP3    H235569   3.728   1.171  18.963  0.0341 -1.3017  0.6891
 3792TIP3   OH235570   0.434   1.745  17.519  0.2829  0.1346 -0.0497
 3792TIP3    H135571   0.418   1.653  17.496 -0.1405 -0.1001  1.1411
 3792TIP3    H235572   0.384   1.759  17.599  1.4907  1.0124  0.5742
 3793TIP3   OH235573   0.201   0.976  17.221 -0.3135  0.2465  0.1751
 3793TIP3    H135574   0.241   1.016  17.143  0.2087 -1.4300 -0.4464
 3793TIP3    H235575   0.162   0.895  17.189  0.5151 -0.8245  1.7928
 3794TIP3   OH235576   0.181   3.646  17.710 -0.3804 -0.2705  0.2917
 3794TIP3    H135577   0.220   3.651  17.798 -0.2308 -0.6748  0.2487
 3794TIP3    H235578   0.115   3.577  17.718 -2.5425  1.7614  0.9232
 3795TIP3   OH235579   4.613   5.451  18.794 -0.1006  0.1082  0.0230
 3795TIP3    H135580   4.530   5.466  18.748  0.1123  1.1081 -0.0663
 3795TIP3    H235581   4.680   5.461  18.726  0.1083 -0.4025  0.1533
 3796TIP3   OH235582   0.339   4.420  19.177 -0.0340  0.3745  0.1688
 3796TIP3    H135583   0.357   4.386  19.089  1.6491 -0.7029  0.8693
 3796TIP3    H235584   0.403   4.490  19.189 -0.0458  0.3060  0.6449
 3797TIP3   OH235585   3.748   6.549  19.353  0.4318  0.5867  0.1250
 3797TIP3    H135586   3.753   6.585  19.264  0.1848 -0.1415 -0.1889
 3797TIP3    H235587   3.748   6.626  19.410 -0.6096  1.1082 -0.5520
 3798TIP3   OH235588   6.114   3.728  18.647  0.1918 -0.0431  0.1854
 3798TIP3    H135589   6.139   3.804  18.699  0.1707  0.5196 -0.6230
 3798TIP3    H235590   6.148   3.653  18.697 -0.0190  0.4628  1.1186
 3799TIP3   OH235591   4.721   7.430  18.726  0.1690  0.7339 -0.1783
 3799TIP3    H135592   4.811   7.398  18.722  0.5135  1.5053  0.8795
 3799TIP3    H235593   4.717   7.478  18.808 -1.4487  0.0336  0.1848
 3800TIP3   OH235594   2.841   3.292  18.626  0.7892  0.1827  0.1485
 3800TIP3    H135595   2.915   3.282  18.567  1.7169 -1.4262  1.4754
 3800TIP3    H235596   2.787   3.360  18.587  2.0425  0.1168 -1.8030
 3801TIP3   OH235597   3.909   2.311  17.103 -0.4686  0.4293 -0.1078
 3801TIP3    H135598   3.936   2.268  17.185  0.1757 -0.5342 -0.7944
 3801TIP3    H235599   3.816   2.291  17.096 -0.1873 -0.8870 -0.4007
 3802TIP3   OH235600   4.150   3.234  18.410 -0.3236  0.5126 -0.2526
 3802TIP3    H135601   4.149   3.299  18.341 -1.1913 -0.8171 -1.5377
 3802TIP3    H235602   4.064   3.240  18.451  0.4154  1.7703  1.2398
 3803TIP3   OH235603   2.117   1.005  17.066  0.4962  0.1845  0.2170
 3803TIP3    H135604   2.038   0.951  17.064  0.9617 -0.5114  0.2709
 3803TIP3    H235605   2.188   0.944  17.048  1.0051  0.8406 -0.0189
 3804TIP3   OH235606   6.468   4.458  19.861  0.4562  0.3835 -0.1855
 3804TIP3    H135607   6.535   4.496  19.806  0.7235  0.7440  0.3808
 3804TIP3    H235608   6.515   4.423  19.937 -0.1425  2.2984  1.1333
 3805TIP3   OH235609   4.352   3.863  18.149 -0.4669 -0.1727 -0.8295
 3805TIP3    H135610   4.374   3.808  18.224  1.5395  0.8087 -0.6209
 3805TIP3    H235611   4.390   3.817  18.073  2.2169  1.3143 -0.5244
 3806TIP3   OH235612   5.489   3.433  16.930  0.0097  0.2249  0.4635
 3806TIP3    H135613   5.481   3.469  16.841 -0.0621 -0.4576  0.1833
 3806TIP3    H235614   5.520   3.506  16.983  3.5829 -0.1548 -0.7988
 3807TIP3   OH235615   3.799   5.576  17.821  0.3783 -0.0555 -0.6314
 3807TIP3    H135616   3.837   5.584  17.734 -0.2763  2.4642 -0.7653
 3807TIP3    H235617   3.758   5.490  17.822 -0.5002  0.2636 -3.1889
 3808TIP3   OH235618   3.983   0.305  18.429  1.1928 -0.9624  0.8238
 3808TIP3    H135619   3.892   0.319  18.402  2.2283 -0.4432 -2.8264
 3808TIP3    H235620   3.997   0.211  18.418  1.1532 -1.0286  1.3075
 3809TIP3   OH235621   5.175   1.771  18.024  0.4358 -0.3308  0.1223
 3809TIP3    H135622   5.268   1.791  18.011  0.4935  0.2582  1.2622
 3809TIP3    H235623   5.131   1.855  18.013  0.2260 -0.2985  1.0917
 3810TIP3   OH235624   1.242   5.518  19.060 -0.2421 -0.5694  0.1816
 3810TIP3    H135625   1.333   5.544  19.077 -1.0636  1.7968  1.5272
 3810TIP3    H235626   1.206   5.499  19.147 -1.2088 -0.8369 -0.2630
 3811TIP3   OH235627   6.057   4.821  19.317 -0.2681  0.1836 -0.4175
 3811TIP3    H135628   5.986   4.763  19.345  0.8583  0.2024  2.8615
 3811TIP3    H235629   6.052   4.896  19.377  1.6504  0.8462 -1.0320
 3812TIP3   OH235630   3.456   0.765  17.752 -0.5562  0.1827 -0.0806
 3812TIP3    H135631   3.463   0.807  17.837 -1.5071  0.4899 -0.1420
 3812TIP3    H235632   3.452   0.837  17.689 -1.0844 -0.0086 -0.2760
 3813TIP3   OH235633   5.160   2.389  19.378 -0.5917  0.2254  0.4620
 3813TIP3    H135634   5.243   2.412  19.418 -1.1313 -1.0512  2.4646
 3813TIP3    H235635   5.166   2.423  19.288  1.5116  1.3465  0.9667
 3814TIP3   OH235636   4.614   4.080  18.989  0.2051 -0.4877 -0.7060
 3814TIP3    H135637   4.546   4.013  18.987  1.3799 -1.7557 -0.0507
 3814TIP3    H235638   4.621   4.105  19.081 -1.7759  2.2677 -1.1881
 3815TIP3   OH235639   6.866   6.894  19.110 -0.1217 -0.0274 -0.1738
 3815TIP3    H135640   6.893   6.875  19.020  0.5100  2.2767 -0.5409
 3815TIP3    H235641   6.930   6.848  19.164  0.0097 -0.7425 -0.9107
 3816TIP3   OH235642   6.517   7.638  19.051  0.2008  0.4464 -0.2266
 3816TIP3    H135643   6.469   7.662  19.130  1.1656 -0.2947  0.6038
 3816TIP3    H235644   6.596   7.692  19.054  0.7933 -0.4099 -0.0736
 3817TIP3   OH235645  -0.012   0.739  19.056 -0.0247  0.1901  0.1085
 3817TIP3    H135646  -0.013   0.729  19.151  0.4669  1.3305  0.2546
 3817TIP3    H235647  -0.104   0.745  19.032 -0.1733  3.2807  0.9739
 3818TIP3   OH235648   1.749   4.539  17.583 -0.2541  0.3020 -0.0048
 3818TIP3    H135649   1.717   4.628  17.568  0.1514  0.5404  0.5437
 3818TIP3    H235650   1.672   4.491  17.615 -0.5174  0.3990 -0.4699
 3819TIP3   OH235651   3.185   0.742  19.398 -0.2220  0.9255 -0.6789
 3819TIP3    H135652   3.176   0.796  19.476 -0.6489  0.5656 -0.4764
 3819TIP3    H235653   3.114   0.771  19.340 -0.9838  0.0231 -0.2299
 3820TIP3   OH235654   2.398   0.689  18.348 -0.7034  0.1032 -0.2384
 3820TIP3    H135655   2.428   0.769  18.392 -2.4945 -0.4808  2.2952
 3820TIP3    H235656   2.460   0.621  18.375 -0.0024  0.3206 -1.2388
 3821TIP3   OH235657   1.641   2.217  17.926 -0.1209  0.2759  0.2822
 3821TIP3    H135658   1.572   2.237  17.862  0.7475  0.5877 -0.5695
 3821TIP3    H235659   1.601   2.152  17.984 -1.3607  0.9477  0.2177
 3822TIP3   OH235660   4.846   5.603  18.358  0.6583 -0.4469  0.1989
 3822TIP3    H135661   4.799   5.530  18.317  0.1845 -0.5637  0.9290
 3822TIP3    H235662   4.792   5.626  18.434  1.3927 -0.0755  0.6136
 3823TIP3   OH235663   3.001   3.872  18.684 -0.5084  0.1924  0.2341
 3823TIP3    H135664   2.987   3.779  18.667  0.3845 -0.4111  2.4681
 3823TIP3    H235665   2.919   3.913  18.657 -0.8373 -1.1874 -1.0084
 3824TIP3   OH235666   0.896   4.247  18.781  0.2457 -0.5067 -0.1992
 3824TIP3    H135667   0.890   4.303  18.858  1.1766 -2.1021  1.0895
 3824TIP3    H235668   0.987   4.253  18.754 -0.3701  1.1983 -2.1533
 3825TIP3   OH235669   1.212   6.079  18.389 -0.1260 -0.3315 -0.0795
 3825TIP3    H135670   1.263   6.115  18.462  2.8640 -0.2546 -2.0184
 3825TIP3    H235671   1.252   5.994  18.372 -0.9343 -0.4596 -1.4407
 3826TIP3   OH235672   1.935   0.052  18.894  0.2246 -0.0824  0.0793
 3826TIP3    H135673   1.886   0.021  18.970  1.0723  0.8446  1.0365
 3826TIP3    H235674   2.025   0.060  18.925  0.2512  2.2036 -0.4121
 3827TIP3   OH235675   4.743   5.151  18.128 -0.5678  0.7566  0.4846
 3827TIP3    H135676   4.803   5.129  18.056 -0.1633  0.7223  0.8285
 3827TIP3    H235677   4.656   5.153  18.087 -0.8740 -2.8125  0.6434
 3828TIP3   OH235678   3.485   1.747  18.449  0.6971  0.6606 -0.0942
 3828TIP3    H135679   3.492   1.663  18.403 -0.0933  1.0003 -0.8579
 3828TIP3    H235680   3.554   1.801  18.410  1.4585  0.2596  0.6666
 3829TIP3   OH235681   4.247   4.236  17.550 -0.2666 -0.3014 -0.3024
 3829TIP3    H135682   4.155   4.256  17.535 -0.8312 -2.4559  0.0184
 3829TIP3    H235683   4.274   4.187  17.472  0.2987 -0.6660  0.1122
 3830TIP3   OH235684   7.430   4.575  16.423  0.3444 -0.1103  0.8398
 3830TIP3    H135685   7.486   4.498  16.434 -0.4066 -0.4697  2.3217
 3830TIP3    H235686   7.344   4.540  16.400  0.7976  0.4660 -2.2749
 3831TIP3   OH235687   0.500   3.404  18.198 -0.2912  0.3422  0.6816
 3831TIP3    H135688   0.529   3.379  18.286  0.2200 -1.0031  0.1580
 3831TIP3    H235689   0.496   3.321  18.150 -1.1360  0.9904 -0.4005
 3832TIP3   OH235690   0.772   3.430  19.156  0.5417 -0.4667  0.6637
 3832TIP3    H135691   0.800   3.487  19.228 -3.1108 -0.1926  2.1155
 3832TIP3    H235692   0.699   3.478  19.116  2.0659 -0.8951 -2.9656
 3833TIP3   OH235693   0.046   5.218  18.322  0.1670  0.0627 -0.1486
 3833TIP3    H135694   0.015   5.174  18.243 -0.3317  0.0930  0.0302
 3833TIP3    H235695   0.039   5.153  18.391 -4.3630  1.4313  1.0035
 3834TIP3   OH235696   5.602   6.398  19.456 -0.5449  0.3184  0.6309
 3834TIP3    H135697   5.520   6.369  19.417  0.1349 -0.1879 -0.4541
 3834TIP3    H235698   5.603   6.356  19.542 -0.3276 -1.6229 -0.2703
 3835TIP3   OH235699   6.906   4.187  18.396  0.0912  0.0371  0.9021
 3835TIP3    H135700   7.001   4.195  18.405  0.1899 -0.6762  0.5424
 3835TIP3    H235701   6.891   4.170  18.303 -0.2296 -1.7072  1.2321
 3836TIP3   OH235702   7.566   6.974  19.364 -0.8268  0.1012  0.1859
 3836TIP3    H135703   7.637   7.037  19.376 -0.9802  0.6195 -1.3674
 3836TIP3    H235704   7.502   6.996  19.432 -0.3579  0.8912  0.3852
 3837TIP3   OH235705   1.754   0.329  17.500 -0.1981  0.5881  0.2040
 3837TIP3    H135706   1.715   0.254  17.546 -0.8118  1.0606  0.4670
 3837TIP3    H235707   1.826   0.291  17.450 -0.9579 -0.2970 -0.2508
 3838TIP3   OH235708   6.230   5.956  18.872  0.5119 -0.5376  1.0621
 3838TIP3    H135709   6.176   5.934  18.796 -1.1929  0.1343  2.0290
 3838TIP3    H235710   6.278   6.034  18.846  0.7820 -0.9417  0.3110
 3839TIP3   OH235711   0.530   3.546  19.410  0.2356 -0.3368  0.1271
 3839TIP3    H135712   0.599   3.532  19.475  1.0670 -1.1877 -0.9103
 3839TIP3    H235713   0.463   3.481  19.431  0.2535 -0.2451  0.4649
 3840TIP3   OH235714   3.014   0.914  19.291  0.4161 -0.1453  0.0081
 3840TIP3    H135715   2.954   0.884  19.223  0.7656  0.4261 -0.5728
 3840TIP3    H235716   2.983   1.002  19.313  2.0845  0.9424 -1.6511
 3841TIP3   OH235717   1.692   2.482  18.720 -0.4342 -0.1012 -0.6366
 3841TIP3    H135718   1.654   2.569  18.734 -0.6692 -0.0940 -1.2620
 3841TIP3    H235719   1.704   2.446  18.808 -0.4899  0.4955 -0.3767
 3842TIP3   OH235720   4.506   6.237  18.984  0.2275 -1.0900 -0.1425
 3842TIP3    H135721   4.445   6.164  18.972  0.7537 -1.3955 -1.0755
 3842TIP3    H235722   4.575   6.202  19.040  1.2591 -1.8316 -1.7776
 3843TIP3   OH235723   2.819   4.105  17.776  0.4687 -0.0773 -0.4458
 3843TIP3    H135724   2.788   4.118  17.686 -2.2180  0.9185  0.5238
 3843TIP3    H235725   2.745   4.064  17.821  2.0214 -1.2202  1.1694
 3844TIP3   OH235726   7.706   0.662  18.800  0.0295  0.1167 -0.6234
 3844TIP3    H135727   7.752   0.737  18.762 -1.4728  1.3420 -0.1571
 3844TIP3    H235728   7.695   0.686  18.892 -0.8852 -0.4709 -0.5741
 3845TIP3   OH235729   5.491   5.292  17.842  0.0286 -0.0372 -0.9896
 3845TIP3    H135730   5.575   5.322  17.807  0.8849 -1.5668 -0.3660
 3845TIP3    H235731   5.478   5.206  17.802  0.1409 -1.0196  0.9610
 3846TIP3   OH235732   2.060   1.264  16.701  0.0283 -0.4291 -0.1667
 3846TIP3    H135733   2.027   1.203  16.635 -1.1752  1.2762 -1.2247
 3846TIP3    H235734   2.146   1.229  16.725  0.0284 -1.7027 -1.8320
 3847TIP3   OH235735   2.042   2.127  17.932 -0.4439 -0.0606  0.0957
 3847TIP3    H135736   1.985   2.151  18.006  0.6555  0.8824  0.6527
 3847TIP3    H235737   2.053   2.208  17.882  0.9778 -0.0534  0.3917
 3848TIP3   OH235738   4.307   4.412  17.863 -0.2575  0.1429  0.1394
 3848TIP3    H135739   4.322   4.391  17.771  2.6136 -1.1762  0.7915
 3848TIP3    H235740   4.328   4.506  17.869 -0.2843  0.1992 -0.5203
 3849TIP3   OH235741   3.713   0.369  18.351 -0.0379 -0.6259 -0.2392
 3849TIP3    H135742   3.657   0.341  18.279 -1.7217 -0.4963  0.9714
 3849TIP3    H235743   3.684   0.459  18.370 -2.4129 -1.8927  3.0733
 3850TIP3   OH235744   4.517   2.645  17.965 -0.1711 -0.6067 -0.0048
 3850TIP3    H135745   4.455   2.717  17.963  1.6702  1.0606 -1.2548
 3850TIP3    H235746   4.544   2.635  17.873  1.9119 -0.7572  0.5740
 3851TIP3   OH235747   3.073   3.124  17.777 -0.6670 -0.1404 -0.2574
 3851TIP3    H135748   3.096   3.035  17.752 -2.3910 -0.5597 -0.4526
 3851TIP3    H235749   3.094   3.177  17.701  1.7162 -0.1013  0.3496
 3852TIP3   OH235750   3.809   7.540  18.982 -0.0582 -0.0139 -0.2174
 3852TIP3    H135751   3.824   7.566  18.890 -0.4581  1.2384  0.0488
 3852TIP3    H235752   3.829   7.619  19.032 -0.5798 -0.4683  0.7238
 3853TIP3   OH235753   7.308   2.082  16.652  0.0898  0.0229 -0.6962
 3853TIP3    H135754   7.352   2.109  16.571 -1.8638  2.2344 -1.1431
 3853TIP3    H235755   7.215   2.083  16.630 -0.3656 -2.4460  0.7724
 3854TIP3   OH235756   2.536   6.988  17.279  0.1475  0.3217  0.2989
 3854TIP3    H135757   2.562   6.960  17.191 -1.8302 -0.7306 -0.0032
 3854TIP3    H235758   2.614   6.974  17.333  0.5974 -1.5807 -0.7724
 3855TIP3   OH235759   1.683   1.716  17.900 -0.5132 -0.1614 -0.0144
 3855TIP3    H135760   1.612   1.659  17.930 -1.5154  0.5214 -0.9918
 3855TIP3    H235761   1.656   1.804  17.928  1.1819 -0.1600  1.7969
 3856TIP3   OH235762   2.833   1.855  18.375  0.3821  0.0476  0.7680
 3856TIP3    H135763   2.762   1.882  18.434  0.4524  0.5336  0.6347
 3856TIP3    H235764   2.906   1.912  18.397  0.3760  0.3101  0.1415
 3857TIP3   OH235765   4.534   1.165  18.757  0.2958 -0.4284 -0.1759
 3857TIP3    H135766   4.621   1.175  18.720  0.6462 -1.6499  0.2834
 3857TIP3    H235767   4.529   1.231  18.826 -0.7278  2.6176 -2.8650
 3858TIP3   OH235768   1.286   7.418  17.649  0.5009 -0.1243 -0.2900
 3858TIP3    H135769   1.357   7.393  17.708 -0.1603  0.7944  0.9564
 3858TIP3    H235770   1.314   7.501  17.610  0.0100  0.4045  0.4460
 3859TIP3   OH235771   1.456   0.636  18.102 -0.2620  0.7270 -0.0261
 3859TIP3    H135772   1.480   0.567  18.164  0.4554  0.4276 -0.6134
 3859TIP3    H235773   1.532   0.643  18.045 -1.2901  0.2869 -1.5018
 3860TIP3   OH235774   4.052   6.510  17.387  0.6074  0.5894 -0.0394
 3860TIP3    H135775   4.059   6.480  17.477  0.1177  1.5073  0.3162
 3860TIP3    H235776   4.021   6.600  17.394  0.4434  0.6325 -1.1270
 3861TIP3   OH235777   0.736   5.754  17.791 -0.2391  0.2424  0.6824
 3861TIP3    H135778   0.659   5.711  17.828  0.4308  0.0998  1.9397
 3861TIP3    H235779   0.704   5.838  17.758 -0.7453  0.6515  2.1645
 3862TIP3   OH235780   6.449   4.156  18.305 -0.3069  0.4161  0.0779
 3862TIP3    H135781   6.381   4.212  18.342 -1.0693 -0.4878  0.0780
 3862TIP3    H235782   6.401   4.082  18.268  0.6050  0.2968 -0.8850
 3863TIP3   OH235783   4.798   5.828  18.201  0.8263 -0.5559  0.5354
 3863TIP3    H135784   4.827   5.742  18.232 -1.5394 -0.6834  2.7417
 3863TIP3    H235785   4.710   5.838  18.237  0.5950  2.3648 -0.5619
 3864TIP3   OH235786   0.045   7.114  18.123 -0.4387 -0.3757  0.0284
 3864TIP3    H135787   0.119   7.079  18.173 -1.4780 -1.4457  0.8613
 3864TIP3    H235788   0.086   7.165  18.053  1.0935  1.8944  2.3839
 3865TIP3   OH235789   2.033   4.357  17.473  0.1384  0.3697 -0.3300
 3865TIP3    H135790   2.097   4.370  17.403 -0.8294 -0.2512 -1.3658
 3865TIP3    H235791   1.960   4.312  17.430 -1.1701  1.4215  0.7079
 3866TIP3   OH235792   5.938   3.190  18.332 -0.1663  0.2886  0.5819
 3866TIP3    H135793   5.940   3.134  18.254  0.3638  0.7766  0.2281
 3866TIP3    H235794   5.940   3.130  18.405  0.4925 -0.1691  0.2047
 3867TIP3   OH235795   6.789   6.192  17.928 -0.3527  0.0041 -0.3053
 3867TIP3    H135796   6.695   6.211  17.924 -0.5017 -0.8490 -3.1020
 3867TIP3    H235797   6.831   6.276  17.909 -0.5606  0.1704 -0.0492
 3868TIP3   OH235798   0.191   2.461  18.381 -0.2288  0.2212 -0.0199
 3868TIP3    H135799   0.234   2.526  18.436 -0.2150 -0.2245  0.4991
 3868TIP3    H235800   0.261   2.400  18.357 -0.5607 -0.4936  0.8063
 3869TIP3   OH235801   3.841   0.308  16.509 -0.2061 -0.6076 -0.3124
 3869TIP3    H135802   3.809   0.399  16.514 -0.1164 -0.4507 -1.9638
 3869TIP3    H235803   3.776   0.257  16.557  0.0269  0.3866  1.1129
 3870TIP3   OH235804   5.581   6.402  18.374  0.2170  0.0506 -0.1129
 3870TIP3    H135805   5.531   6.454  18.437  0.6192  1.6834 -1.0808
 3870TIP3    H235806   5.672   6.432  18.385  0.2761  0.4445 -1.5113
 3871TIP3   OH235807   5.229   0.740  19.243 -0.1629  0.0629 -0.0261
 3871TIP3    H135808   5.147   0.773  19.205 -0.2509  0.4422  0.4898
 3871TIP3    H235809   5.209   0.725  19.335  0.0776 -0.7722 -0.1011
 3872TIP3   OH235810   7.550   1.488  19.211  0.2088 -0.1195 -0.5336
 3872TIP3    H135811   7.494   1.426  19.164  0.5707 -0.3603 -0.6480
 3872TIP3    H235812   7.632   1.441  19.224 -0.2616 -0.4932  1.3727
 3873TIP3   OH235813   1.836   7.347  19.196  0.1846  0.1964 -0.1522
 3873TIP3    H135814   1.820   7.267  19.245 -0.0310  0.6039  0.4646
 3873TIP3    H235815   1.866   7.318  19.110  1.0580 -0.5400  0.3837
 3874TIP3   OH235816   6.988   4.737  18.712  0.2267  0.3337  0.2326
 3874TIP3    H135817   6.985   4.662  18.653  0.4181  1.9177 -1.9007
 3874TIP3    H235818   6.915   4.723  18.772 -1.2160 -0.4183 -1.5889
 3875TIP3   OH235819   0.195   1.164  18.906 -0.0819 -0.1098 -0.3261
 3875TIP3    H135820   0.227   1.074  18.902 -0.3019 -0.2449  0.6688
 3875TIP3    H235821   0.273   1.216  18.927 -0.0919 -0.1646 -0.1496
 3876TIP3   OH235822   4.799   2.441  17.455  0.2953  0.3052  0.7691
 3876TIP3    H135823   4.764   2.486  17.378  0.3282 -0.2724  0.4109
 3876TIP3    H235824   4.799   2.349  17.431 -1.0381 -0.0342  2.0075
 3877TIP3   OH235825   3.343   4.119  17.760  0.5000  0.7111 -0.3345
 3877TIP3    H135826   3.391   4.202  17.768  0.6782  0.5205  0.6209
 3877TIP3    H235827   3.267   4.130  17.817  0.2602  0.3952 -0.5918
 3878TIP3   OH235828   5.035   4.126  16.871 -0.2552 -0.1934 -0.1515
 3878TIP3    H135829   5.042   4.044  16.822 -0.7327  0.1698 -0.8591
 3878TIP3    H235830   5.081   4.190  16.816 -0.3541  0.1158  0.1262
 3879TIP3   OH235831   2.762   2.407  18.091  0.0973 -0.4305 -0.3580
 3879TIP3    H135832   2.822   2.482  18.098  0.4704 -0.7796  0.2608
 3879TIP3    H235833   2.818   2.333  18.068 -0.4198 -0.3285 -2.1060
 3880TIP3   OH235834   7.100   7.463  19.315 -0.4844  0.9225  0.1156
 3880TIP3    H135835   7.058   7.501  19.238  0.7777  1.8196 -0.1586
 3880TIP3    H235836   7.189   7.444  19.287 -0.7214 -1.2440  0.5845
 3881TIP3   OH235837   1.837   0.697  17.286  0.1245  0.4209 -0.1355
 3881TIP3    H135838   1.864   0.735  17.370 -0.9182  1.0545 -0.0720
 3881TIP3    H235839   1.769   0.634  17.309  0.4166 -0.0107 -0.4378
 3882TIP3   OH235840   0.891   4.775  17.217 -0.8217  0.2903 -0.1065
 3882TIP3    H135841   0.931   4.760  17.131 -1.9225  3.8711 -1.4208
 3882TIP3    H235842   0.966   4.777  17.277  0.2769  0.3168 -1.4070
 3883TIP3   OH235843   6.152   0.563  18.454 -0.1036 -0.3694  0.1781
 3883TIP3    H135844   6.111   0.650  18.450  2.0488  0.7307  0.2834
 3883TIP3    H235845   6.156   0.544  18.548 -1.0662 -0.8580  0.1300
 3884TIP3   OH235846   3.665   0.988  17.676 -0.4190  0.1090  0.4454
 3884TIP3    H135847   3.746   0.940  17.656 -0.4868  0.2936 -0.2850
 3884TIP3    H235848   3.656   0.980  17.771  0.7513  0.5437  0.6185
 3885TIP3   OH235849   3.245   1.620  17.776  0.1009 -0.2224 -0.0577
 3885TIP3    H135850   3.150   1.625  17.784  0.2951  0.9462  2.5141
 3885TIP3    H235851   3.264   1.661  17.691 -1.6120  0.9554  0.0822
 3886TIP3   OH235852   4.087   5.588  17.261  0.4052  0.3077 -0.1473
 3886TIP3    H135853   4.000   5.626  17.271  0.4824  0.4118  0.1365
 3886TIP3    H235854   4.111   5.560  17.350  1.1384  1.3104 -0.0144
 3887TIP3   OH235855   0.712   6.349  16.676 -0.1641 -0.2129 -0.1075
 3887TIP3    H135856   0.678   6.358  16.587 -1.7014 -0.1652  0.4429
 3887TIP3    H235857   0.634   6.353  16.731  0.8076  0.2628  1.2807
 3888TIP3   OH235858   6.596   4.256  17.490  0.1111 -0.1835 -0.0213
 3888TIP3    H135859   6.565   4.343  17.514 -0.0077 -0.1980 -0.1273
 3888TIP3    H235860   6.651   4.230  17.564  2.3982  1.1089 -1.1537
 3889TIP3   OH235861   4.021   4.791  19.234 -0.1140 -0.2736 -0.2492
 3889TIP3    H135862   4.032   4.773  19.328  0.9123  0.6259 -0.1828
 3889TIP3    H235863   4.057   4.714  19.190 -1.4326 -1.1147  0.0845
 3890TIP3   OH235864   6.828   4.495  18.896 -0.4547 -0.1595  0.0228
 3890TIP3    H135865   6.758   4.452  18.946 -0.1450 -0.9615 -0.2172
 3890TIP3    H235866   6.828   4.450  18.811 -1.3753  1.5832 -0.9582
 3891TIP3   OH235867   3.558   0.809  19.219  0.0348  0.3235  0.0220
 3891TIP3    H135868   3.549   0.809  19.124  0.5883 -2.3041 -0.1014
 3891TIP3    H235869   3.469   0.796  19.252 -0.0930  0.7523 -0.1510
 3892TIP3   OH235870   0.232   3.090  18.131  0.1283 -0.7118  0.1761
 3892TIP3    H135871   0.199   3.092  18.041 -0.2718  0.8573  0.3195
 3892TIP3    H235872   0.322   3.120  18.124  1.0561 -3.2817  0.0042
 3893TIP3   OH235873   3.493   3.757  18.052 -0.2019 -0.2929 -0.2094
 3893TIP3    H135874   3.580   3.754  18.012 -0.3178 -1.6485 -0.3957
 3893TIP3    H235875   3.499   3.697  18.126 -0.5044  0.8859  0.8131
 3894TIP3   OH235876   6.699   1.582  16.725  0.0988 -0.6021  0.3256
 3894TIP3    H135877   6.619   1.561  16.678 -0.5335 -0.0492  1.1367
 3894TIP3    H235878   6.690   1.674  16.748  1.9637  0.1227 -1.4888
 3895TIP3   OH235879   0.064   7.524  18.021 -0.1060  0.2156  0.0730
 3895TIP3    H135880  -0.009   7.515  18.083 -0.3591  1.7303  0.0106
 3895TIP3    H235881   0.084   7.433  17.996 -1.5906 -0.2719  0.5211
 3896TIP3   OH235882   6.654   2.004  16.631 -0.2527  0.0466 -0.3124
 3896TIP3    H135883   6.714   1.992  16.558  1.7145  3.7297  0.4462
 3896TIP3    H235884   6.652   2.098  16.645 -2.4309 -0.3154  2.8806
 3897TIP3   OH235885   4.852   6.968  17.844  0.5568  0.3826 -0.1467
 3897TIP3    H135886   4.861   7.036  17.778  1.8863 -0.8952 -1.3600
 3897TIP3    H235887   4.780   6.913  17.813 -0.0696  0.8214  0.4847
 3898TIP3   OH235888   5.713   5.392  17.747 -0.4241 -0.0272  0.3540
 3898TIP3    H135889   5.749   5.333  17.681  0.5231  2.3513 -1.4057
 3898TIP3    H235890   5.789   5.421  17.797 -0.4023  1.7346 -0.6040
 3899TIP3   OH235891   7.551   6.069  17.841  1.0012 -0.0418 -0.0931
 3899TIP3    H135892   7.610   6.131  17.883 -0.5667  2.5917 -1.4897
 3899TIP3    H235893   7.490   6.043  17.911  2.1376 -0.6599  0.6932
 3900TIP3   OH235894   6.630   4.370  19.030  0.9059  0.7959  0.2633
 3900TIP3    H135895   6.549   4.419  19.043  1.1471  0.8283  1.8697
 3900TIP3    H235896   6.604   4.278  19.040  1.0387  0.8009  0.6779
 3901TIP3   OH235897   5.372   5.065  18.066  0.5715 -0.1247 -0.4760
 3901TIP3    H135898   5.444   5.126  18.049 -1.4606  2.4026 -0.6017
 3901TIP3    H235899   5.339   5.043  17.979 -0.5646  1.0207 -0.3526
 3902TIP3   OH235900   0.289   2.533  17.172  0.0282 -0.0547  1.0733
 3902TIP3    H135901   0.238   2.463  17.133 -2.4534  0.7295  2.6963
 3902TIP3    H235902   0.363   2.545  17.112 -2.1992 -0.5409 -2.0180
 3903TIP3   OH235903   3.586   6.945  19.342 -0.0183 -0.7223 -0.3767
 3903TIP3    H135904   3.597   6.926  19.249  1.4295  0.3804 -0.4714
 3903TIP3    H235905   3.493   6.966  19.352 -0.1276 -0.5329 -1.6475
 3904TIP3   OH235906   0.655   1.120  17.704 -0.1948 -0.2795 -0.5537
 3904TIP3    H135907   0.724   1.153  17.647  0.6631 -0.1682  0.4970
 3904TIP3    H235908   0.578   1.171  17.681 -0.3418 -1.3686 -2.7349
 3905TIP3   OH235909   6.549   6.869  17.914  0.1394 -0.0111 -0.2895
 3905TIP3    H135910   6.478   6.832  17.967 -0.2060 -2.9410 -2.5614
 3905TIP3    H235911   6.620   6.883  17.976 -0.7605 -1.7496  1.2575
 3906TIP3   OH235912   1.204   3.667  17.890  0.0778  0.3260 -0.7063
 3906TIP3    H135913   1.162   3.627  17.814  0.1032 -0.3340 -0.3793
 3906TIP3    H235914   1.149   3.641  17.964  0.5710  0.1919 -0.3848
 3907TIP3   OH235915   2.469   7.056  18.814 -0.2572  0.1126  0.2057
 3907TIP3    H135916   2.525   6.979  18.826 -0.4646 -0.1301 -0.3524
 3907TIP3    H235917   2.499   7.118  18.880  1.5545  0.4956 -0.9129
 3908TIP3   OH235918   4.109   6.850  18.797  0.0045  0.2778  0.1054
 3908TIP3    H135919   4.139   6.818  18.712 -0.5299  1.5970 -0.6037
 3908TIP3    H235920   4.014   6.850  18.790 -0.0423  0.3550  0.7178
 3909TIP3   OH235921   0.365   3.894  17.376  0.3843 -0.7804  0.1328
 3909TIP3    H135922   0.290   3.858  17.424  0.8939  1.1297  2.5728
 3909TIP3    H235923   0.334   3.978  17.342  1.1561 -0.3514  0.4625
 3910TIP3   OH235924   4.009   3.162  17.442  0.1037 -0.2712 -0.6031
 3910TIP3    H135925   4.073   3.141  17.374  1.4708  0.1257  0.4990
 3910TIP3    H235926   4.026   3.254  17.463  0.1042 -0.5386  0.6352
 3911TIP3   OH235927   5.624   4.052  19.634  0.1240 -0.3064  0.7022
 3911TIP3    H135928   5.677   4.111  19.581 -0.0482 -0.3576  0.4736
 3911TIP3    H235929   5.623   3.970  19.586  1.2900 -0.8573  1.5574
 3912TIP3   OH235930   4.955   6.491  18.829  0.0128  0.6039  0.7838
 3912TIP3    H135931   5.050   6.504  18.833  0.3910 -1.5766  0.5798
 3912TIP3    H235932   4.945   6.399  18.804 -2.1599  1.3967 -1.8151
 3913TIP3   OH235933   2.776   7.606  18.067 -0.4205  0.1232 -0.3050
 3913TIP3    H135934   2.839   7.665  18.107 -0.3597 -0.8188  1.0718
 3913TIP3    H235935   2.829   7.543  18.018 -0.4723  1.0087 -1.5489
 3914TIP3   OH235936   3.568   3.950  19.144  0.0857  0.5750  0.3188
 3914TIP3    H135937   3.600   4.000  19.069 -4.4936  1.5955 -1.2721
 3914TIP3    H235938   3.607   3.994  19.220  0.4549  3.2253 -1.2656
 3915TIP3   OH235939   5.107   6.946  17.420 -0.6390  0.4979 -0.3808
 3915TIP3    H135940   5.128   6.962  17.512 -0.8648  0.9391 -0.4033
 3915TIP3    H235941   5.174   6.994  17.372  1.8127 -2.7118 -0.5029
 3916TIP3   OH235942   3.102   7.049  18.008 -0.5437  0.3036 -0.2014
 3916TIP3    H135943   3.177   7.107  17.995  0.8032 -0.6698  2.5699
 3916TIP3    H235944   3.061   7.043  17.922  1.9468  1.6923 -1.5788
 3917TIP3   OH235945   7.411   5.984  18.490 -0.3676  0.4088 -0.1254
 3917TIP3    H135946   7.481   6.034  18.533  0.2992  1.9808 -2.8162
 3917TIP3    H235947   7.404   5.904  18.543  1.0523  1.7085  2.2331
 3918TIP3   OH235948   5.000   0.967  19.045 -0.5936 -0.1384  0.1899
 3918TIP3    H135949   4.935   0.942  18.980 -1.2089 -2.3702  1.5511
 3918TIP3    H235950   4.968   0.929  19.127  1.0649  1.0222  1.4600
 3919TIP3   OH235951   0.043   2.041  17.999 -0.1993  0.2535 -0.1509
 3919TIP3    H135952  -0.033   2.001  17.957  0.9171 -2.1627 -0.0825
 3919TIP3    H235953   0.038   2.011  18.090  0.2909  0.8911  0.0912
 3920TIP3   OH235954   4.371   1.908  18.890  0.4069 -0.3692 -0.0797
 3920TIP3    H135955   4.452   1.936  18.933  0.9085  0.1037 -1.2848
 3920TIP3    H235956   4.301   1.955  18.936  0.8217 -0.6764  0.8822
 3921TIP3   OH235957   2.675   4.266  18.106 -0.1434 -0.5592  0.0197
 3921TIP3    H135958   2.623   4.192  18.074 -0.1674 -0.3932 -0.3301
 3921TIP3    H235959   2.617   4.342  18.095 -0.5721 -0.6389  1.4826
 3922TIP3   OH235960   0.091   5.031  19.485 -0.8966 -0.4615 -0.1396
 3922TIP3    H135961   0.035   4.988  19.420 -1.0394  0.2866 -0.5232
 3922TIP3    H235962   0.085   5.124  19.464 -1.5496 -0.1227  1.4171
 3923TIP3   OH235963   5.499   6.756  18.297  1.0623 -0.3668  0.8914
 3923TIP3    H135964   5.564   6.716  18.239  0.5112 -1.4952  1.0205
 3923TIP3    H235965   5.437   6.685  18.315 -1.0712  1.0371 -0.4604
 3924TIP3   OH235966   1.336   6.869  17.701  0.0106  0.8433 -0.0387
 3924TIP3    H135967   1.272   6.887  17.770 -0.3996  1.5167 -0.5799
 3924TIP3    H235968   1.283   6.861  17.622  0.6241  1.7932 -0.5608
 3925TIP3   OH235969   3.484   6.683  17.116  0.7009 -0.3844 -0.0695
 3925TIP3    H135970   3.492   6.619  17.046  0.2106 -1.7891  1.1187
 3925TIP3    H235971   3.397   6.721  17.104  0.7045 -0.4605 -0.3372
 3926TIP3   OH235972   2.102   5.525  19.673  0.2237 -0.0079  0.1872
 3926TIP3    H135973   2.172   5.519  19.739  0.2182  0.7908  0.2732
 3926TIP3    H235974   2.044   5.594  19.705  0.4832  0.7386 -0.8978
 3927TIP3   OH235975   1.314   2.778  17.398  0.9918 -0.0342 -0.0953
 3927TIP3    H135976   1.386   2.797  17.339  0.1230  0.9073 -0.8798
 3927TIP3    H235977   1.307   2.856  17.454  0.8637 -0.3043  0.2698
 3928TIP3   OH235978   5.104   4.994  16.923  0.3941 -0.3552 -0.0333
 3928TIP3    H135979   5.134   5.085  16.929  0.0969 -0.3474  2.2460
 3928TIP3    H235980   5.024   4.992  16.975  1.0136 -2.1584  0.9240
 3929TIP3   OH235981   1.567   6.704  17.610 -0.5681  0.4708 -0.4090
 3929TIP3    H135982   1.487   6.709  17.662  0.2251  2.0999  0.7666
 3929TIP3    H235983   1.619   6.635  17.652 -0.8668  0.2215 -0.4471
 3930TIP3   OH235984   0.884   2.748  19.298 -0.1156 -0.9790 -0.2663
 3930TIP3    H135985   0.886   2.835  19.338 -1.6672 -0.8209 -0.4808
 3930TIP3    H235986   0.975   2.733  19.270  0.4704 -0.0121  0.9662
 3931TIP3   OH235987   7.219   3.718  18.834  0.3273  0.0704 -0.0952
 3931TIP3    H135988   7.255   3.724  18.745  0.5868 -0.5886 -0.0375
 3931TIP3    H235989   7.265   3.644  18.874 -0.6810 -0.4361  0.1761
 3932TIP3   OH235990   1.741   5.064  16.903  0.1692 -0.0467  0.1367
 3932TIP3    H135991   1.700   4.988  16.861 -1.1026  0.2818  0.7524
 3932TIP3    H235992   1.835   5.043  16.903 -0.0798 -1.2534 -0.4169
 3933TIP3   OH235993   5.797   3.363  19.491 -0.2323  0.3585 -0.3242
 3933TIP3    H135994   5.831   3.317  19.568  1.3528  0.3711 -0.9692
 3933TIP3    H235995   5.842   3.322  19.417 -0.7053  1.2536 -1.1300
 3934TIP3   OH235996   5.907   5.886  18.348 -0.3291 -0.3028  0.0095
 3934TIP3    H135997   5.976   5.833  18.310 -0.7705 -0.8136 -0.0933
 3934TIP3    H235998   5.863   5.926  18.273  0.5417  0.9323  0.1112
 3935TIP3   OH235999   2.767   0.195  17.683 -0.3711  0.6874  0.4936
 3935TIP3    H136000   2.765   0.105  17.714 -0.3885  0.4425 -0.2000
 3935TIP3    H236001   2.689   0.236  17.720 -1.0333  0.0712 -0.2052
 3936TIP3   OH236002   5.319   3.050  19.599  0.1299 -0.5272  0.5777
 3936TIP3    H136003   5.392   3.059  19.661  0.2868  0.1505  0.2957
 3936TIP3    H236004   5.358   3.061  19.513  0.0822 -2.4462  0.2629
 3937TIP3   OH236005   6.784   5.477  18.006 -0.7543 -0.5877 -0.0132
 3937TIP3    H136006   6.752   5.566  18.019  0.4560 -0.2753  1.0888
 3937TIP3    H236007   6.817   5.477  17.916 -2.2047 -0.4224 -0.5753
 3938TIP3   OH236008   2.349   1.531  17.535  0.3418 -0.0269  0.0224
 3938TIP3    H136009   2.258   1.560  17.542 -0.5001 -2.5745  0.8390
 3938TIP3    H236010   2.370   1.541  17.443 -1.3158 -0.8074 -0.4779
 3939TIP3   OH236011   6.362   4.345  19.432  0.4573  0.5582 -0.1545
 3939TIP3    H136012   6.305   4.394  19.373 -0.2047 -0.6569 -0.5583
 3939TIP3    H236013   6.328   4.364  19.519 -1.3491 -1.0110 -0.4387
 3940TIP3   OH236014   0.392   3.572  17.529  0.5881  0.2135  0.2796
 3940TIP3    H136015   0.373   3.609  17.443  0.1699 -0.4624  0.0768
 3940TIP3    H236016   0.315   3.595  17.582 -0.1489 -1.2063 -0.1237
 3941TIP3   OH236017   3.562   2.103  19.277  0.1630  0.1945 -0.1469
 3941TIP3    H136018   3.637   2.114  19.335  1.0216  1.4433 -1.4485
 3941TIP3    H236019   3.500   2.171  19.304  0.6937  0.9765 -0.8822
 3942TIP3   OH236020   2.771   5.960  18.188 -0.2495 -0.5197  0.3573
 3942TIP3    H136021   2.828   5.896  18.146 -1.0539 -0.7432 -0.4310
 3942TIP3    H236022   2.798   6.044  18.151 -1.2127 -0.7563 -0.9516
 3943TIP3   OH236023   1.245   3.062  17.898  0.3776 -0.0969 -0.1080
 3943TIP3    H136024   1.316   3.071  17.962  0.2756  0.9637 -0.1169
 3943TIP3    H236025   1.176   3.119  17.931 -0.2143 -0.6084 -0.4523
 3944TIP3   OH236026   7.638   5.631  17.667 -0.1147 -0.1031 -0.4891
 3944TIP3    H136027   7.543   5.640  17.672 -0.2206 -1.5981  1.5700
 3944TIP3    H236028   7.655   5.607  17.576 -1.3899  2.5470 -1.5560
 3945TIP3   OH236029   4.248   0.666  18.363  0.8985 -0.2520 -0.4265
 3945TIP3    H136030   4.172   0.662  18.421  0.6031  0.4467 -0.7549
 3945TIP3    H236031   4.219   0.624  18.282  0.2219  1.6407 -1.2240
 3946TIP3   OH236032   3.117   6.482  18.100 -0.3912  0.3567 -0.0877
 3946TIP3    H136033   3.102   6.432  18.180 -1.9094  0.2653 -0.4150
 3946TIP3    H236034   3.030   6.499  18.064  0.2639 -0.0421 -2.0033
 3947TIP3   OH236035   4.122   7.370  19.376  0.6506  0.0223  0.0791
 3947TIP3    H136036   4.036   7.390  19.415 -0.0283 -1.1886 -0.7182
 3947TIP3    H236037   4.178   7.350  19.451  0.6308  2.0324  0.7108
 3948TIP3   OH236038   2.064   0.060  16.984  0.4068  0.1300  0.1689
 3948TIP3    H136039   2.005   0.100  16.920  1.6798 -0.6262 -1.5785
 3948TIP3    H236040   2.021  -0.022  17.007 -0.2132  0.5513  0.5427
 3949TIP3   OH236041   2.695   7.295  17.996 -0.3594  0.4968  0.2377
 3949TIP3    H136042   2.760   7.346  17.947  0.1431 -0.7775 -0.4750
 3949TIP3    H236043   2.746   7.244  18.059 -0.4087 -1.7019 -1.3662
 3950TIP3   OH236044   6.101   5.262  19.249 -0.0567 -0.3769  0.5230
 3950TIP3    H136045   6.019   5.244  19.204  0.2258 -1.1534  0.2917
 3950TIP3    H236046   6.164   5.279  19.178  0.1981 -0.7695  0.6482
 3951TIP3   OH236047   7.547   3.304  17.416 -0.6320  0.4873  0.3101
 3951TIP3    H136048   7.525   3.274  17.505 -0.7032 -0.7768 -0.1115
 3951TIP3    H236049   7.547   3.224  17.363  0.3988  1.0884 -0.6387
 3952TIP3   OH236050   4.273   5.666  17.832  0.3579 -0.3222 -0.5027
 3952TIP3    H136051   4.189   5.676  17.786  0.4996  2.2981 -0.3354
 3952TIP3    H236052   4.255   5.695  17.921  1.3376 -0.1564 -0.3457
 3953TIP3   OH236053   6.860   0.638  19.238 -0.3634 -0.2188 -0.9890
 3953TIP3    H136054   6.796   0.568  19.228 -0.9080  0.2166 -0.6418
 3953TIP3    H236055   6.810   0.719  19.225 -0.0572  0.1576  0.0127
 3954TIP3   OH236056   2.868   3.227  18.263 -0.1547  0.1188  0.1826
 3954TIP3    H136057   2.882   3.286  18.189 -0.0313 -0.8254 -0.5771
 3954TIP3    H236058   2.937   3.248  18.325  0.4129  0.1852 -0.4656
 3955TIP3   OH236059   4.407   6.958  16.386 -0.0950 -0.6181  0.0360
 3955TIP3    H136060   4.475   6.894  16.404  0.3013 -0.1763  0.1350
 3955TIP3    H236061   4.327   6.919  16.421  0.1449 -1.0494  0.1044
 3956TIP3   OH236062   2.126   1.952  17.052  0.6539  0.0260  0.0758
 3956TIP3    H136063   2.184   1.979  16.980  0.5028 -0.1261 -0.1041
 3956TIP3    H236064   2.045   1.926  17.009 -0.0276  1.4786  0.4093
 3957TIP3   OH236065   5.136   6.138  17.176  0.0928  0.0031  0.3767
 3957TIP3    H136066   5.204   6.105  17.234  0.7290  1.6546  0.5988
 3957TIP3    H236067   5.183   6.167  17.098 -0.7694 -2.5253 -1.2344
 3958TIP3   OH236068   4.495   2.296  16.694  0.1898  0.0299 -0.4343
 3958TIP3    H136069   4.550   2.221  16.671 -0.4101 -0.3263 -0.7226
 3958TIP3    H236070   4.406   2.269  16.670 -0.1696  0.4475  0.3942
 3959TIP3   OH236071   5.223   7.423  18.633  0.8087  0.3569 -0.3579
 3959TIP3    H136072   5.266   7.509  18.630  1.1852  0.1606 -2.1909
 3959TIP3    H236073   5.291   7.363  18.664  0.8287  0.5661  0.0093
 3960TIP3   OH236074   6.347   4.190  19.010  0.8500  0.4795 -0.0759
 3960TIP3    H136075   6.254   4.193  18.986  0.7868  2.9872  0.1794
 3960TIP3    H236076   6.346   4.193  19.106  1.1717  1.6519 -0.0971
 3961TIP3   OH236077   1.920   2.163  17.139 -0.2624  0.4516  0.4384
 3961TIP3    H136078   1.924   2.231  17.207  1.0452 -0.7555  1.6539
 3961TIP3    H236079   2.010   2.131  17.133 -0.3529  0.5175 -1.9118
 3962TIP3   OH236080   0.357   2.330  19.442 -0.1843  0.1550 -0.0039
 3962TIP3    H136081   0.367   2.289  19.527  1.2915 -1.7867 -1.0296
 3962TIP3    H236082   0.308   2.265  19.390  0.8792  0.2880 -1.2419
 3963TIP3   OH236083   1.312   3.366  18.657 -0.1907 -0.0238 -0.1300
 3963TIP3    H136084   1.288   3.288  18.708 -1.1559  0.3713  0.0377
 3963TIP3    H236085   1.393   3.341  18.612  0.9366 -0.2674  1.8999
 3964TIP3   OH236086   3.327   3.732  16.908 -0.2115  0.6635  0.2580
 3964TIP3    H136087   3.394   3.717  16.841  0.6217  0.4593  1.1203
 3964TIP3    H236088   3.313   3.827  16.906  0.2994  0.7448  0.2460
 3965TIP3   OH236089   5.432   6.060  19.554  0.7052  0.0258  0.2643
 3965TIP3    H136090   5.455   6.006  19.629  0.9723 -0.5089 -0.1955
 3965TIP3    H236091   5.469   6.014  19.479  0.9577  0.8602 -0.1340
 3966TIP3   OH236092   7.565   1.996  18.963  0.7488  0.1464  0.5569
 3966TIP3    H136093   7.481   1.981  18.919  1.6691  0.3475 -1.3524
 3966TIP3    H236094   7.570   1.926  19.028 -0.2383 -0.7845 -0.3121
 3967TIP3   OH236095   3.601   6.311  19.413 -0.2021 -0.2091  0.6715
 3967TIP3    H136096   3.517   6.350  19.391 -0.1097 -1.0597 -1.5444
 3967TIP3    H236097   3.664   6.382  19.401 -0.5499  0.3778  2.1446
 3968TIP3   OH236098   6.772   5.408  17.134 -0.5467 -0.6293  0.5717
 3968TIP3    H136099   6.786   5.481  17.195 -1.0915 -0.6272  0.6944
 3968TIP3    H236100   6.758   5.332  17.190  0.3440 -0.9018  0.4446
 3969TIP3   OH236101   6.619   4.308  19.525  0.3978 -0.5491 -0.1411
 3969TIP3    H136102   6.535   4.344  19.499  0.8647  0.7477  0.0770
 3969TIP3    H236103   6.660   4.377  19.578  0.6402 -2.0281  1.7264
 3970TIP3   OH236104   3.588   4.477  17.456 -0.3297  0.4082 -0.4559
 3970TIP3    H136105   3.518   4.419  17.426 -0.1337  0.8000 -1.6922
 3970TIP3    H236106   3.542   4.556  17.485 -0.7176 -0.6881  2.3286
 3971TIP3   OH236107   1.088   5.085  18.526  0.2380  0.6087 -0.2796
 3971TIP3    H136108   1.108   5.178  18.531  0.6874  0.5408 -0.6841
 3971TIP3    H236109   1.038   5.075  18.445  0.3734  0.4701 -0.3483
 3972TIP3   OH236110   5.763   2.378  17.935  0.5934  0.2077  0.0448
 3972TIP3    H136111   5.821   2.307  17.906 -0.6250 -1.0477  0.5858
 3972TIP3    H236112   5.716   2.404  17.856 -0.9659 -1.5435  0.3189
 3973TIP3   OH236113   2.187   3.709  16.826  0.4355  0.2703 -0.0989
 3973TIP3    H136114   2.101   3.742  16.798  1.6804  3.4024 -0.6768
 3973TIP3    H236115   2.222   3.664  16.750  0.1098  0.7372 -0.5288
 3974TIP3   OH236116   7.079   5.974  17.704 -0.1432 -0.2796 -0.4882
 3974TIP3    H136117   7.010   6.008  17.647 -0.7708 -0.8453 -0.0729
 3974TIP3    H236118   7.035   5.958  17.787  0.7569  0.5083  0.1554
 3975TIP3   OH236119   6.037   7.437  18.113  0.3728  0.9434  0.1761
 3975TIP3    H136120   6.032   7.343  18.095  0.7643  0.8020  0.7704
 3975TIP3    H236121   6.025   7.478  18.027 -0.9291  0.4000  0.0781
 3976TIP3   OH236122   3.329   6.421  17.904  0.1263 -0.0627  0.0490
 3976TIP3    H136123   3.399   6.371  17.945 -0.8358 -2.4117 -0.9880
 3976TIP3    H236124   3.276   6.454  17.977  1.4801  0.5576  0.7860
 3977TIP3   OH236125   5.045   3.368  18.076 -0.7318  0.2897  0.7640
 3977TIP3    H136126   5.007   3.282  18.059 -0.2156  0.3827 -1.0862
 3977TIP3    H236127   5.117   3.351  18.138 -0.2350 -0.7234 -0.0630
 3978TIP3   OH236128   6.122   5.065  18.479  0.9892 -0.6120  0.1469
 3978TIP3    H136129   6.173   5.141  18.450  0.3085  0.2054  1.0289
 3978TIP3    H236130   6.186   4.994  18.488  1.4691 -0.4577 -1.7412
 3979TIP3   OH236131   0.334   0.652  18.820  0.0063 -0.0846 -0.4459
 3979TIP3    H136132   0.282   0.702  18.883 -0.5747  1.4803 -2.0689
 3979TIP3    H236133   0.387   0.718  18.776 -1.0832 -0.7830 -2.9786
 3980TIP3   OH236134   6.377   6.170  18.457  0.0810 -0.2293 -0.0180
 3980TIP3    H136135   6.345   6.158  18.547 -0.0037  0.4562  0.0534
 3980TIP3    H236136   6.463   6.211  18.468 -0.9345  2.1129 -0.2555
 3981TIP3   OH236137   5.550   1.541  18.183 -0.2670  0.0970  0.1259
 3981TIP3    H136138   5.560   1.448  18.201  0.0749  0.4271  1.8205
 3981TIP3    H236139   5.500   1.575  18.257 -2.7254  0.8289 -1.7431
 3982TIP3   OH236140   1.472   0.469  18.703  0.4651 -0.0059 -0.1099
 3982TIP3    H136141   1.383   0.497  18.726  0.6778  1.2398 -0.7585
 3982TIP3    H236142   1.520   0.472  18.785 -0.1111 -0.8129  0.2749
 3983TIP3   OH236143   1.912   5.764  19.733  0.1905 -0.6277  0.3408
 3983TIP3    H136144   1.925   5.842  19.786 -0.6605 -1.0333  1.1785
 3983TIP3    H236145   1.871   5.797  19.652  2.0784  0.0639 -0.3820
 3984TIP3   OH236146   6.629   6.261  18.478  0.5271  0.0449  0.1593
 3984TIP3    H136147   6.691   6.193  18.453  0.9142  0.9810 -1.6241
 3984TIP3    H236148   6.659   6.339  18.432 -2.0380  0.5048 -0.9449
 3985TIP3   OH236149   3.802   0.779  18.330 -0.6099 -0.3215  0.0027
 3985TIP3    H136150   3.715   0.744  18.346 -1.0316  0.5832 -0.2039
 3985TIP3    H236151   3.857   0.740  18.397 -1.2522 -0.6186  0.3634
 3986TIP3   OH236152   2.402   0.100  17.644  0.3800 -0.0106  0.5940
 3986TIP3    H136153   2.341   0.149  17.590  0.4736 -1.3357 -0.7887
 3986TIP3    H236154   2.463   0.166  17.678 -0.0590  0.9438 -0.4151
 3987TIP3   OH236155   4.599   1.912  18.254 -0.3145  0.4634  0.2168
 3987TIP3    H136156   4.598   1.962  18.173 -1.2584  3.8158  2.1057
 3987TIP3    H236157   4.517   1.937  18.298  0.2839 -1.0231  2.3279
 3988TIP3   OH236158   3.969   2.314  19.369 -0.2652  0.1549  0.5710
 3988TIP3    H136159   4.048   2.341  19.417 -0.5559 -0.8489  1.6626
 3988TIP3    H236160   3.915   2.271  19.435 -0.6307 -1.4124 -0.6988
 3989TIP3   OH236161   3.539   3.345  18.769 -0.0384 -0.1676 -0.2000
 3989TIP3    H136162   3.605   3.338  18.838  1.5970 -1.5636 -1.8289
 3989TIP3    H236163   3.456   3.330  18.815  0.7897  0.9226  1.7683
 3990TIP3   OH236164   4.388   1.344  18.450 -0.1382 -0.4251 -0.1498
 3990TIP3    H136165   4.391   1.440  18.449 -0.0811 -0.3735 -2.7008
 3990TIP3    H236166   4.480   1.317  18.448 -0.1594 -0.5215  0.1731
 3991TIP3   OH236167   3.616   3.388  17.421 -0.2693 -0.1214  0.2678
 3991TIP3    H136168   3.682   3.318  17.418 -0.2063 -0.0800  0.6754
 3991TIP3    H236169   3.536   3.343  17.449  0.1939  0.2783  2.3578
 3992TIP3   OH236170   4.166   3.908  19.366  0.9289 -0.7088  0.5829
 3992TIP3    H136171   4.094   3.847  19.348  1.1470 -0.7466 -0.1904
 3992TIP3    H236172   4.124   3.991  19.384  0.6932 -0.6730 -0.1125
 3993TIP3   OH236173   6.217   1.926  16.427 -0.3632 -0.0108 -0.0769
 3993TIP3    H136174   6.161   2.004  16.432 -1.2841 -0.4249 -2.6715
 3993TIP3    H236175   6.291   1.954  16.373 -1.1118 -1.0811 -1.7416
 3994TIP3   OH236176   4.355   5.642  18.091  0.1596  0.4291 -0.6822
 3994TIP3    H136177   4.433   5.693  18.070  0.2210 -0.0909 -1.7870
 3994TIP3    H236178   4.374   5.602  18.176  1.6515 -0.7561 -1.5494
 3995TIP3   OH236179   2.290   5.648  18.367 -0.1712 -0.0840 -0.2660
 3995TIP3    H136180   2.221   5.711  18.386  0.1431  0.4653 -0.9167
 3995TIP3    H236181   2.334   5.683  18.290 -1.5626 -2.3686 -2.2448
 3996TIP3   OH236182   1.458   1.756  18.100 -0.0234  0.3589  0.0250
 3996TIP3    H136183   1.428   1.847  18.096 -0.6479  0.1227 -1.2485
 3996TIP3    H236184   1.398   1.713  18.162 -0.7840  0.4573 -0.6212
 3997TIP3   OH236185   4.961   6.384  18.362  0.2894 -0.1730  0.2440
 3997TIP3    H136186   5.036   6.325  18.377  0.0384 -0.3802  0.7171
 3997TIP3    H236187   4.886   6.325  18.353 -0.3594  0.0763  2.9658
 3998TIP3   OH236188   0.112   0.541  16.838  0.1658  0.2099  0.1161
 3998TIP3    H136189   0.074   0.455  16.857 -0.6762  1.0234  2.5953
 3998TIP3    H236190   0.039   0.592  16.803 -0.2012  0.7803  1.6366
 3999TIP3   OH236191   6.089   3.521  19.283 -0.0017  0.0476  0.1618
 3999TIP3    H136192   6.032   3.562  19.347 -1.8394 -1.0415 -0.7096
 3999TIP3    H236193   6.059   3.431  19.277  1.2191 -0.3245 -1.0189
 4000TIP3   OH236194   3.487   7.542  16.583  0.1233  0.7388 -0.3024
 4000TIP3    H136195   3.529   7.537  16.497 -0.6427  3.2091 -0.8999
 4000TIP3    H236196   3.557   7.522  16.645  0.5684 -1.6376 -1.4470
 4001TIP3   OH236197   6.938   4.312  17.839 -0.2912  0.1800  0.1785
 4001TIP3    H136198   6.884   4.337  17.915 -0.8551  0.8047 -0.4134
 4001TIP3    H236199   6.879   4.260  17.784 -0.1514  0.4549 -0.2377
 4002TIP3   OH236200   3.390   4.142  18.530 -0.1288  0.2089  0.0891
 4002TIP3    H136201   3.299   4.124  18.553  0.4655 -0.3431  2.2234
 4002TIP3    H236202   3.411   4.077  18.462 -1.5930  1.0518 -1.2343
 4003TIP3   OH236203   5.741   4.366  17.306  0.0997 -0.1197 -0.2185
 4003TIP3    H136204   5.769   4.347  17.396 -0.7430  0.8726  0.2753
 4003TIP3    H236205   5.730   4.461  17.304 -1.5642 -0.3007 -0.8644
 4004TIP3   OH236206   4.171   2.237  18.812 -0.2194 -0.5374  0.5460
 4004TIP3    H136207   4.077   2.232  18.828 -0.6524  1.0158 -1.1830
 4004TIP3    H236208   4.208   2.263  18.896 -1.5534  0.5651  0.8392
 4005TIP3   OH236209   1.930   1.613  18.129  0.1949  0.5032  0.3615
 4005TIP3    H136210   1.873   1.683  18.162  0.1230  0.2872  0.6928
 4005TIP3    H236211   2.017   1.637  18.160  0.2769  0.7757 -0.0544
 4006TIP3   OH236212   3.771   2.971  17.878  0.3626 -0.3940  0.2496
 4006TIP3    H136213   3.776   2.882  17.913  2.1337  0.2735  1.8414
 4006TIP3    H236214   3.847   2.979  17.820 -0.5674 -0.3291 -1.0039
 4007TIP3   OH236215   5.998   3.549  18.252 -0.4855 -0.7564 -0.4244
 4007TIP3    H136216   6.055   3.626  18.255 -1.8983  0.3132  0.8715
 4007TIP3    H236217   5.965   3.540  18.341 -2.6063 -1.0889 -1.1723
 4008TIP3   OH236218   7.518   7.150  17.529 -0.0435  0.4984  0.3038
 4008TIP3    H136219   7.606   7.168  17.563  0.8438 -0.4105 -1.3711
 4008TIP3    H236220   7.533   7.122  17.439 -2.1632  1.4010 -0.3893
 4009TIP3   OH236221   7.376   6.410  18.258  0.1021  0.3140 -0.1073
 4009TIP3    H136222   7.457   6.387  18.212 -0.6676 -1.7289 -0.5506
 4009TIP3    H236223   7.352   6.331  18.306  0.0388  1.8915  2.6623
 4010TIP3   OH236224   1.891   3.905  17.418  0.7715 -0.3960  0.5627
 4010TIP3    H136225   1.854   3.989  17.389  0.1103  0.6987  4.0338
 4010TIP3    H236226   1.881   3.847  17.343 -1.8704  1.7081 -0.9029
 4011TIP3   OH236227   5.763   2.753  17.890  0.5988  0.6473  0.2631
 4011TIP3    H136228   5.729   2.836  17.857  3.9797  1.2886 -2.1720
 4011TIP3    H236229   5.832   2.778  17.951  1.7921 -0.2903 -0.6444
 4012TIP3   OH236230   4.030   1.888  18.044  0.1843  0.1717  0.1410
 4012TIP3    H136231   3.948   1.885  17.995  0.4514  1.3272 -0.4094
 4012TIP3    H236232   4.008   1.932  18.125  0.5943  2.1329 -0.7611
 4013TIP3   OH236233   7.143   2.326  17.389 -0.0618 -0.2660  0.1501
 4013TIP3    H136234   7.233   2.326  17.422 -0.2094  0.2869  0.5759
 4013TIP3    H236235   7.089   2.348  17.466 -0.5032  0.0203 -0.2356
 4014TIP3   OH236236   1.975   4.242  17.104  0.0155 -0.0463  0.9781
 4014TIP3    H136237   2.027   4.172  17.065 -0.3216  0.2845 -0.1201
 4014TIP3    H236238   1.939   4.204  17.184  1.4626 -0.4568  1.4544
 4015TIP3   OH236239   5.427   1.834  18.023  0.2234  0.8203  0.3621
 4015TIP3    H136240   5.482   1.829  18.101  0.9294  2.2931  0.0126
 4015TIP3    H236241   5.475   1.786  17.956  1.3698  2.4798 -0.0625
 4016TIP3   OH236242   2.389   5.620  17.616 -0.5775 -0.0915  0.2027
 4016TIP3    H136243   2.413   5.713  17.623  0.2420 -0.2627 -0.2102
 4016TIP3    H236244   2.415   5.582  17.700  1.0069 -0.3534 -0.3816
 4017TIP3   OH236245   7.119   6.446  19.132  0.1089  0.5679  0.1626
 4017TIP3    H136246   7.099   6.411  19.044  1.0128  0.2208  0.0809
 4017TIP3    H236247   7.197   6.398  19.159 -0.9463 -0.3382  1.7580
 4018TIP3   OH236248   1.909   4.166  18.961 -0.2007  0.4329  0.1976
 4018TIP3    H136249   1.951   4.195  19.042 -3.0574  1.3375  1.4752
 4018TIP3    H236250   1.969   4.195  18.892  2.0453  0.1590  1.9011
 4019TIP3   OH236251   5.578   4.786  16.993  0.1827  0.0515  0.1802
 4019TIP3    H136252   5.610   4.872  17.021 -0.9748  0.5071  0.1582
 4019TIP3    H236253   5.656   4.743  16.957  1.2021  0.3270  1.9478
 4020TIP3   OH236254   2.965   2.274  17.140 -0.4756  0.2458  0.7375
 4020TIP3    H136255   2.931   2.334  17.073  0.0366 -0.3716 -0.0930
 4020TIP3    H236256   2.986   2.194  17.092 -0.7529 -0.4576  1.7672
 4021TIP3   OH236257   5.391   6.999  19.291  0.0632  0.1309 -0.4055
 4021TIP3    H136258   5.384   7.024  19.383 -2.6692 -2.1824  0.1566
 4021TIP3    H236259   5.485   6.996  19.274  0.6466  0.5211  2.3278
 4022TIP3   OH236260   6.414   5.657  19.719  0.2329 -0.8507 -0.7777
 4022TIP3    H136261   6.469   5.697  19.651  0.8157 -0.6703 -0.2167
 4022TIP3    H236262   6.466   5.667  19.799 -0.0315 -1.8947 -0.4713
 4023TIP3   OH236263   7.315   2.828  19.071 -0.1084 -0.1986 -0.9251
 4023TIP3    H136264   7.270   2.829  19.156 -1.8240 -0.3587 -1.7900
 4023TIP3    H236265   7.389   2.770  19.084 -0.1133  0.0935  0.5774
 4024TIP3   OH236266   3.825   7.140  18.034  0.6491  0.0382  0.0408
 4024TIP3    H136267   3.734   7.136  18.004 -0.2749  1.4669  2.3495
 4024TIP3    H236268   3.852   7.230  18.017  1.0691  0.0668  0.7887
 4025TIP3   OH236269   4.205   5.922  17.992  0.4932  0.3589  0.2716
 4025TIP3    H136270   4.152   5.923  17.912 -2.1389 -0.3811  1.8754
 4025TIP3    H236271   4.287   5.965  17.967  0.2442 -0.7920 -3.0670
 4026TIP3   OH236272   4.602   4.107  19.276 -0.0776  0.7718 -0.3624
 4026TIP3    H136273   4.689   4.146  19.286  0.8051 -1.2830  0.5350
 4026TIP3    H236274   4.594   4.047  19.350 -2.5965  1.4421 -0.0049
 4027TIP3   OH236275   5.196   2.054  18.230  0.1179  0.1806 -0.5405
 4027TIP3    H136276   5.221   2.146  18.238 -1.0340  0.6081 -1.6437
 4027TIP3    H236277   5.268   2.013  18.183 -0.3065  0.9793 -1.9233
 4028TIP3   OH236278   2.915   2.179  18.814  0.1129  0.1877  1.0843
 4028TIP3    H136279   2.899   2.257  18.760 -1.3347 -0.3880  0.6067
 4028TIP3    H236280   2.846   2.181  18.880 -0.9343 -1.4589  0.1239
 4029TIP3   OH236281   5.481   5.657  19.068  0.3705 -0.7672 -0.4853
 4029TIP3    H136282   5.449   5.568  19.077 -0.8786 -0.2672  0.1541
 4029TIP3    H236283   5.543   5.653  18.995  0.2796 -2.1313 -0.5029
 4030TIP3   OH236284   0.286   4.592  19.443  0.6348  0.5919 -0.1942
 4030TIP3    H136285   0.329   4.663  19.491 -1.1370  1.6600 -0.0760
 4030TIP3    H236286   0.305   4.609  19.351  1.3536  0.4253 -0.0759
 4031TIP3   OH236287   5.715   5.946  18.703  0.3343  0.0722  0.4865
 4031TIP3    H136288   5.710   5.925  18.796  0.0597 -0.9476  0.2635
 4031TIP3    H236289   5.702   5.861  18.659  0.0983  0.5909 -0.4784
 4032TIP3   OH236290   6.114   3.929  18.840 -0.8842 -0.2724  0.1925
 4032TIP3    H136291   6.161   4.010  18.823  0.7621 -1.1486  0.3386
 4032TIP3    H236292   6.025   3.946  18.809  0.0124  0.7801 -2.0789
 4033TIP3   OH236293   5.363   5.055  17.779  0.2461  0.0020  0.3112
 4033TIP3    H136294   5.312   5.123  17.736  0.8593  0.6224  0.5431
 4033TIP3    H236295   5.400   5.004  17.708  2.8652  2.1844 -0.0634
 4034TIP3   OH236296   4.646   0.274  18.357 -0.3719 -0.2765  0.5803
 4034TIP3    H136297   4.695   0.217  18.297  2.6956  2.2902  0.3369
 4034TIP3    H236298   4.600   0.335  18.299 -1.3918 -0.7692  0.8541
 4035TIP3   OH236299   5.451   0.464  19.342 -0.1025 -0.7434  0.6282
 4035TIP3    H136300   5.423   0.528  19.407 -2.5129 -1.3696  0.2895
 4035TIP3    H236301   5.533   0.500  19.307 -1.1191  1.9202  0.7873
 4036TIP3   OH236302   3.320   2.130  18.456  0.0733 -0.3410 -0.0545
 4036TIP3    H136303   3.235   2.154  18.493 -0.2562 -0.0033 -1.0110
 4036TIP3    H236304   3.336   2.195  18.388  0.7904 -0.7919 -0.3259
 4037TIP3   OH236305   5.768   6.067  19.290  0.1160 -0.2295 -0.3348
 4037TIP3    H136306   5.704   6.022  19.345 -0.5034  0.0328 -0.8283
 4037TIP3    H236307   5.849   6.065  19.340 -0.0451 -1.3867 -0.0990
 4038TIP3   OH236308   0.903   0.785  17.988  0.3000 -0.5787 -0.5251
 4038TIP3    H136309   0.997   0.799  17.986  0.3614 -0.9382 -0.1556
 4038TIP3    H236310   0.871   0.826  17.907  0.6927  0.1025 -0.3436
 4039TIP3   OH236311   1.273   1.484  19.120  0.2866  0.1128  0.0565
 4039TIP3    H136312   1.240   1.415  19.063  0.9855  0.6857 -1.0646
 4039TIP3    H236313   1.232   1.564  19.089 -1.8294  0.0545  2.4004
 4040TIP3   OH236314   6.303   1.796  18.469 -0.5426  0.2203 -0.2915
 4040TIP3    H136315   6.374   1.831  18.523  1.6800  1.8169 -3.8719
 4040TIP3    H236316   6.341   1.720  18.426 -1.7702 -0.2352 -0.6092
 4041TIP3   OH236317   4.792   3.738  19.714 -0.1469  0.3113 -0.8326
 4041TIP3    H136318   4.854   3.791  19.764 -0.4757 -0.4776  0.4483
 4041TIP3    H236319   4.812   3.648  19.738 -0.8510 -0.0401 -1.5182
 4042TIP3   OH236320   6.983   4.530  18.200  0.3404  0.1036  0.8887
 4042TIP3    H136321   6.894   4.493  18.204  0.3107  0.0618  0.0407
 4042TIP3    H236322   7.036   4.460  18.161  0.3423  0.8290 -0.4688
 4043TIP3   OH236323   1.489   5.591  19.390 -0.4313  1.0436 -0.1418
 4043TIP3    H136324   1.456   5.507  19.422  1.8320  0.2417  0.3141
 4043TIP3    H236325   1.445   5.657  19.443 -0.1424 -0.0356  1.5086
 4044TIP3   OH236326   6.068   3.340  17.396  0.0207  0.6673  0.1215
 4044TIP3    H136327   6.138   3.282  17.425 -0.9154 -0.9795 -0.7350
 4044TIP3    H236328   6.055   3.401  17.469  1.5139  0.2625  0.7643
 4045TIP3   OH236329   6.261   2.484  18.534 -0.3525 -0.1146  0.1712
 4045TIP3    H136330   6.176   2.446  18.554 -1.4356  1.6309 -0.9174
 4045TIP3    H236331   6.293   2.516  18.618 -0.4412 -1.3464  0.6982
 4046TIP3   OH236332   0.953   3.601  19.337 -0.5161  0.2480 -0.2525
 4046TIP3    H136333   1.043   3.629  19.322 -0.0799 -0.4036  0.9917
 4046TIP3    H236334   0.926   3.650  19.415 -0.7932 -0.5055  0.1294
 4047TIP3   OH236335   6.734   4.082  19.398  0.0902  0.5783 -0.2952
 4047TIP3    H136336   6.710   4.147  19.464 -0.0813  1.1996 -0.9558
 4047TIP3    H236337   6.651   4.046  19.367  0.2109 -0.5109  0.5988
 4048TIP3   OH236338   2.210   7.340  18.328  0.3748 -0.3492  0.2526
 4048TIP3    H136339   2.167   7.415  18.287  0.4894 -0.0110  0.7359
 4048TIP3    H236340   2.166   7.263  18.291 -1.8312 -0.0092  1.9348
 4049TIP3   OH236341   4.893   7.022  19.301 -0.8924  0.1875 -0.2290
 4049TIP3    H136342   4.965   7.047  19.243  0.1419  0.5649  1.1682
 4049TIP3    H236343   4.897   7.085  19.374 -1.0474 -1.3206  1.1346
 4050TIP3   OH236344   4.166   3.469  19.168 -0.0665  0.0743 -0.3240
 4050TIP3    H136345   4.118   3.462  19.085 -0.6337 -1.7608  0.1062
 4050TIP3    H236346   4.113   3.528  19.221 -1.5842 -1.3832 -0.1094
 4051TIP3   OH236347   4.711   6.921  18.860  0.3877 -0.9496 -0.0860
 4051TIP3    H136348   4.658   6.918  18.780 -1.6826  0.4412  1.1254
 4051TIP3    H236349   4.783   6.981  18.839  0.4230 -1.3462 -1.1751
 4052TIP3   OH236350   7.276   7.338  17.994  0.3965  0.1125  0.1547
 4052TIP3    H136351   7.245   7.427  17.974  0.1169 -0.0612 -0.1848
 4052TIP3    H236352   7.260   7.328  18.088  0.5494  0.4704  0.2201
 4053TIP3   OH236353   4.270   0.386  18.887  0.0572 -0.2634 -0.0203
 4053TIP3    H136354   4.297   0.360  18.975 -1.7735  0.3725  0.7989
 4053TIP3    H236355   4.270   0.482  18.890 -2.6122 -0.1960  0.2385
 4054TIP3   OH236356   0.147   1.683  18.793  0.1411 -0.1278 -0.2579
 4054TIP3    H136357   0.089   1.714  18.723  0.6332 -0.3944 -0.7864
 4054TIP3    H236358   0.138   1.588  18.791  0.9782 -0.2054 -0.6795
 4055TIP3   OH236359   2.828   6.640  17.351 -0.6063  0.0079 -0.0618
 4055TIP3    H136360   2.920   6.617  17.336 -0.4494 -0.5478  1.5004
 4055TIP3    H236361   2.795   6.667  17.266  0.7184 -0.8300 -0.8727
 4056TIP3   OH236362   2.384   3.407  18.125 -0.0544 -0.2443  0.2657
 4056TIP3    H136363   2.314   3.472  18.133 -0.4700 -0.6896  0.2608
 4056TIP3    H236364   2.464   3.455  18.147 -0.0891  0.7978 -1.6133
 4057TIP3   OH236365   3.146   5.302  18.915  0.8221  0.3301  0.7729
 4057TIP3    H136366   3.150   5.218  18.868  0.2400  1.0652 -0.6624
 4057TIP3    H236367   3.224   5.302  18.970 -0.1769 -2.0131  2.3831
 4058TIP3   OH236368   3.326   5.507  19.498  0.0175  0.4014  0.1208
 4058TIP3    H136369   3.350   5.454  19.574 -1.1742  0.8879  0.8736
 4058TIP3    H236370   3.394   5.574  19.493  0.8302 -0.4215 -0.0537
 4059TIP3   OH236371   2.783   3.930  19.196 -0.9800 -0.0877 -0.5450
 4059TIP3    H136372   2.734   3.868  19.142 -0.9146 -0.5992 -0.0220
 4059TIP3    H236373   2.813   3.997  19.134 -0.1019 -1.1552 -1.3064
 4060TIP3   OH236374   2.946   3.314  19.459  0.0205  0.0627 -0.0131
 4060TIP3    H136375   2.857   3.277  19.453  0.7812 -1.8315 -0.3341
 4060TIP3    H236376   2.933   3.408  19.455 -2.0396 -0.1503  0.6095
 4061TIP3   OH236377   5.412   0.569  17.933  0.0608 -0.2430  0.8009
 4061TIP3    H136378   5.318   0.562  17.944 -0.0835  0.6778  0.3099
 4061TIP3    H236379   5.427   0.662  17.912  1.1599 -0.1889  1.7248
 4062TIP3   OH236380   5.058   1.105  18.239  0.2459  0.2895 -0.5309
 4062TIP3    H136381   4.972   1.064  18.231  0.4580 -0.8237  1.9902
 4062TIP3    H236382   5.107   1.073  18.164 -0.8071 -1.0156 -0.6836
 4063TIP3   OH236383   6.627   0.436  19.247  0.1371 -0.0730 -0.5057
 4063TIP3    H136384   6.640   0.413  19.156 -0.6609 -2.8740  0.0050
 4063TIP3    H236385   6.580   0.362  19.285  0.2168  1.0911  2.1347
 4064TIP3   OH236386   0.999   1.355  18.665 -0.3567  0.0454 -0.4095
 4064TIP3    H136387   0.940   1.369  18.739  1.1470  0.4635  0.7476
 4064TIP3    H236388   1.083   1.390  18.694  1.0385 -2.4386 -1.2167
 4065TIP3   OH236389   1.379   4.302  17.552  0.1862  0.1479 -0.6445
 4065TIP3    H136390   1.415   4.228  17.502  0.0469  0.1593 -0.7629
 4065TIP3    H236391   1.443   4.318  17.621  0.5582  0.3664 -1.0371
 4066TIP3   OH236392   0.855   0.073  18.138  0.4574  0.0164  0.1537
 4066TIP3    H136393   0.826   0.139  18.200 -2.9858  0.3326 -1.5358
 4066TIP3    H236394   0.918   0.118  18.082 -0.8220  1.5045 -0.1372
 4067TIP3   OH236395   3.327   6.514  18.623  0.3149  0.1433 -0.0715
 4067TIP3    H136396   3.417   6.544  18.630  1.3907 -2.9671  1.7024
 4067TIP3    H236397   3.309   6.509  18.529  1.8433  1.1702 -0.4395
 4068TIP3   OH236398   1.185   0.977  19.229  0.4288 -0.1516 -0.6319
 4068TIP3    H136399   1.211   0.897  19.184  1.1084  0.9936 -2.3701
 4068TIP3    H236400   1.116   1.014  19.173  0.2531  0.5824  0.0578
 4069TIP3   OH236401   2.912   4.183  17.233 -0.4865 -0.1034  0.0283
 4069TIP3    H136402   2.967   4.137  17.170 -2.9145 -1.0835 -1.4852
 4069TIP3    H236403   2.973   4.242  17.278  2.1068 -2.3240 -0.3004
 4070TIP3   OH236404   7.503   4.871  19.566 -0.5496  0.2027 -0.2455
 4070TIP3    H136405   7.442   4.851  19.495 -0.4082 -0.7972 -0.0937
 4070TIP3    H236406   7.570   4.803  19.561 -0.5678  0.0721  0.8755
 4071TIP3   OH236407   1.978   0.514  19.293  0.1254  0.4994 -0.2035
 4071TIP3    H136408   1.886   0.490  19.305 -0.0384  1.4159  0.4023
 4071TIP3    H236409   1.986   0.602  19.330  1.1276  0.6510 -0.7362
 4072TIP3   OH236410   2.724   3.824  17.474  0.1955  0.2726 -0.4621
 4072TIP3    H136411   2.780   3.750  17.451  0.5313 -0.6953  2.8857
 4072TIP3    H236412   2.785   3.897  17.488  0.6879 -0.5572  2.3346
 4073TIP3   OH236413   6.918   0.728  17.333 -0.1310  0.5682  0.5690
 4073TIP3    H136414   6.930   0.746  17.239 -1.9638  0.9833  0.3630
 4073TIP3    H236415   6.951   0.639  17.344 -0.2742  0.3490 -0.5707
 4074TIP3   OH236416   1.531   1.607  18.975 -0.0275 -0.0362  0.4431
 4074TIP3    H136417   1.475   1.535  19.003 -2.3494  1.8304  0.9454
 4074TIP3    H236418   1.550   1.589  18.883 -0.8680 -1.1015  0.4643
 4075TIP3   OH236419   1.443   6.875  16.777 -0.7768 -0.3361  0.2162
 4075TIP3    H136420   1.534   6.895  16.796 -0.9738 -0.2590  1.1265
 4075TIP3    H236421   1.442   6.855  16.683  0.2463 -0.7641  0.2799
 4076TIP3   OH236422   5.924  -0.031  17.607 -0.2587  0.1754 -0.8915
 4076TIP3    H136423   5.860  -0.044  17.677 -1.4075  0.1382 -1.9087
 4076TIP3    H236424   5.979   0.041  17.638  0.9305 -1.4787  1.1712
 4077TIP3   OH236425   4.350   3.944  18.605  0.2039  0.0466  0.2512
 4077TIP3    H136426   4.300   3.906  18.676  0.8883 -1.1491  0.1179
 4077TIP3    H236427   4.285   3.979  18.545 -0.3816  2.0168  1.9165
 4078TIP3   OH236428   7.059   6.613  17.721  0.0151  0.2256  0.0120
 4078TIP3    H136429   7.103   6.551  17.662  0.9750  1.7254 -0.9193
 4078TIP3    H236430   7.007   6.668  17.663 -0.8922  0.2570  0.8341
 4079TIP3   OH236431   6.779   4.989  16.939  0.4469 -0.0302  0.2452
 4079TIP3    H136432   6.747   4.920  16.997  0.7223  0.3055  0.8036
 4079TIP3    H236433   6.727   5.066  16.963  1.2492  0.3667  0.7447
 4080TIP3   OH236434   1.712   1.128  18.433 -0.3032 -0.2413 -0.0178
 4080TIP3    H136435   1.733   1.035  18.445  0.8852 -0.1363 -1.0068
 4080TIP3    H236436   1.679   1.134  18.343 -1.6132  0.1134  0.4679
 4081TIP3   OH236437   4.646   4.617  18.516  0.3155 -0.2528 -0.1037
 4081TIP3    H136438   4.556   4.584  18.519  0.3948 -0.5872 -0.9134
 4081TIP3    H236439   4.662   4.632  18.422  1.6039 -1.6073 -0.1337
 4082TIP3   OH236440   0.969   3.382  18.613  0.4570 -0.8812 -0.1486
 4082TIP3    H136441   1.054   3.407  18.650  1.3055 -2.3160 -1.0347
 4082TIP3    H236442   0.969   3.286  18.616 -1.6382 -0.9012  0.9079
 4083TIP3   OH236443   2.407   1.707  19.357 -0.2949  0.1077 -0.6237
 4083TIP3    H136444   2.464   1.734  19.429 -1.0850  2.2116 -0.7172
 4083TIP3    H236445   2.447   1.627  19.323  0.4064 -0.6541  1.7889
 4084TIP3   OH236446   5.175   7.355  18.374  0.0288  0.0202 -0.0913
 4084TIP3    H136447   5.184   7.376  18.467 -1.3529  1.7865 -0.3100
 4084TIP3    H236448   5.105   7.413  18.342  0.3819 -0.6153 -2.2054
 4085TIP3   OH236449   2.323   2.471  16.201 -0.0505  0.4327  0.2010
 4085TIP3    H136450   2.352   2.470  16.111 -0.3830 -0.9473  0.0878
 4085TIP3    H236451   2.400   2.448  16.253 -0.1133  0.1837  0.1843
 4086TIP3   OH236452   3.207   1.863  17.152 -0.1886  0.3211  0.3855
 4086TIP3    H136453   3.218   1.911  17.070  2.1804 -1.0395 -0.2020
 4086TIP3    H236454   3.195   1.930  17.219  1.1707  1.6494 -0.6483
 4087TIP3   OH236455   2.087   2.809  16.819  0.2841 -0.2397  0.0087
 4087TIP3    H136456   2.126   2.783  16.902  1.7520  0.3534 -0.4392
 4087TIP3    H236457   2.145   2.770  16.753  0.6230  1.3528 -0.6843
 4088TIP3   OH236458   5.138   3.297  18.431 -0.2152  0.3562  0.1443
 4088TIP3    H136459   5.145   3.302  18.527 -1.7340  0.8538  0.2464
 4088TIP3    H236460   5.226   3.321  18.400  0.5837 -0.8030  1.4202
 4089TIP3   OH236461   2.074   7.181  18.833  0.0305 -0.2237 -0.3249
 4089TIP3    H136462   2.102   7.216  18.748  2.6213  1.7982  1.1884
 4089TIP3    H236463   2.135   7.109  18.850  1.6836  1.4007  1.0830
 4090TIP3   OH236464   3.618   4.068  18.889  0.2562 -0.3972 -0.7673
 4090TIP3    H136465   3.686   4.135  18.881  1.1162 -1.1346  0.1648
 4090TIP3    H236466   3.642   4.002  18.825  1.2550 -1.3308  0.5168
 4091TIP3   OH236467   4.395   5.651  19.181  0.3817  0.2059 -0.0602
 4091TIP3    H136468   4.299   5.653  19.184  0.1938 -2.9443 -0.2753
 4091TIP3    H236469   4.416   5.564  19.146  3.3299  0.3389  1.0801
 4092TIP3   OH236470   3.061   3.297  18.436  0.0910  0.5543 -0.3398
 4092TIP3    H136471   3.132   3.245  18.399  0.4293  0.8889 -0.1679
 4092TIP3    H236472   3.105   3.373  18.475 -0.4906  1.6031 -1.6521
 4093TIP3   OH236473   6.780   0.572  18.590 -0.1974 -0.2477 -0.5601
 4093TIP3    H136474   6.840   0.576  18.516  0.5360 -0.4299  0.0106
 4093TIP3    H236475   6.779   0.479  18.614 -1.9905 -0.5483 -1.5757
 4094TIP3   OH236476   1.457   6.672  18.592 -0.3916  0.3547 -0.1872
 4094TIP3    H136477   1.408   6.754  18.581  0.4999  0.9223 -0.0921
 4094TIP3    H236478   1.543   6.700  18.624  0.3749 -0.5008 -1.3851
 4095TIP3   OH236479   7.701   7.556  17.734  0.6896 -0.2676 -0.8304
 4095TIP3    H136480   7.655   7.489  17.783 -0.3267 -0.8137 -2.4770
 4095TIP3    H236481   7.793   7.528  17.735  0.4850 -0.9312 -0.3442
 4096TIP3   OH236482   3.307   1.867  18.600 -0.0154  0.2366  0.0726
 4096TIP3    H136483   3.324   1.849  18.693  0.7073 -0.7752 -0.2349
 4096TIP3    H236484   3.373   1.816  18.554 -2.3077 -1.8563 -1.1347
 4097TIP3   OH236485   2.528   7.583  17.448  0.6325 -0.1751 -0.0060
 4097TIP3    H136486   2.485   7.629  17.520  2.3221  3.7154 -1.2228
 4097TIP3    H236487   2.584   7.518  17.491  0.9055  1.3895  2.1886
 4098TIP3   OH236488   2.349   2.093  16.243 -0.6293  0.6877 -0.1486
 4098TIP3    H136489   2.303   2.021  16.287  0.8107 -0.2041 -0.0700
 4098TIP3    H236490   2.431   2.055  16.212  0.8459  2.6038  1.1375
 4099TIP3   OH236491   4.477   2.069  19.464  0.5429  0.5059 -0.5345
 4099TIP3    H136492   4.417   2.129  19.507  0.8078  1.1991 -1.1124
 4099TIP3    H236493   4.549   2.058  19.527 -0.3771 -0.6951  0.3539
 4100TIP3   OH236494   4.766   1.523  18.558 -0.3684 -0.7403 -0.2923
 4100TIP3    H136495   4.742   1.615  18.572  0.9935 -0.1609 -1.5536
 4100TIP3    H236496   4.819   1.524  18.479  0.1024 -2.5647 -0.0352
 4101TIP3   OH236497   0.854   6.809  18.090  0.0265  0.7592  0.6055
 4101TIP3    H136498   0.848   6.741  18.023  0.2859  0.4188  0.9271
 4101TIP3    H236499   0.841   6.891  18.041 -1.9224  0.4116  0.4535
 4102TIP3   OH236500   5.443   1.409  19.102 -0.4399 -0.0781 -0.0891
 4102TIP3    H136501   5.438   1.314  19.112  1.5076 -0.1306  0.8291
 4102TIP3    H236502   5.422   1.443  19.189  0.5815  0.2332  0.0477
 4103TIP3   OH236503   3.912   5.150  16.948  0.0611 -0.0553  0.0573
 4103TIP3    H136504   3.970   5.078  16.971 -2.5135 -2.5236 -0.5979
 4103TIP3    H236505   3.965   5.206  16.891  2.2089 -1.3168  0.6967
 4104TIP3   OH236506   5.103   6.809  16.441  0.2252 -0.2564  0.1583
 4104TIP3    H136507   5.015   6.843  16.426  0.1733 -0.3549  0.2344
 4104TIP3    H236508   5.161   6.875  16.403  0.1243 -0.1125  0.2514
 4105TIP3   OH236509   3.558   4.977  19.385  0.4871 -0.5790 -0.3977
 4105TIP3    H136510   3.499   4.901  19.385 -0.8383  0.3338  2.2597
 4105TIP3    H236511   3.645   4.939  19.398 -0.0173 -1.6878 -0.1251
 4106TIP3   OH236512   2.559   7.625  16.982 -0.2793  0.1925  0.0230
 4106TIP3    H136513   2.644   7.588  16.959 -1.5237 -1.6196 -2.0528
 4106TIP3    H236514   2.502   7.549  16.996 -1.9383  1.3237 -0.2421
 4107TIP3   OH236515   2.878   5.872  18.759 -0.2123  0.0442 -0.2450
 4107TIP3    H136516   2.959   5.869  18.810  1.5511  0.3923 -2.8148
 4107TIP3    H236517   2.872   5.785  18.718 -1.2917 -0.0516  0.0703
 4108TIP3   OH236518   2.016   5.015  16.865 -0.4593  0.0301 -0.0493
 4108TIP3    H136519   2.023   4.930  16.910 -0.6566  1.0922  2.0868
 4108TIP3    H236520   2.069   5.075  16.917 -1.7678  1.6254 -0.4625
 4109TIP3   OH236521   4.054   5.599  18.929  0.0176  0.4113 -0.2011
 4109TIP3    H136522   3.977   5.601  18.872  1.4203  0.0009 -2.2622
 4109TIP3    H236523   4.072   5.506  18.941 -0.1221  0.4987  0.7478
 4110TIP3   OH236524   4.507   2.149  18.477 -0.0030 -0.3627  0.3813
 4110TIP3    H136525   4.512   2.167  18.383  0.3012 -1.0731  0.2596
 4110TIP3    H236526   4.593   2.176  18.511  0.4967 -1.6247  0.1803
 4111TIP3   OH236527   7.227   1.871  18.012  1.0119  0.3092  0.0421
 4111TIP3    H136528   7.269   1.807  18.070 -0.6223 -0.5876  0.3039
 4111TIP3    H236529   7.186   1.934  18.071  3.0172  1.9615 -0.2156
 4112TIP3   OH236530   3.071   0.839  18.794  0.1354  0.1594  0.3122
 4112TIP3    H136531   3.123   0.760  18.779  0.3679  0.5120 -0.8445
 4112TIP3    H236532   3.135   0.903  18.827  0.1484  0.1518  0.3022
 4113TIP3   OH236533   4.604   5.767  18.896  0.1043 -0.1907 -0.1678
 4113TIP3    H136534   4.600   5.690  18.839  0.5235  0.3800 -0.9853
 4113TIP3    H236535   4.586   5.841  18.837 -0.8836  0.3004  0.7080
 4114TIP3   OH236536   1.931   6.074  19.500  0.1064 -0.2617 -0.3278
 4114TIP3    H136537   1.897   5.984  19.495 -0.7917 -0.0218  0.9536
 4114TIP3    H236538   1.862   6.123  19.545  0.9657  0.8801 -0.2211
 4115TIP3   OH236539   1.085  -0.098  18.776 -0.1948 -0.6045 -0.2711
 4115TIP3    H136540   1.176  -0.071  18.784 -0.0171 -1.0540 -0.7230
 4115TIP3    H236541   1.069  -0.105  18.682 -0.5386 -1.0302 -0.1902
 4116TIP3   OH236542   6.240   3.957  17.802 -0.0795  0.6417 -0.6367
 4116TIP3    H136543   6.290   4.029  17.839  0.9580 -0.1063 -0.5451
 4116TIP3    H236544   6.231   3.894  17.874 -1.2659  0.8049 -0.6126
 4117TIP3   OH236545   1.084   2.413  19.390 -0.7243  0.1090 -0.6044
 4117TIP3    H136546   0.999   2.409  19.432 -0.2567 -0.3438  0.3215
 4117TIP3    H236547   1.077   2.352  19.316 -0.6197 -1.4140  0.5864
 4118TIP3   OH236548   3.388   1.675  17.235  0.7436 -0.1339 -0.1462
 4118TIP3    H136549   3.389   1.606  17.168  2.6329 -0.6341  0.3599
 4118TIP3    H236550   3.337   1.746  17.194  1.8142 -0.4274 -2.1341
 4119TIP3   OH236551   4.327   5.952  16.572  0.1189  0.3906 -0.0545
 4119TIP3    H136552   4.275   5.871  16.575  0.1741  0.3833  1.2064
 4119TIP3    H236553   4.266   6.020  16.600 -0.0879  0.9036 -1.6550
 4120TIP3   OH236554   5.718   0.491  17.574  0.4166 -0.3282 -0.0754
 4120TIP3    H136555   5.643   0.549  17.561 -0.6221 -1.3135  1.1816
 4120TIP3    H236556   5.721   0.478  17.669  1.0117 -1.8093 -0.2686
 4121TIP3   OH236557   6.898   2.893  17.978  0.3301 -0.0942 -0.0459
 4121TIP3    H136558   6.940   2.979  17.977  0.0534  0.0494 -2.0347
 4121TIP3    H236559   6.825   2.903  18.039  0.7119  0.8526  0.2861
 4122TIP3   OH236560   0.259   2.929  17.617  0.1571  0.6192 -0.6168
 4122TIP3    H136561   0.196   2.875  17.569 -0.6546  1.3140 -0.3583
 4122TIP3    H236562   0.330   2.869  17.639 -0.5302 -0.2454 -0.6907
 4123TIP3   OH236563   2.353   3.955  18.823  0.2499 -0.1229  0.4446
 4123TIP3    H136564   2.383   3.942  18.733  0.5950 -3.2482  0.9069
 4123TIP3    H236565   2.258   3.964  18.817  0.3062  0.0329 -0.2390
 4124TIP3   OH236566   1.574   4.437  17.762 -0.2284  0.0707  0.2957
 4124TIP3    H136567   1.510   4.434  17.834 -0.1423 -1.1212  0.3545
 4124TIP3    H236568   1.658   4.421  17.804 -0.0352  0.5167  0.0760
 4125TIP3   OH236569   6.216   1.097  18.817 -0.5480 -0.3367  0.1254
 4125TIP3    H136570   6.133   1.140  18.795 -1.1339 -1.0153  0.9553
 4125TIP3    H236571   6.191   1.013  18.856  0.4462  0.1647  2.0027
 4126TIP3   OH236572   0.528   5.022  19.031 -0.1691  0.4879  0.1610
 4126TIP3    H136573   0.439   4.990  19.018  0.1862 -0.6116  0.2822
 4126TIP3    H236574   0.584   4.949  19.003  0.6797  0.0674  2.6669
 4127TIP3   OH236575   6.882   2.753  17.465 -0.0411 -0.1835 -0.6000
 4127TIP3    H136576   6.805   2.783  17.417  1.2105  0.3976 -2.3355
 4127TIP3    H236577   6.910   2.674  17.419  1.5455  0.7252 -1.2617
 4128TIP3   OH236578   6.830   5.232  18.930  0.3107 -0.2190  0.3864
 4128TIP3    H136579   6.925   5.245  18.921  0.2515  0.5740  0.8103
 4128TIP3    H236580   6.816   5.215  19.023  0.1417 -1.3463  0.1602
 4129TIP3   OH236581  -0.015   7.073  18.705  0.5163  0.5546  0.7858
 4129TIP3    H136582   0.074   7.090  18.675  0.2937  0.9217  0.3268
 4129TIP3    H236583  -0.017   7.111  18.793  0.9689  0.0624  1.0182
 4130TIP3   OH236584   0.920   4.855  18.440 -0.1261  0.1076 -0.0004
 4130TIP3    H136585   0.974   4.854  18.519  3.5547 -2.2700 -2.2591
 4130TIP3    H236586   0.849   4.794  18.459 -0.4722  1.0577  2.0574
 4131TIP3   OH236587   2.561   5.573  16.880  0.1622 -0.6691 -0.4728
 4131TIP3    H136588   2.525   5.517  16.811  0.6133  0.3570 -1.5645
 4131TIP3    H236589   2.486   5.625  16.910 -0.1082 -1.3490  0.0761
 4132TIP3   OH236590   1.898   2.099  16.798  0.2241  0.1040 -0.1065
 4132TIP3    H136591   1.941   2.027  16.844 -1.3227 -1.0194 -0.3513
 4132TIP3    H236592   1.948   2.107  16.716  1.4574  0.4685  0.6600
 4133TIP3   OH236593   0.085   6.095  19.254 -0.1144  0.2145  0.0867
 4133TIP3    H136594   0.108   6.042  19.331  0.2232  0.0497 -0.1277
 4133TIP3    H236595   0.120   6.046  19.180 -1.0710 -0.0074 -0.2442
 4134TIP3   OH236596   6.727   2.524  17.202  0.4289  0.2227 -0.2662
 4134TIP3    H136597   6.736   2.473  17.282 -0.0111  1.3642  0.5435
 4134TIP3    H236598   6.675   2.469  17.143  1.3407 -0.9102 -0.0358
 4135TIP3   OH236599   5.586   5.818  17.498 -0.2536 -0.0177  0.4200
 4135TIP3    H136600   5.639   5.744  17.526 -0.1285  0.7558  2.3583
 4135TIP3    H236601   5.588   5.879  17.572 -0.2450  1.9859 -1.1172
 4136TIP3   OH236602   5.182   6.112  17.573 -0.9715 -0.5325 -0.2168
 4136TIP3    H136603   5.206   6.098  17.665 -2.4214 -0.8068  0.1619
 4136TIP3    H236604   5.167   6.024  17.539 -0.8035 -0.4084 -0.6123
 4137TIP3   OH236605   2.045   0.428  17.547  0.3869  0.2793 -0.1456
 4137TIP3    H136606   2.107   0.496  17.571 -0.1081  0.2099  1.4324
 4137TIP3    H236607   2.075   0.350  17.594  1.2011 -0.7674 -2.2515
 4138TIP3   OH236608   5.333   3.567  17.618 -0.1016  0.1111 -0.3115
 4138TIP3    H136609   5.407   3.559  17.679  0.2727  1.4484 -0.5637
 4138TIP3    H236610   5.358   3.514  17.543  0.1628 -0.2295  0.0106
 4139TIP3   OH236611   0.882   7.464  18.924 -0.3699 -0.6890 -0.1029
 4139TIP3    H136612   0.900   7.384  18.873  2.1263 -1.5049  1.8831
 4139TIP3    H236613   0.960   7.518  18.913 -2.0887  1.6708 -1.5461
 4140TIP3   OH236614   0.654   5.262  19.069  0.5086  0.9497 -0.1760
 4140TIP3    H136615   0.595   5.187  19.076  1.6617  0.0269  0.0401
 4140TIP3    H236616   0.724   5.233  19.010  0.2852  2.3423 -1.1799
 4141TIP3   OH236617   0.719   6.086  18.163  0.2390 -0.1145  0.4794
 4141TIP3    H136618   0.627   6.099  18.183  0.3748  0.0757  0.9761
 4141TIP3    H236619   0.766   6.138  18.228  0.6877  0.2542 -0.1265
 4142TIP3   OH236620   6.135   4.955  17.485 -0.0140 -0.1655  0.5177
 4142TIP3    H136621   6.190   4.947  17.408 -1.2997 -0.6388 -0.3840
 4142TIP3    H236622   6.093   5.040  17.476 -0.0199 -0.1377  0.7998
 4143TIP3   OH236623   1.537   0.704  19.079 -0.0248 -0.6480  0.2391
 4143TIP3    H136624   1.599   0.695  19.007 -1.0929 -0.4094 -0.7370
 4143TIP3    H236625   1.555   0.791  19.115 -0.5160 -0.1089 -0.7699
 4144TIP3   OH236626   7.408   7.012  18.733  0.1135 -0.1726  0.7216
 4144TIP3    H136627   7.498   7.042  18.718 -0.4198  0.5956 -1.2280
 4144TIP3    H236628   7.405   6.926  18.693 -0.3897  0.4156 -0.5387
 4145TIP3   OH236629   4.768   2.563  18.589  0.0291  0.1654 -0.9130
 4145TIP3    H136630   4.821   2.607  18.523  0.7175  1.1768  0.2528
 4145TIP3    H236631   4.713   2.632  18.626  0.2211 -0.2007  0.0937
 4146TIP3   OH236632   4.999   2.445  18.365 -0.5739  0.4300 -0.9068
 4146TIP3    H136633   4.925   2.505  18.377 -0.5880  0.6874 -2.2066
 4146TIP3    H236634   5.069   2.482  18.419 -1.1776  0.5578 -0.1990
 4147TIP3   OH236635   7.098   5.704  19.375 -0.1665  0.1957  0.0044
 4147TIP3    H136636   7.098   5.770  19.445  2.7815  0.7799 -0.3959
 4147TIP3    H236637   7.116   5.622  19.420  1.2287  0.4966  0.0471
 4148TIP3   OH236638   5.449   1.697  19.246  0.2003  0.7192  0.2130
 4148TIP3    H136639   5.456   1.752  19.324  1.3510  0.4128  0.3431
 4148TIP3    H236640   5.360   1.712  19.214 -0.7213 -0.0053  2.2337
 4149TIP3   OH236641   7.315   3.454  17.239 -0.5259  0.2686  0.1316
 4149TIP3    H136642   7.259   3.471  17.163 -1.0764  1.8217  0.8522
 4149TIP3    H236643   7.279   3.374  17.278 -2.0456  1.0501  0.3844
 4150TIP3   OH236644   2.914   3.611  18.604  0.1361  0.2108  0.3663
 4150TIP3    H136645   2.947   3.629  18.516 -0.8019  0.6940  0.1089
 4150TIP3    H236646   2.969   3.539  18.635  0.8507  0.4122 -0.3894
 4151TIP3   OH236647   4.900   2.174  18.415 -0.1133  0.4689  0.3735
 4151TIP3    H136648   4.939   2.254  18.381 -0.0069  0.1056 -0.3868
 4151TIP3    H236649   4.913   2.109  18.346 -0.9617  0.0170  0.6144
 4152TIP3   OH236650   6.507   6.253  19.147 -0.0657  0.3359  0.4570
 4152TIP3    H136651   6.415   6.278  19.146  0.2235  1.4921 -1.7224
 4152TIP3    H236652   6.506   6.157  19.140 -1.0889  0.2850  1.1229
 4153TIP3   OH236653   5.781   4.931  17.157  0.3574 -0.0383  0.1269
 4153TIP3    H136654   5.759   4.848  17.200  0.5518 -0.0970  0.1147
 4153TIP3    H236655   5.867   4.915  17.117  0.8282  0.4557  0.9101
 4154TIP3   OH236656   1.981   0.630  18.183  0.0252  0.3541  0.1009
 4154TIP3    H136657   1.935   0.547  18.167  1.0632 -0.2228  0.0396
 4154TIP3    H236658   1.911   0.694  18.196 -0.7969 -0.5597  0.2922
 4155TIP3   OH236659   0.339   7.350  17.298  0.1384 -1.0630  0.0887
 4155TIP3    H136660   0.289   7.423  17.261  1.6166  0.3353  0.7291
 4155TIP3    H236661   0.312   7.274  17.246 -3.2589 -0.6041  0.9512
 4156TIP3   OH236662   6.751   6.559  18.904  0.2369 -0.1760 -0.0515
 4156TIP3    H136663   6.764   6.562  18.999  0.2006  0.7324 -0.0628
 4156TIP3    H236664   6.660   6.531  18.893 -0.7606  2.5332  0.3002
 4157TIP3   OH236665   1.893   6.093  17.863 -0.0167  0.0769 -0.5038
 4157TIP3    H136666   1.964   6.075  17.924 -0.9079 -2.4041 -0.0870
 4157TIP3    H236667   1.858   6.178  17.890 -0.6307 -1.1017  2.7324
 4158TIP3   OH236668   2.046   2.285  17.354 -0.1090  0.0816  0.0621
 4158TIP3    H136669   2.109   2.296  17.425  1.4478  1.7221 -1.4602
 4158TIP3    H236670   2.003   2.370  17.348  0.1486  0.1342 -1.2663
 4159TIP3   OH236671   5.731   5.495  17.038  0.0460 -0.0452  0.1102
 4159TIP3    H136672   5.650   5.512  16.990 -0.5232 -0.3162  0.9585
 4159TIP3    H236673   5.775   5.426  16.988 -0.0577  0.3665 -0.5593
 4160TIP3   OH236674   7.488   5.356  18.574  0.0408 -0.1778  0.2303
 4160TIP3    H136675   7.520   5.410  18.502  1.5258  0.9276  1.6543
 4160TIP3    H236676   7.456   5.276  18.531 -0.5087  1.0239 -1.7625
 4161TIP3   OH236677   4.035   1.685  18.610 -0.3072 -0.0669 -0.2093
 4161TIP3    H136678   3.949   1.660  18.577 -1.9308  0.9582  2.8631
 4161TIP3    H236679   4.033   1.663  18.703  2.0120  1.7611  0.3839
 4162TIP3   OH236680   1.307   1.641  17.027 -0.1047  0.5397  0.2863
 4162TIP3    H136681   1.213   1.637  17.041 -0.1061  0.2735  0.2130
 4162TIP3    H236682   1.321   1.592  16.946 -0.0972  1.9962 -0.6295
 4163TIP3   OH236683   5.920   3.870  18.345  0.0509  0.5844 -0.5548
 4163TIP3    H136684   5.859   3.849  18.275 -0.0330 -0.5955 -0.1516
 4163TIP3    H236685   5.872   3.853  18.425  0.2750  1.5559 -0.1912
 4164TIP3   OH236686   4.254   5.877  18.247 -0.3918 -0.5268 -0.3027
 4164TIP3    H136687   4.265   5.786  18.275  0.3260 -0.2676  0.3138
 4164TIP3    H236688   4.222   5.871  18.157 -1.6424 -1.3871  0.1767
 4165TIP3   OH236689   1.802   4.555  18.856  0.5402 -0.3673  0.5937
 4165TIP3    H136690   1.832   4.646  18.862  0.6950 -0.1856 -1.9371
 4165TIP3    H236691   1.707   4.560  18.870  0.0026  0.7446 -2.5027
 4166TIP3   OH236692   7.464   3.187  17.660 -0.4617 -0.0448 -0.0741
 4166TIP3    H136693   7.383   3.137  17.650 -0.9577  0.7568 -0.1833
 4166TIP3    H236694   7.468   3.209  17.753 -1.6033  1.8747 -0.4145
 4167TIP3   OH236695   1.544   1.072  18.921  0.0578  0.0351 -0.3236
 4167TIP3    H136696   1.611   1.069  18.852  0.5872  1.3287  0.1036
 4167TIP3    H236697   1.577   1.136  18.983 -0.4714 -1.0184  1.1018
 4168TIP3   OH236698   3.989   5.487  19.482 -0.0114 -0.2042 -0.7759
 4168TIP3    H136699   3.920   5.477  19.547  0.2364 -1.8120 -0.7081
 4168TIP3    H236700   3.985   5.406  19.430  0.4184  0.6201 -2.1411
 4169TIP3   OH236701   0.780   5.132  18.599  0.2498 -0.4090 -0.5121
 4169TIP3    H136702   0.835   5.093  18.530 -0.0488 -1.0313 -0.4004
 4169TIP3    H236703   0.692   5.099  18.581 -0.1811  0.8925 -0.9208
 4170TIP3   OH236704   2.490   6.648  16.679  0.1353  0.2058  0.1258
 4170TIP3    H136705   2.442   6.731  16.683  1.0731  0.7186  1.1834
 4170TIP3    H236706   2.552   6.653  16.751  1.2959 -0.7406 -0.7770
 4171TIP3   OH236707   3.194   1.084  18.879 -0.1370  0.3170  0.2639
 4171TIP3    H136708   3.273   1.128  18.847  0.1250 -0.5792 -0.3700
 4171TIP3    H236709   3.222   1.042  18.960  0.1112 -0.1915 -0.0784
 4172TIP3   OH236710   3.499   2.021  18.703  0.3816  0.4748 -0.1853
 4172TIP3    H136711   3.433   2.002  18.635  0.2654  0.8677 -0.1822
 4172TIP3    H236712   3.567   2.070  18.657  1.1159 -0.6850 -0.3979
 4173TIP3   OH236713   1.447   2.243  17.712  0.0071  0.0118  0.8301
 4173TIP3    H136714   1.409   2.317  17.665  0.3053 -0.3825 -0.0576
 4173TIP3    H236715   1.523   2.218  17.660 -2.0005 -3.1087 -0.8813
 4174TIP3   OH236716   7.379   4.787  18.919  0.2986 -0.0178 -0.3278
 4174TIP3    H136717   7.349   4.697  18.904  0.7362 -0.0888 -0.8101
 4174TIP3    H236718   7.334   4.839  18.853 -1.2977  0.4106  1.0403
 4175TIP3   OH236719   4.085   5.062  19.231 -0.0207 -0.4469 -0.1708
 4175TIP3    H136720   4.070   4.968  19.227  0.3916 -0.5691  0.8388
 4175TIP3    H236721   4.166   5.075  19.182  0.7989 -0.8526  1.0303
 4176TIP3   OH236722   5.315   7.530  19.031 -0.1417 -0.2026 -0.2376
 4176TIP3    H136723   5.262   7.587  19.087  1.7418  1.0755  0.3605
 4176TIP3    H236724   5.356   7.468  19.092  1.0644  0.4961 -0.3081
 4177TIP3   OH236725   2.501   5.917  17.585 -0.0668 -0.5304 -0.2806
 4177TIP3    H136726   2.543   5.836  17.556 -1.3311 -1.4995  0.4468
 4177TIP3    H236727   2.463   5.955  17.505 -0.7099 -1.4443 -0.4244
 4178TIP3   OH236728   0.103   5.925  18.347 -0.2239  0.8123 -1.0540
 4178TIP3    H136729   0.065   5.998  18.396 -1.0106  0.7359 -1.5491
 4178TIP3    H236730   0.048   5.850  18.369  0.0641  0.5502 -1.2208
 4179TIP3   OH236731   1.147   6.365  18.538  0.2107 -0.1483 -0.5577
 4179TIP3    H136732   1.156   6.346  18.444  0.3134  0.7498 -0.7413
 4179TIP3    H236733   1.222   6.421  18.557 -0.3462  0.4624 -0.1569
 4180TIP3   OH236734   0.560   3.601  19.121  0.4443 -0.1658 -0.6235
 4180TIP3    H136735   0.476   3.640  19.098  0.2294 -0.9521 -1.2322
 4180TIP3    H236736   0.546   3.562  19.207 -0.6993 -2.7031 -1.8533
 4181TIP3   OH236737   0.477   6.720  18.279  0.5399 -0.3862 -0.1830
 4181TIP3    H136738   0.399   6.666  18.286  0.5993 -0.4272  0.2269
 4181TIP3    H236739   0.543   6.673  18.330  0.5305  0.1820  0.3668
 4182TIP3   OH236740   5.212   3.343  16.637 -0.1821  0.0078 -0.2972
 4182TIP3    H136741   5.202   3.272  16.700 -2.0724 -0.2093 -0.7769
 4182TIP3    H236742   5.248   3.301  16.558  1.8959  0.2282  0.4693
 4183TIP3   OH236743   1.463   7.690  19.089 -0.2661  0.4954  0.4498
 4183TIP3    H136744   1.499   7.641  19.015 -0.4702  0.8338  0.1226
 4183TIP3    H236745   1.442   7.623  19.154 -1.5665  0.0115 -0.4237
 4184TIP3   OH236746   1.545   5.685  17.785  0.3602  0.0398 -0.4241
 4184TIP3    H136747   1.468   5.741  17.789  0.7223  0.5000  0.2990
 4184TIP3    H236748   1.560   5.671  17.692 -0.6001 -0.0621 -0.5696
 4185TIP3   OH236749   4.115   6.479  18.144 -0.3275 -0.0181  0.2189
 4185TIP3    H136750   4.165   6.510  18.219 -1.5983  0.0720  1.0611
 4185TIP3    H236751   4.071   6.558  18.110  0.0420 -0.1028 -0.4697
 4186TIP3   OH236752   2.257   7.205  19.285 -0.4169 -0.1200  0.2590
 4186TIP3    H136753   2.264   7.267  19.213  0.6544 -0.5167  0.0054
 4186TIP3    H236754   2.237   7.121  19.243  0.7690 -0.4684  0.3436
 4187TIP3   OH236755   4.806   1.252  18.669 -0.0752 -0.0012  0.3342
 4187TIP3    H136756   4.780   1.335  18.629 -0.2019 -1.1641 -2.1868
 4187TIP3    H236757   4.896   1.267  18.697  1.0779  0.1859 -2.9723
 4188TIP3   OH236758   5.318   5.483  18.529  0.0819 -0.6792  0.7638
 4188TIP3    H136759   5.249   5.543  18.556 -0.3580  0.2263 -2.0753
 4188TIP3    H236760   5.281   5.436  18.454  2.2331 -0.7564 -0.3283
 4189TIP3   OH236761   1.106   0.100  19.054 -0.7900 -0.3577 -0.3097
 4189TIP3    H136762   1.192   0.108  19.095 -1.7783 -0.8476  2.0807
 4189TIP3    H236763   1.095   0.179  19.003  0.6622  0.1985  0.2042
 4190TIP3   OH236764   6.619   4.806  19.353 -0.1613  0.0278  0.4852
 4190TIP3    H136765   6.526   4.828  19.346 -0.3413 -0.7481  0.3592
 4190TIP3    H236766   6.640   4.821  19.445 -1.0007 -1.9820  1.0691
 4191TIP3   OH236767   5.834   2.024  18.996  0.0462  0.0317 -0.1309
 4191TIP3    H136768   5.742   2.003  18.982  0.3673 -2.9538  1.3914
 4191TIP3    H236769   5.834   2.101  19.052 -1.6064 -0.8623  1.1650
 4192TIP3   OH236770   7.552   4.982  18.858  0.2553 -0.0583  0.4905
 4192TIP3    H136771   7.528   4.933  18.779 -0.4600  1.3280 -0.2048
 4192TIP3    H236772   7.573   4.915  18.923 -1.0252 -1.2811 -0.2908
 4193TIP3   OH236773   2.804   4.396  18.764 -0.3102 -0.2414 -0.8307
 4193TIP3    H136774   2.766   4.316  18.801 -0.9398 -0.1895 -1.3571
 4193TIP3    H236775   2.896   4.394  18.792 -0.8474 -0.0081  1.0370
 4194TIP3   OH236776   3.612   3.770  17.054  0.6956  0.3595  0.2801
 4194TIP3    H136777   3.586   3.750  16.965  2.2041 -1.4206  0.1769
 4194TIP3    H236778   3.577   3.858  17.071  0.5295  0.8019 -2.0972
 4195TIP3   OH236779   4.310   3.582  16.999 -0.7888 -1.1814  0.8117
 4195TIP3    H136780   4.357   3.648  16.949 -1.2205 -1.6732 -0.2955
 4195TIP3    H236781   4.378   3.533  17.046 -0.4324 -0.2761  1.2482
 4196TIP3   OH236782   7.140   0.932  17.264 -0.5152  0.3456  0.3192
 4196TIP3    H136783   7.183   0.909  17.347 -1.1058  0.2293  0.6012
 4196TIP3    H236784   7.080   0.860  17.247  0.6577 -0.3621 -0.9922
 4197TIP3   OH236785   7.154   4.759  18.142 -0.3069  0.7752  0.2089
 4197TIP3    H136786   7.137   4.765  18.048 -0.1396  1.4356  0.2146
 4197TIP3    H236787   7.102   4.684  18.171 -0.4101  0.6087 -0.3984
 4198TIP3   OH236788   0.785   4.205  17.982  0.1592 -0.2443 -0.3624
 4198TIP3    H136789   0.746   4.276  18.032  1.3699 -0.3866  0.8482
 4198TIP3    H236790   0.849   4.248  17.925  1.7409 -0.4090  1.2101
 4199TIP3   OH236791   3.021   2.900  18.481 -0.2627 -0.2533  0.3284
 4199TIP3    H136792   3.102   2.949  18.494 -0.2519 -0.3544  0.6359
 4199TIP3    H236793   2.978   2.945  18.407 -0.2877  0.2618  0.6497
 4200TIP3   OH236794   4.665   1.273  18.177 -0.2718 -0.9057  0.4093
 4200TIP3    H136795   4.757   1.297  18.184  0.7131 -4.0805 -0.0646
 4200TIP3    H236796   4.626   1.342  18.124  1.9345  0.2637  0.1903
 4201TIP3   OH236797   7.650   2.966  17.586  0.1545 -0.1353  0.0668
 4201TIP3    H136798   7.585   2.906  17.621 -0.2633  0.4190  0.2460
 4201TIP3    H236799   7.633   3.049  17.630  1.3680 -0.1345  0.5615
 4202TIP3   OH236800   0.231   6.515  17.397 -0.0442 -0.3756 -0.0706
 4202TIP3    H136801   0.183   6.463  17.332 -0.9759 -0.8960  1.0175
 4202TIP3    H236802   0.165   6.573  17.435  0.7377  0.7715 -0.3987
 4203TIP3   OH236803   1.240   0.380  17.949 -0.0354 -0.1410  0.6031
 4203TIP3    H136804   1.331   0.348  17.945  0.1151  0.0109  2.0704
 4203TIP3    H236805   1.236   0.428  18.032 -1.1525  0.8584 -0.0008
 4204TIP3   OH236806   0.309   6.398  17.864  0.0780 -0.0002  0.2133
 4204TIP3    H136807   0.343   6.479  17.827 -0.2464  0.1608  0.2612
 4204TIP3    H236808   0.215   6.414  17.873 -0.1740 -0.7594 -0.7803
 4205TIP3   OH236809   0.463   1.513  19.170  0.7977 -0.0773 -0.4440
 4205TIP3    H136810   0.505   1.599  19.167 -0.0182  0.4513  1.5647
 4205TIP3    H236811   0.406   1.517  19.247 -1.4378 -1.4398 -1.8992
 4206TIP3   OH236812   4.638   7.265  18.471  0.7269 -0.4546  0.3312
 4206TIP3    H136813   4.664   7.337  18.528  1.6643  1.2984 -2.1255
 4206TIP3    H236814   4.708   7.201  18.481  0.5738 -0.4667  1.5293
 4207TIP3   OH236815   1.054   0.085  17.286  0.0603 -1.0555 -0.4830
 4207TIP3    H136816   0.964   0.117  17.291 -0.0689 -1.5796  1.5038
 4207TIP3    H236817   1.049   0.010  17.226 -0.7256 -0.8094 -0.7403
 4208TIP3   OH236818   7.042   5.860  17.400  0.8106  0.4541 -0.0061
 4208TIP3    H136819   7.063   5.806  17.324  0.7622  0.1162  0.2149
 4208TIP3    H236820   7.105   5.831  17.467  0.3172  0.1658  0.3391
 4209TIP3   OH236821   0.799   2.350  18.323  0.4627 -0.2227 -0.3740
 4209TIP3    H136822   0.848   2.337  18.242  0.8729 -3.4520  0.2346
 4209TIP3    H236823   0.732   2.282  18.321  0.0512  0.0510  1.6897
 4210TIP3   OH236824   4.820   7.334  19.147 -0.3118 -0.1802  0.5940
 4210TIP3    H136825   4.820   7.426  19.172 -1.6748 -0.3299  1.2421
 4210TIP3    H236826   4.894   7.325  19.086  0.2749  1.1685  1.0804
 4211TIP3   OH236827   1.152   6.580  17.544  0.2280 -0.1900 -0.3457
 4211TIP3    H136828   1.073   6.586  17.598  0.3295  0.1173 -0.2318
 4211TIP3    H236829   1.175   6.671  17.525  0.1774 -0.2963 -0.9283
 4212TIP3   OH236830   4.302   6.071  17.579  0.1312 -0.1567  0.2480
 4212TIP3    H136831   4.342   6.017  17.648 -1.4493 -1.5358  0.1322
 4212TIP3    H236832   4.287   6.010  17.507 -1.0044  0.6068 -0.1814
 4213TIP3   OH236833   4.186   5.334  18.914  0.0966  0.0022 -0.2458
 4213TIP3    H136834   4.243   5.378  18.851 -1.4042  2.1931 -0.1816
 4213TIP3    H236835   4.246   5.282  18.968  1.6824 -0.0087 -1.9019
 4214TIP3   OH236836   2.576   4.288  17.130  0.1114 -0.9921 -0.0017
 4214TIP3    H136837   2.633   4.320  17.200 -0.4173 -1.5931  0.7275
 4214TIP3    H236838   2.633   4.283  17.053  0.8174 -0.7393  0.4881
 4215TIP3   OH236839   4.591   0.746  18.123 -0.4749  0.1348  0.5622
 4215TIP3    H136840   4.599   0.797  18.043 -1.4504 -0.4654  0.0601
 4215TIP3    H236841   4.512   0.780  18.166 -0.7190 -0.4505  0.5884
 4216TIP3   OH236842   1.480   2.534  17.208 -0.2022 -0.9125 -0.1905
 4216TIP3    H136843   1.478   2.453  17.157 -0.0470 -1.1842  0.2261
 4216TIP3    H236844   1.393   2.539  17.249 -0.5658 -0.3488 -0.9965
 4217TIP3   OH236845   2.194   3.576  17.116  0.0249  0.4814 -0.2719
 4217TIP3    H136846   2.144   3.530  17.048 -1.1112 -0.2797  1.0239
 4217TIP3    H236847   2.174   3.528  17.196  3.4652 -0.3333  0.2266
 4218TIP3   OH236848   1.730   3.834  19.660  0.3684  0.0270  0.0188
 4218TIP3    H136849   1.746   3.837  19.754 -2.2998 -0.5980  0.5702
 4218TIP3    H236850   1.795   3.895  19.623  2.0384 -0.3389  2.1220
 4219TIP3   OH236851   6.277   5.316  19.052  0.4516 -0.2516  0.8177
 4219TIP3    H136852   6.292   5.306  18.958 -3.3157  1.5482 -0.1687
 4219TIP3    H236853   6.336   5.387  19.078 -0.3387  1.1152 -0.8946
 4220TIP3   OH236854   1.758   5.469  18.976 -0.4180 -0.9091  0.3641
 4220TIP3    H136855   1.716   5.452  19.060 -0.7549 -2.1419 -0.0323
 4220TIP3    H236856   1.777   5.563  18.976  1.6940 -1.2361  2.7930
 4221TIP3   OH236857   6.893   5.802  18.395  0.6477 -0.1200 -0.5438
 4221TIP3    H136858   6.898   5.840  18.307 -0.4723 -0.6767 -0.8760
 4221TIP3    H236859   6.965   5.739  18.398  0.3147 -0.5546 -1.3064
 4222TIP3   OH236860   4.833   0.616  18.166  0.2433  0.0126  0.1189
 4222TIP3    H136861   4.766   0.683  18.152  0.9302  0.7877  0.4357
 4222TIP3    H236862   4.838   0.569  18.083 -1.2909 -0.6272  0.3634
 4223TIP3   OH236863   6.023   6.970  17.366 -0.0915  0.4476 -0.3595
 4223TIP3    H136864   6.080   6.952  17.440 -0.7364 -2.2245 -0.4066
 4223TIP3    H236865   5.995   7.060  17.378  1.3202  0.6757  1.5887
 4224TIP3   OH236866   1.708   1.759  18.229 -0.0213 -0.3131 -0.1493
 4224TIP3    H136867   1.663   1.680  18.198  1.0856  0.1303 -3.3245
 4224TIP3    H236868   1.647   1.830  18.211 -0.7245 -0.3006  2.0328
 4225TIP3   OH236869   7.010   3.168  17.454 -0.2094 -0.0093 -0.5815
 4225TIP3    H136870   6.972   3.117  17.382 -1.5903  2.3862 -1.6633
 4225TIP3    H236871   7.008   3.108  17.529 -1.1114 -1.7575 -1.9243
 4226TIP3   OH236872   5.537   4.820  17.970  0.1601  0.1856  0.3477
 4226TIP3    H136873   5.584   4.861  18.043  2.2931 -2.0417  0.3647
 4226TIP3    H236874   5.493   4.744  18.009 -0.3452  0.1140 -0.3363
 4227TIP3   OH236875   2.434   1.169  17.086 -0.3649  0.7775  0.1571
 4227TIP3    H136876   2.465   1.231  17.020  0.0726 -0.2322 -0.6207
 4227TIP3    H236877   2.494   1.181  17.160  1.1109 -0.2241 -0.8269
 4228TIP3   OH236878   5.786   1.374  19.119  0.1912  0.4940 -0.5677
 4228TIP3    H136879   5.725   1.447  19.110 -0.1623  0.4446  1.1917
 4228TIP3    H236880   5.740   1.300  19.079  0.0018  0.9261 -1.1677
 4229TIP3   OH236881   2.298   6.849  16.828 -0.1372  0.1629 -0.1175
 4229TIP3    H136882   2.356   6.794  16.880  0.7325 -0.0505 -1.2607
 4229TIP3    H236883   2.210   6.818  16.848  0.2977 -1.2092 -0.2543
 4230TIP3   OH236884   5.214   6.770  18.637 -0.6440 -0.0559 -0.1339
 4230TIP3    H136885   5.199   6.678  18.617 -0.8824 -0.1314  0.3658
 4230TIP3    H236886   5.130   6.813  18.623 -1.4487 -0.4824  2.6755
 4231TIP3   OH236887   5.514   3.535  17.859 -0.2408  0.5433 -0.7445
 4231TIP3    H136888   5.423   3.524  17.886 -0.1943  0.7443 -0.4973
 4231TIP3    H236889   5.536   3.624  17.885 -0.4209  1.0202 -2.1414
 4232TIP3   OH236890   1.744   3.563  18.214  0.5533 -0.2008  0.1645
 4232TIP3    H136891   1.726   3.657  18.210 -1.9165 -0.5607  1.1483
 4232TIP3    H236892   1.836   3.557  18.240  0.4601  1.9502  1.1742
 4233TIP3   OH236893   4.790   3.361  19.412 -0.0872  0.4000  0.1902
 4233TIP3    H136894   4.881   3.379  19.388 -0.1013  0.2144 -0.0111
 4233TIP3    H236895   4.767   3.283  19.361  0.0338 -0.2977  1.1738
 4234TIP3   OH236896   0.665   6.023  19.006  0.0798  0.1202  0.4840
 4234TIP3    H136897   0.704   6.024  19.094  0.4458 -0.3013  0.3338
 4234TIP3    H236898   0.690   6.107  18.968  0.6376 -0.0413  0.4841
 4235TIP3   OH236899   3.470   6.764  17.961  0.2026 -0.6860  0.4039
 4235TIP3    H136900   3.512   6.687  17.998  1.1586 -1.2897 -1.7679
 4235TIP3    H236901   3.543   6.819  17.931 -0.4306 -0.9489 -1.8756
 4236TIP3   OH236902   0.623   5.741  19.331 -0.3776 -0.0182  0.2965
 4236TIP3    H136903   0.592   5.763  19.242  0.7522 -0.5706 -0.2510
 4236TIP3    H236904   0.630   5.646  19.331 -1.5766 -0.1360  1.4180
 4237TIP3   OH236905   3.728   1.860  18.717  0.0445  0.1711 -0.3343
 4237TIP3    H136906   3.658   1.925  18.709  0.0671  0.2244 -0.1126
 4237TIP3    H236907   3.721   1.807  18.637 -1.1339 -0.7104  0.3260
 4238TIP3   OH236908   2.193   6.682  18.789 -0.5572  0.1382  0.6686
 4238TIP3    H136909   2.172   6.735  18.713  1.5447 -2.0100 -1.5869
 4238TIP3    H236910   2.118   6.623  18.799 -0.7163  0.2418  0.0791
 4239TIP3   OH236911   2.789   3.292  17.801 -0.3639 -0.6339 -0.4723
 4239TIP3    H136912   2.787   3.376  17.754  2.0662  0.6732  1.5253
 4239TIP3    H236913   2.853   3.239  17.754 -0.3314 -0.5511 -0.5205
 4240TIP3   OH236914   0.947   6.172  18.324  0.0913 -0.1854  0.2475
 4240TIP3    H136915   1.036   6.206  18.324 -0.1411  0.5436 -1.7865
 4240TIP3    H236916   0.928   6.156  18.417  2.4389 -0.7272  0.7127
 4241TIP3   OH236917   2.597   0.018  18.529 -0.7158  0.4946  0.1216
 4241TIP3    H136918   2.597   0.089  18.465 -0.5749  0.6850  0.3361
 4241TIP3    H236919   2.538  -0.048  18.491  1.0598 -0.3685 -1.3091
 4242TIP3   OH236920   5.106   0.450  18.590  0.4775 -0.1281 -0.0099
 4242TIP3    H136921   5.051   0.511  18.639  1.8150  0.1535  1.2036
 4242TIP3    H236922   5.130   0.497  18.511  0.5114  0.4550  0.3435
 4243TIP3   OH236923   2.785   2.475  17.287  0.0898  0.5239  0.0044
 4243TIP3    H136924   2.850   2.516  17.344  0.0500  0.5868  0.0057
 4243TIP3    H236925   2.825   2.392  17.261 -0.3014  0.0386  0.9100
 4244TIP3   OH236926   7.638   5.671  18.122 -0.2633 -0.2279  0.2579
 4244TIP3    H136927   7.636   5.733  18.049 -1.2466 -0.3077  0.2045
 4244TIP3    H236928   7.612   5.722  18.198  1.4170  0.0167  0.7110
 4245TIP3   OH236929   1.823   0.980  17.850  0.1237  0.2452  0.0005
 4245TIP3    H136930   1.730   0.993  17.835  0.0009 -0.5088  0.0882
 4245TIP3    H236931   1.849   1.054  17.905 -0.6186 -0.0314  0.7423
 4246TIP3   OH236932   7.294  -0.005  18.518  0.3576 -0.4940  0.3402
 4246TIP3    H136933   7.233   0.007  18.591  0.0505  0.1237 -0.0092
 4246TIP3    H236934   7.378  -0.025  18.559  0.8714  2.5464  0.9981
 4247TIP3   OH236935   3.555   5.699  19.101  0.2624  0.0151  0.3632
 4247TIP3    H136936   3.553   5.789  19.134 -1.8772  0.7284 -1.4702
 4247TIP3    H236937   3.629   5.698  19.039  1.2678  0.0172  1.5221
 4248TIP3   OH236938   4.774   4.437  19.014  0.4291 -0.1808 -0.0175
 4248TIP3    H136939   4.768   4.482  19.099  1.7444 -1.9618  1.0856
 4248TIP3    H236940   4.685   4.409  18.996 -0.2349  1.8952 -0.2312
 4249TIP3   OH236941   1.993   5.217  17.502 -0.1530 -0.0291  0.4178
 4249TIP3    H136942   2.073   5.243  17.548  0.8031  0.8837 -1.6465
 4249TIP3    H236943   1.954   5.299  17.474 -0.7631 -0.5580 -0.3057
 4250TIP3   OH236944   6.199   4.125  18.055  0.0970 -0.3234  0.1471
 4250TIP3    H136945   6.263   4.057  18.079 -0.8279 -1.5721 -0.7879
 4250TIP3    H236946   6.119   4.100  18.100 -0.2974  0.0617 -0.3264
 4251TIP3   OH236947   6.044   1.500  18.923  0.3827 -0.2240  0.1329
 4251TIP3    H136948   5.992   1.496  19.003 -0.0894  1.8008 -0.0198
 4251TIP3    H236949   6.017   1.423  18.873  0.7040 -1.5454  1.8848
 4252TIP3   OH236950   7.055   4.838  19.683  0.0972  0.0161 -0.1189
 4252TIP3    H136951   7.098   4.923  19.687 -0.4295  0.5598 -3.1487
 4252TIP3    H236952   7.126   4.775  19.693  0.6893  0.7965  0.8208
 4253TIP3   OH236953   4.923   3.609  18.087 -0.5493  0.1324 -0.0181
 4253TIP3    H136954   4.876   3.603  18.005 -0.2595 -2.0341 -0.0968
 4253TIP3    H236955   4.975   3.528  18.091 -1.6464 -0.5813  2.9167
 4254TIP3   OH236956   5.030   6.232  19.484 -0.3239  0.0761  0.3084
 4254TIP3    H136957   4.987   6.304  19.437 -0.9775 -0.3319  0.2790
 4254TIP3    H236958   5.076   6.183  19.415  0.1472  0.4656  0.3328
 4255TIP3   OH236959   5.551   6.626  19.256  0.0783  0.3596  0.8226
 4255TIP3    H136960   5.462   6.622  19.221  0.6428 -1.0422 -0.5474
 4255TIP3    H236961   5.555   6.557  19.321  0.4307 -0.2200  0.1962
 4256TIP3   OH236962   4.356   0.167  18.268  1.0093 -0.8576 -0.2757
 4256TIP3    H136963   4.408   0.247  18.265  1.1497 -0.9661 -0.7142
 4256TIP3    H236964   4.283   0.183  18.207 -0.2238 -0.1839  1.3072
 4257TIP3   OH236965   7.215   1.168  19.179 -0.3298 -0.5831  0.4218
 4257TIP3    H136966   7.252   1.252  19.207 -0.0857 -0.2641 -0.8141
 4257TIP3    H236967   7.260   1.103  19.233  0.9860 -0.0866 -0.0415
 4258TIP3   OH236968   1.613   0.385  17.268  0.5210  0.6631 -0.1025
 4258TIP3    H136969   1.667   0.394  17.347  1.6704  0.2631 -0.8121
 4258TIP3    H236970   1.525   0.410  17.296  0.9733  0.8685  1.2167
 4259TIP3   OH236971   2.880   7.152  18.137 -0.2516  0.6008  0.0223
 4259TIP3    H136972   2.952   7.116  18.085 -1.1137 -2.1162  0.5245
 4259TIP3    H236973   2.917   7.165  18.224 -0.2860 -0.6639  0.2477
 4260TIP3   OH236974   3.114   4.699  17.589 -0.2786 -0.1333  0.3665
 4260TIP3    H136975   3.133   4.605  17.593  0.4934 -0.0056 -0.2244
 4260TIP3    H236976   3.021   4.703  17.565 -0.0453 -0.7596 -0.7326
 4261TIP3   OH236977   1.361   1.475  17.305  0.1607  0.2780 -0.0023
 4261TIP3    H136978   1.451   1.505  17.314  1.1897 -2.6085  0.2317
 4261TIP3    H236979   1.341   1.434  17.390 -0.4531 -1.3083 -0.8807
 4262TIP3   OH236980   4.320   4.234  18.781  0.0442  0.0701 -0.4064
 4262TIP3    H136981   4.381   4.160  18.792 -0.5254 -0.2161  1.1082
 4262TIP3    H236982   4.235   4.198  18.805 -0.1964  1.2898  0.6756
 4263TIP3   OH236983   3.888   5.797  17.052  0.4703 -0.0515 -0.6744
 4263TIP3    H136984   3.818   5.771  17.112  1.6029 -0.1613  0.6521
 4263TIP3    H236985   3.858   5.769  16.966 -0.9687 -0.3653 -0.0966
 4264TIP3   OH236986   3.246   5.748  18.275 -0.4556  0.0391  0.0704
 4264TIP3    H136987   3.225   5.753  18.368 -2.5187  0.3801 -0.3716
 4264TIP3    H236988   3.293   5.829  18.257 -1.6621  0.8491  0.4536
 4265TIP3   OH236989   6.683   0.473  18.977 -0.0711 -0.5383  0.5282
 4265TIP3    H136990   6.655   0.458  18.887  1.9337  0.4520 -0.3159
 4265TIP3    H236991   6.663   0.565  18.993 -0.3188 -0.6824  1.0693
 4266TIP3   OH236992   7.531   1.212  18.555 -0.0258 -0.3789  1.0091
 4266TIP3    H136993   7.462   1.274  18.582 -1.4400 -0.1699 -2.4825
 4266TIP3    H236994   7.603   1.268  18.527 -1.1877 -0.1132 -1.8506
 4267TIP3   OH236995   4.628   1.046  19.057  0.5977  0.5019  0.3466
 4267TIP3    H136996   4.688   1.058  18.984 -2.6521  0.0539 -2.6491
 4267TIP3    H236997   4.560   0.988  19.023 -0.3268 -1.0504  4.3057
 4268TIP3   OH236998   4.190   1.275  19.022  0.5036  0.6365  0.1271
 4268TIP3    H136999   4.215   1.360  19.060 -0.5871  1.3551 -0.7103
 4268TIP3    H237000   4.248   1.212  19.065  1.7178  1.8692  0.3744
 4269TIP3   OH237001   3.464   4.799  18.278  0.3202  0.4023 -0.3771
 4269TIP3    H137002   3.417   4.819  18.197 -1.4219  0.2424  0.5538
 4269TIP3    H237003   3.466   4.882  18.326 -0.6754 -0.0083  0.3975
 4270TIP3   OH237004   0.646   3.100  18.343 -0.5774 -0.2884  0.4631
 4270TIP3    H137005   0.675   3.030  18.402  1.8225 -0.0278 -0.2913
 4270TIP3    H237006   0.590   3.155  18.397  0.7059 -0.6278  2.2353
 4271TIP3   OH237007   4.078   0.410  16.842  0.4185  0.2038  0.4180
 4271TIP3    H137008   4.077   0.352  16.766 -1.9574 -0.0945  0.6308
 4271TIP3    H237009   4.168   0.405  16.874  1.1567 -0.6374 -1.6073
 4272TIP3   OH237010   3.908   7.055  17.397 -0.0390 -0.2323 -0.0139
 4272TIP3    H137011   3.884   7.073  17.488 -1.9674  0.4878 -0.6148
 4272TIP3    H237012   3.932   6.962  17.396  1.0811 -0.0021  1.3944
 4273TIP3   OH237013   6.334   1.277  19.535 -0.0858  0.3144  0.0465
 4273TIP3    H137014   6.381   1.260  19.617  0.9736 -0.7473 -0.7334
 4273TIP3    H237015   6.256   1.222  19.541 -0.6763  1.2216  0.8787
 4274TIP3   OH237016   6.474   4.098  17.849 -0.1961 -0.0233 -0.2268
 4274TIP3    H137017   6.423   4.176  17.829 -2.4349 -0.5824  2.6434
 4274TIP3    H237018   6.470   4.045  17.769 -2.5964  0.8054 -0.7437
 4275TIP3   OH237019   7.069   4.788  17.853  0.5855  0.2257 -0.0789
 4275TIP3    H137020   7.070   4.701  17.812 -0.3805  0.3626 -0.4279
 4275TIP3    H237021   7.157   4.822  17.839  1.4532 -1.2871  1.3812
 4276TIP3   OH237022   5.339   4.479  19.642 -0.4416 -0.3727 -0.2170
 4276TIP3    H137023   5.346   4.532  19.721  0.5797  0.4321 -0.8194
 4276TIP3    H237024   5.360   4.390  19.670  0.8682  0.0604  0.2631
 4277TIP3   OH237025   5.579   1.865  18.229  0.8514 -0.6502  0.1111
 4277TIP3    H137026   5.648   1.931  18.237 -0.8377  1.2735 -0.0956
 4277TIP3    H237027   5.533   1.868  18.313 -0.1347 -0.4417 -0.4092
 4278TIP3   OH237028   5.488   5.702  16.438 -0.3041  0.0716 -0.3237
 4278TIP3    H137029   5.505   5.627  16.495 -1.0455  0.2614  0.1551
 4278TIP3    H237030   5.531   5.680  16.355  0.7206 -0.2409  0.2778
 4279TIP3   OH237031   2.223   3.137  19.215  0.0732  0.0252  0.4359
 4279TIP3    H137032   2.196   3.100  19.131 -2.1405  1.1641  0.5782
 4279TIP3    H237033   2.314   3.108  19.226  0.2919 -0.4820 -2.1335
 4280TIP3   OH237034   5.781   7.371  19.292 -0.1457 -0.7422  0.9218
 4280TIP3    H137035   5.877   7.379  19.294  0.0386 -1.2216 -2.0069
 4280TIP3    H237036   5.750   7.457  19.266 -0.2955 -1.2421 -0.6311
 4281TIP3   OH237037   2.297   1.964  18.050 -0.1613 -0.6875  1.1956
 4281TIP3    H137038   2.297   1.886  18.107  0.5407 -1.0708  0.6834
 4281TIP3    H237039   2.205   1.979  18.031 -0.3283 -1.2023  1.5660
 4282TIP3   OH237040   4.502   0.645  18.477  0.0090 -0.3661 -0.3042
 4282TIP3    H137041   4.501   0.572  18.539  0.5197  0.5082  0.7731
 4282TIP3    H237042   4.416   0.644  18.436 -0.5233 -0.6536  0.8007
 4283TIP3   OH237043   7.424   1.629  18.823  0.4524 -0.1364 -0.3505
 4283TIP3    H137044   7.367   1.678  18.764  0.9402 -0.3639 -1.0272
 4283TIP3    H237045   7.426   1.681  18.903 -0.7999 -0.1947 -0.2627
 4284TIP3   OH237046   6.549   2.158  18.597 -0.0895  0.6113  0.3746
 4284TIP3    H137047   6.633   2.131  18.560  0.2278  1.4710  0.4580
 4284TIP3    H237048   6.511   2.215  18.530  0.0730  1.4303  0.9674
 4285TIP3   OH237049   5.829   4.337  17.564 -0.2221  0.0929  0.2421
 4285TIP3    H137050   5.917   4.337  17.600  0.2200  0.5306 -0.8008
 4285TIP3    H237051   5.776   4.383  17.630  0.1122 -1.0179  1.3218
 4286TIP3   OH237052   3.851   4.473  16.457 -0.4779 -0.3123 -0.0451
 4286TIP3    H137053   3.838   4.529  16.533 -1.3324  0.1628 -0.5253
 4286TIP3    H237054   3.815   4.523  16.383  0.8324 -0.5244 -0.8576
 4287TIP3   OH237055   3.557   1.507  18.304  0.0679  0.0711 -0.6412
 4287TIP3    H137056   3.617   1.494  18.231 -0.5680 -1.4000 -0.9237
 4287TIP3    H237057   3.478   1.459  18.280 -0.9414  1.3165  0.0835
 4288TIP3   OH237058   6.560   6.714  19.583 -0.6759  0.0068 -0.3397
 4288TIP3    H137059   6.571   6.768  19.504  2.9940 -0.9642 -0.6665
 4288TIP3    H237060   6.609   6.761  19.651 -1.0992 -0.7637  0.5065
 4289TIP3   OH237061   4.922   6.743  19.286  0.6908 -0.0755  0.0352
 4289TIP3    H137062   4.868   6.797  19.343 -0.2251 -1.0026  0.0841
 4289TIP3    H237063   4.912   6.781  19.199 -0.8295 -0.7703 -0.1293
 4290TIP3   OH237064   6.681   3.026  18.152  0.1262  0.2161  0.0060
 4290TIP3    H137065   6.615   3.086  18.120 -0.3665  0.0913  0.7463
 4290TIP3    H237066   6.718   3.070  18.229  1.7810  0.8348 -1.0787
 4291TIP3   OH237067   2.830   5.361  19.262  0.0299  0.3159  0.8070
 4291TIP3    H137068   2.907   5.408  19.294  0.5740  0.5311 -0.7336
 4291TIP3    H237069   2.811   5.296  19.330  2.3166 -0.5497  0.7016
 4292TIP3   OH237070   5.174   2.798  19.602 -0.2605  0.0663  0.1583
 4292TIP3    H137071   5.191   2.889  19.625  0.7338 -0.1553  0.3099
 4292TIP3    H237072   5.255   2.767  19.563 -0.4147 -0.9145  0.5929
 4293TIP3   OH237073   4.546   1.760  19.178  0.0804  0.1357 -0.3611
 4293TIP3    H137074   4.613   1.698  19.207  0.4180 -0.2121 -1.7914
 4293TIP3    H237075   4.505   1.791  19.259  2.2618  0.7213  0.6063
 4294TIP3   OH237076   4.248   3.580  18.390  0.2251  0.5692  0.0678
 4294TIP3    H137077   4.250   3.598  18.296  0.0624 -1.7278 -0.4316
 4294TIP3    H237078   4.319   3.634  18.426 -0.1524  2.0149 -1.2361
 4295TIP3   OH237079   2.795   0.817  18.422  0.3496 -0.4791 -0.0019
 4295TIP3    H137080   2.737   0.889  18.446  0.3720 -0.5353  0.2266
 4295TIP3    H237081   2.877   0.837  18.467  1.0642  0.4693 -1.6182
 4296TIP3   OH237082   1.722   2.087  18.949 -0.1784  0.7523 -0.3405
 4296TIP3    H137083   1.789   2.145  18.912  0.4810  0.9691  1.1051
 4296TIP3    H237084   1.772   2.015  18.987 -1.0073 -1.0277 -2.4254
 4297TIP3   OH237085   0.437   4.919  19.913 -0.2404 -0.0386  0.3746
 4297TIP3    H137086   0.390   5.002  19.912 -0.6601 -0.2780 -0.1083
 4297TIP3    H237087   0.375   4.855  19.878  0.8455 -0.1174 -1.5547
 4298TIP3   OH237088   7.047   2.745  17.769 -0.2490 -0.1328 -0.1911
 4298TIP3    H137089   7.099   2.669  17.794 -0.0184  0.2236  0.4504
 4298TIP3    H237090   7.019   2.783  17.853 -2.4704 -0.9236 -0.4942
 4299TIP3   OH237091   3.641   2.894  18.249 -0.5643  0.3937  0.0615
 4299TIP3    H137092   3.686   2.829  18.303  0.2552  0.6900 -0.2334
 4299TIP3    H237093   3.571   2.845  18.206  2.7062 -1.6488 -3.7885
 4300TIP3   OH237094   3.924   4.351  17.052  0.1456  0.2649  0.4724
 4300TIP3    H137095   3.978   4.423  17.020  1.4561 -0.5453  0.7553
 4300TIP3    H237096   3.936   4.282  16.987 -1.0917  0.2839  0.2097
 4301TIP3   OH237097   1.854   6.009  18.921  0.1277  0.0271  0.3485
 4301TIP3    H137098   1.859   6.031  19.014  0.9192 -0.5458  0.4503
 4301TIP3    H237099   1.846   5.914  18.918 -0.7404  0.1061 -0.1533
 4302TIP3   OH237100   0.555   0.717  19.028 -0.4240 -0.4150 -0.1678
 4302TIP3    H137101   0.590   0.640  19.072 -0.2111 -0.9547 -1.2527
 4302TIP3    H237102   0.514   0.683  18.949  0.8375  0.6880 -1.3570
 4303TIP3   OH237103   7.194   7.573  18.266 -0.0673  0.2095 -0.2070
 4303TIP3    H137104   7.238   7.596  18.348  2.6200 -0.5969 -1.2965
 4303TIP3    H237105   7.225   7.639  18.203 -0.0058 -0.6568 -1.1217
 4304TIP3   OH237106   2.742   1.794  17.766  0.0969  0.1353  0.1919
 4304TIP3    H137107   2.787   1.864  17.717 -1.2455  1.8674  1.3112
 4304TIP3    H237108   2.650   1.801  17.738 -0.1538 -0.8165  0.7596
 4305TIP3   OH237109   1.486   4.064  17.468  0.7907  0.2440  0.8167
 4305TIP3    H137110   1.516   4.055  17.378 -0.6648  0.0494  0.3289
 4305TIP3    H237111   1.532   3.994  17.515 -0.5427 -1.5015 -0.3518
 4306TIP3   OH237112   7.019   3.640  17.307  0.1210 -0.7065  0.3995
 4306TIP3    H137113   7.012   3.613  17.215 -1.4760 -0.2728  0.3632
 4306TIP3    H237114   7.024   3.735  17.303 -2.0208 -0.5413  0.8135
 4307TIP3   OH237115   6.792   2.837  17.105  0.2141 -0.0011 -0.8690
 4307TIP3    H137116   6.874   2.797  17.077 -0.3076 -0.6899 -1.4553
 4307TIP3    H237117   6.735   2.831  17.028 -0.5437  0.0375 -0.3231
 4308TIP3   OH237118   6.515   7.230  19.210 -0.8119 -0.0373  0.3790
 4308TIP3    H137119   6.493   7.151  19.259  0.5388  0.3438  1.6513
 4308TIP3    H237120   6.542   7.198  19.124  0.7475 -1.0685  1.2148
 4309TIP3   OH237121   4.354   1.153  19.217  0.0209 -0.0540 -0.2282
 4309TIP3    H137122   4.415   1.194  19.278  3.2366 -1.9018 -1.9549
 4309TIP3    H237123   4.360   1.059  19.235 -2.3110 -0.3230 -0.5475
 4310TIP3   OH237124   1.140   3.276  17.422  0.9386  0.2531 -0.3381
 4310TIP3    H137125   1.108   3.271  17.512  2.3715  1.1920  0.2641
 4310TIP3    H237126   1.122   3.190  17.385 -1.1594  0.3708  0.3092
 4311TIP3   OH237127   0.963   3.655  19.054  0.6064  0.1734 -0.0899
 4311TIP3    H137128   1.006   3.655  19.140  2.3360 -0.8549 -0.9114
 4311TIP3    H237129   0.916   3.572  19.051 -1.5158  1.2669  0.7815
 4312TIP3   OH237130   3.387   2.752  19.430 -0.3298  0.1966  0.7002
 4312TIP3    H137131   3.429   2.695  19.494 -0.4459  0.3113  0.8815
 4312TIP3    H237132   3.375   2.697  19.353  0.1857  0.1794  0.6333
 4313TIP3   OH237133   7.055   7.076  18.062  0.2129  0.2196 -0.3301
 4313TIP3    H137134   6.995   7.055  18.134  1.2715 -2.9545 -0.2399
 4313TIP3    H237135   7.137   7.099  18.105  0.4187 -0.1923 -0.5000
 4314TIP3   OH237136   5.166   6.962  18.080 -0.2394  0.4398  0.1807
 4314TIP3    H137137   5.161   7.057  18.078  1.9105  0.6072 -0.0188
 4314TIP3    H237138   5.247   6.941  18.033 -0.0307 -1.4048  1.2417
 4315TIP3   OH237139   1.765   3.865  17.792  0.3920  0.4301  0.3704
 4315TIP3    H137140   1.699   3.934  17.794 -0.9713 -0.8199  1.5549
 4315TIP3    H237141   1.761   3.826  17.880 -0.4177 -2.4825 -0.8270
 4316TIP3   OH237142   1.294   6.904  18.604  0.2500 -0.1075 -0.4795
 4316TIP3    H137143   1.319   6.996  18.608 -0.3963  0.0190  1.7230
 4316TIP3    H237144   1.277   6.879  18.695 -1.3293 -1.9148 -1.1964
 4317TIP3   OH237145   0.475   2.839  19.337  0.0854 -0.0646 -0.2519
 4317TIP3    H137146   0.447   2.774  19.401  1.1798  0.9292  1.3256
 4317TIP3    H237147   0.544   2.888  19.382  2.3471 -0.5857 -2.9049
 4318TIP3   OH237148   6.468   5.542  17.334 -0.1901  0.4177 -0.1377
 4318TIP3    H137149   6.482   5.549  17.240  1.1728  1.4345  0.1154
 4318TIP3    H237150   6.397   5.478  17.343  0.0649 -0.1422 -1.8143
 4319TIP3   OH237151   5.227   6.457  17.300 -0.3167 -0.4097 -0.2870
 4319TIP3    H137152   5.160   6.428  17.362 -0.2087  0.7033  0.3667
 4319TIP3    H237153   5.293   6.388  17.303 -0.1773 -0.2517  1.0715
 4320TIP3   OH237154   4.745   0.121  18.138  0.5866  0.2962 -0.6125
 4320TIP3    H137155   4.665   0.075  18.114  1.1321 -0.7857 -0.4419
 4320TIP3    H237156   4.814   0.075  18.090  1.4828 -0.7827  1.5730
 4321TIP3   OH237157   5.215   2.927  18.777  0.1702  0.0009 -0.0026
 4321TIP3    H137158   5.120   2.939  18.772 -0.0601 -1.4896  0.2309
 4321TIP3    H237159   5.252   3.002  18.731 -1.1363  0.3029 -0.5885
 4322TIP3   OH237160   3.324   0.535  17.804  0.1207  0.3817  0.0311
 4322TIP3    H137161   3.232   0.559  17.814  0.2125  0.6498  0.2511
 4322TIP3    H237162   3.371   0.618  17.810  0.2710  0.4533 -1.6387
 4323TIP3   OH237163   0.824   5.107  19.598 -0.3737 -0.2603 -0.2192
 4323TIP3    H137164   0.796   5.043  19.533 -2.1946 -0.7152  0.9347
 4323TIP3    H237165   0.791   5.073  19.681  1.5454  0.4877  0.9224
 4324TIP3   OH237166   6.937   1.864  18.547 -0.1563  0.1043 -0.6153
 4324TIP3    H137167   6.920   1.771  18.562  0.9382  0.0607  0.5091
 4324TIP3    H237168   6.858   1.909  18.577  0.5067 -0.2624  1.8907
 4325TIP3   OH237169   5.940   1.259  18.804  0.1030  0.3325  0.2676
 4325TIP3    H137170   5.952   1.226  18.893  0.3005  0.3424  0.2442
 4325TIP3    H237171   5.863   1.214  18.772  0.8682 -0.7695 -0.0719
 4326TIP3   OH237172   6.733   4.073  18.570 -0.2963 -0.0228 -0.3766
 4326TIP3    H137173   6.755   4.139  18.504 -2.2318  0.7677 -0.3012
 4326TIP3    H237174   6.814   4.060  18.619  0.8936  0.1823 -2.1975
 4327TIP3   OH237175   1.990   6.735  17.339  0.6376  0.5658  0.4688
 4327TIP3    H137176   1.910   6.785  17.356 -1.2082 -1.8971 -0.4688
 4327TIP3    H237177   2.030   6.723  17.425 -1.0595  0.2147  1.2449
 4328TIP3   OH237178   4.897   6.410  19.322  0.1677 -0.1049 -0.0083
 4328TIP3    H137179   4.831   6.475  19.299  0.9405  0.4942 -0.5958
 4328TIP3    H237180   4.978   6.461  19.335  0.3910 -0.7508  1.2853
 4329TIP3   OH237181   4.893   3.104  18.103  0.6372 -0.3039  0.0151
 4329TIP3    H137182   4.852   3.144  18.180  0.5830  1.1455 -0.7281
 4329TIP3    H237183   4.965   3.052  18.138  0.0671 -0.3909  1.1021
 4330TIP3   OH237184   4.601   4.675  19.564  0.2147  0.0892 -0.3826
 4330TIP3    H137185   4.521   4.699  19.610 -0.0097 -1.1931 -0.0810
 4330TIP3    H237186   4.619   4.585  19.590  0.4245 -0.4877 -2.3232
 4331TIP3   OH237187   7.436   6.483  17.373 -0.0379 -0.4516  0.3087
 4331TIP3    H137188   7.350   6.441  17.377 -0.8730  1.0012 -1.0442
 4331TIP3    H237189   7.472   6.456  17.289 -0.4112  1.1030 -0.3977
 4332TIP3   OH237190   1.484   7.359  18.773  0.1333 -0.0226  0.0394
 4332TIP3    H137191   1.518   7.343  18.861 -0.9960 -0.8367  0.3512
 4332TIP3    H237192   1.560   7.347  18.715  0.5490 -1.0371  0.7725
 4333TIP3   OH237193   3.229   4.432  17.582 -0.0055 -0.1485  0.2898
 4333TIP3    H137194   3.271   4.403  17.663 -0.8542  0.0411  0.8158
 4333TIP3    H237195   3.278   4.389  17.512  1.1494  0.1961  0.8640
 4334TIP3   OH237196   5.925   2.999  18.128 -0.6346  0.2459 -0.2477
 4334TIP3    H137197   5.913   3.033  18.040  0.2728  1.4145  0.0555
 4334TIP3    H237198   6.016   3.018  18.149 -0.3201 -1.6254  0.2898
 4335TIP3   OH237199   6.736   0.043  18.050 -0.4899 -0.5445 -0.2944
 4335TIP3    H137200   6.829   0.039  18.072  0.1564  0.4150 -2.4876
 4335TIP3    H237201   6.694  -0.019  18.109  1.6458 -1.5313  0.2912
 4336TIP3   OH237202   1.074   2.824  18.905  0.4659 -0.4518  1.2323
 4336TIP3    H137203   1.022   2.827  18.825 -1.1484 -1.0677  2.2174
 4336TIP3    H237204   1.161   2.852  18.877  1.2543 -4.7996 -1.7386
 4337TIP3   OH237205   1.172   3.769  18.278  0.4265 -0.4361 -0.5985
 4337TIP3    H137206   1.234   3.814  18.337  0.6357 -0.8545 -0.4975
 4337TIP3    H237207   1.149   3.689  18.325 -1.6593  0.5790  0.2424
 4338TIP3   OH237208   4.206   4.450  19.481  0.7218  0.4427  0.1404
 4338TIP3    H137209   4.230   4.358  19.468  0.2968  0.2626  0.6061
 4338TIP3    H237210   4.266   4.499  19.424  2.1703  0.0070  1.2180
 4339TIP3   OH237211   5.851   0.516  18.335 -0.1883  0.0073  0.2106
 4339TIP3    H137212   5.927   0.482  18.288 -0.2326  0.5602 -0.2702
 4339TIP3    H237213   5.808   0.574  18.273 -0.4816  0.4315  0.7996
 4340TIP3   OH237214   4.688   0.903  17.309 -0.3258 -0.3712 -0.1599
 4340TIP3    H137215   4.637   0.833  17.268 -0.9354  0.2548 -0.4880
 4340TIP3    H237216   4.774   0.864  17.323 -0.7532 -1.3040 -0.0047
 4341TIP3   OH237217   7.533   3.506  18.325  0.1398  0.0119  0.4661
 4341TIP3    H137218   7.460   3.445  18.327  0.4059 -0.3449 -0.3766
 4341TIP3    H237219   7.546   3.525  18.232 -1.3648  3.0898  0.7428
 4342TIP3   OH237220   0.170   7.437  18.429  0.1833 -0.3360  0.2642
 4342TIP3    H137221   0.136   7.510  18.480  1.2640  2.7207 -2.9787
 4342TIP3    H237222   0.237   7.398  18.485 -0.3438  1.2224  2.0786
 4343TIP3   OH237223   6.173   7.360  18.971  0.2796 -0.0839 -0.2509
 4343TIP3    H137224   6.179   7.370  19.066 -0.8525 -1.8773  0.0456
 4343TIP3    H237225   6.085   7.389  18.948  0.6056  0.5158 -0.8105
 4344TIP3   OH237226   0.115   7.277  17.536  0.0617  0.2651 -0.2882
 4344TIP3    H137227   0.210   7.282  17.542  0.2050 -2.0428  0.3525
 4344TIP3    H237228   0.083   7.342  17.598  1.2667 -0.1392  0.7943
 4345TIP3   OH237229   6.395   4.958  18.472 -0.1849 -0.2737 -0.1199
 4345TIP3    H137230   6.481   4.974  18.510 -0.8460  0.9978  0.8921
 4345TIP3    H237231   6.411   4.960  18.377  0.6974  1.1921  0.0247
 4346TIP3   OH237232   5.184   6.650  16.651 -0.5039  0.1040 -0.2165
 4346TIP3    H137233   5.101   6.641  16.698  0.4189 -1.4358  1.2004
 4346TIP3    H237234   5.161   6.697  16.571 -2.6997 -0.0927  0.2451
 4347TIP3   OH237235   6.960   0.949  18.438 -0.4510  0.2214  0.1332
 4347TIP3    H137236   7.016   1.022  18.412 -1.3403  1.3675  1.2945
 4347TIP3    H237237   7.009   0.904  18.506 -0.6819  0.9226  0.7892
 4348TIP3   OH237238   3.703   5.875  19.628  0.0699  0.3054 -0.1036
 4348TIP3    H137239   3.691   5.819  19.705 -1.3756  0.4071 -0.2345
 4348TIP3    H237240   3.793   5.858  19.600 -0.3076 -1.9805 -0.1296
 4349TIP3   OH237241   3.815   3.104  18.968 -0.5437 -0.1631 -0.2079
 4349TIP3    H137242   3.881   3.039  18.991 -1.4885 -1.6760 -1.5562
 4349TIP3    H237243   3.746   3.092  19.032 -0.8324 -0.6939 -0.6112
 4350TIP3   OH237244   3.611   6.438  19.068  0.3106  0.1077  0.6290
 4350TIP3    H137245   3.546   6.406  19.006  2.2034 -2.7662 -0.0773
 4350TIP3    H237246   3.569   6.429  19.154 -0.5777 -0.8292  0.1176
 4351TIP3   OH237247   5.915   4.928  18.339 -0.1537  0.2024  0.7580
 4351TIP3    H137248   5.864   4.872  18.397 -1.0923 -0.0213 -0.2300
 4351TIP3    H237249   5.982   4.967  18.395  0.8893 -2.3083  1.3746
 4352TIP3   OH237250   4.708   1.126  17.592  0.1250  0.0771 -0.5410
 4352TIP3    H137251   4.740   1.036  17.587  1.9303  0.6906 -0.8023
 4352TIP3    H237252   4.711   1.157  17.501 -2.0006 -0.0500 -0.7061
 4353TIP3   OH237253   6.845   6.596  17.085  0.0577 -0.8398 -0.3317
 4353TIP3    H137254   6.775   6.587  17.021  0.0251 -2.0539 -0.1584
 4353TIP3    H237255   6.800   6.606  17.169  0.0858  1.7179 -0.5446
 4354TIP3   OH237256   4.057   1.254  19.303 -0.4131  0.2529  0.4973
 4354TIP3    H137257   3.980   1.199  19.315 -0.2899 -0.0603 -0.1220
 4354TIP3    H237258   4.036   1.310  19.229 -0.5275  1.0366  1.1048
 4355TIP3   OH237259   0.109   2.833  19.653 -0.9284  0.3120 -0.5186
 4355TIP3    H137260   0.016   2.817  19.668 -0.7241  0.1835  0.6530
 4355TIP3    H237261   0.149   2.826  19.739  0.3868 -1.1078 -1.1982
 4356TIP3   OH237262   3.689   4.988  18.062  0.4358  0.5850 -0.2869
 4356TIP3    H137263   3.693   4.893  18.054 -1.6181  0.2968  1.1781
 4356TIP3    H237264   3.684   5.019  17.971 -2.4715 -1.0283 -0.8262
 4357TIP3   OH237265   5.309   5.328  19.752 -0.8637 -0.4078 -0.4818
 4357TIP3    H137266   5.366   5.365  19.685 -0.0998  1.8742  1.3020
 4357TIP3    H237267   5.338   5.237  19.761 -0.7734 -0.6752 -2.9319
 4358TIP3   OH237268   1.711   7.262  18.634 -0.2782  0.1090  0.3118
 4358TIP3    H137269   1.691   7.179  18.592 -2.4115  1.2226 -1.0717
 4358TIP3    H237270   1.757   7.313  18.567  0.5379  0.2457  0.9625
 4359TIP3   OH237271   4.296   6.186  18.776 -0.3336  0.3035 -0.0897
 4359TIP3    H137272   4.250   6.135  18.842 -0.0624  0.2846  0.0841
 4359TIP3    H237273   4.333   6.260  18.824  1.8102 -0.8959  0.2345
 4360TIP3   OH237274   1.208   4.034  17.637 -0.3414 -0.8270  0.2996
 4360TIP3    H137275   1.301   4.013  17.648 -0.2618 -1.1339 -0.7738
 4360TIP3    H237276   1.167   4.010  17.719  0.0622 -3.4138 -0.1852
 4361TIP3   OH237277   3.978   2.024  18.262 -0.5780  0.5879 -0.0396
 4361TIP3    H137278   4.070   2.048  18.272 -0.0419 -0.7259 -1.3705
 4361TIP3    H237279   3.936   2.103  18.229 -0.1370  1.4680  1.4101
 4362TIP3   OH237280   4.270   5.366  17.728 -0.2415  0.0236 -0.5530
 4362TIP3    H137281   4.349   5.417  17.743  0.1236 -0.5475 -0.4728
 4362TIP3    H237282   4.212   5.390  17.800 -0.8862  1.8115 -1.5993
 4363TIP3   OH237283   7.565   2.359  17.308 -0.4233 -0.1889 -0.1971
 4363TIP3    H137284   7.631   2.429  17.307 -0.4082 -0.2018 -0.6490
 4363TIP3    H237285   7.616   2.278  17.311 -0.4511 -0.1764  0.7645
 4364TIP3   OH237286   2.098   2.119  16.632  0.1426  0.6477 -0.2622
 4364TIP3    H137287   2.166   2.114  16.699  0.2490  2.5263 -0.1572
 4364TIP3    H237288   2.145   2.138  16.551 -0.1942  1.2117 -0.3319
 4365TIP3   OH237289   6.407   0.261  18.485  0.7127 -0.0369  0.1213
 4365TIP3    H137290   6.421   0.352  18.457  1.0211  0.5925  2.1436
 4365TIP3    H237291   6.423   0.263  18.579 -1.3445 -1.7758  0.5694
 4366TIP3   OH237292   0.581   5.103  18.419  0.2636  0.4584 -0.0226
 4366TIP3    H137293   0.656   5.139  18.371 -0.1313  0.0677 -0.9567
 4366TIP3    H237294   0.527   5.179  18.438  1.1720  0.8250  1.1785
 4367TIP3   OH237295   1.375   6.521  18.338 -0.3531  0.4602  0.4920
 4367TIP3    H137296   1.451   6.463  18.335 -0.6945  0.0433 -1.7355
 4367TIP3    H237297   1.383   6.567  18.422  0.1325 -2.5136  2.2482
 4368TIP3   OH237298   6.183   6.718  18.712 -0.5260  0.1420  0.2260
 4368TIP3    H137299   6.238   6.796  18.711  0.3536 -0.4649  0.8774
 4368TIP3    H237300   6.125   6.730  18.636 -1.2712  2.0223  1.0313
 4369TIP3   OH237301   7.681   7.572  19.017  0.2785 -0.2084 -0.3014
 4369TIP3    H137302   7.677   7.517  19.095  3.7581 -0.4466 -0.1570
 4369TIP3    H237303   7.671   7.510  18.944  0.8301 -0.5626 -0.0836
 4370TIP3   OH237304   5.726   4.237  19.467  0.4830 -0.0434 -0.5177
 4370TIP3    H137305   5.699   4.224  19.376  2.3274  0.4375 -1.1612
 4370TIP3    H237306   5.819   4.257  19.462  0.2073  2.0390  1.3286
 4371TIP3   OH237307   2.715   3.822  18.848 -0.2228 -0.1720 -0.2054
 4371TIP3    H137308   2.801   3.785  18.865  0.3326  0.7274 -0.9605
 4371TIP3    H237309   2.720   3.855  18.758 -1.9845 -1.8283 -0.9759
 4372TIP3   OH237310   3.689   0.961  18.571 -0.4197  0.1629  0.2525
 4372TIP3    H137311   3.593   0.955  18.567 -0.4441  0.4195  0.4523
 4372TIP3    H237312   3.719   0.917  18.491 -0.6882 -0.3226  0.4113
 4373TIP3   OH237313   1.316   7.167  18.202  0.1629 -0.2768  0.4977
 4373TIP3    H137314   1.292   7.144  18.112  2.3354 -1.3253  0.1214
 4373TIP3    H237315   1.303   7.086  18.251 -2.8806  0.7540  1.6540
 4374TIP3   OH237316   0.825   3.390  17.445  0.0628 -0.0367 -0.5746
 4374TIP3    H137317   0.740   3.347  17.449  0.5140 -0.8572  0.9812
 4374TIP3    H237318   0.874   3.341  17.379 -0.1070 -0.6508 -0.2526
 4375TIP3   OH237319   0.112   0.241  18.175  0.1987  0.7067  0.6813
 4375TIP3    H137320   0.056   0.168  18.202 -0.3931  0.4311 -1.1345
 4375TIP3    H237321   0.201   0.212  18.195  0.0739 -1.0426 -0.9865
 4376TIP3   OH237322   4.010   2.022  17.513  0.0725  0.1674  0.2637
 4376TIP3    H137323   3.949   1.949  17.526 -0.1703  0.1125 -1.0816
 4376TIP3    H237324   4.090   1.995  17.559 -0.3694 -0.4672  0.6753
 4377TIP3   OH237325   0.684   5.985  18.608  0.3705 -0.1225 -0.6791
 4377TIP3    H137326   0.701   5.915  18.545  0.4627 -1.4923  0.7977
 4377TIP3    H237327   0.769   6.025  18.623  0.5316 -0.4783 -0.6439
 4378TIP3   OH237328   2.484   1.368  16.912 -0.3011 -0.7745 -0.3932
 4378TIP3    H137329   2.557   1.418  16.949 -1.0813  0.4921 -0.4934
 4378TIP3    H237330   2.458   1.418  16.835 -0.5126 -1.8589 -1.0452
 4379TIP3   OH237331   4.911   2.639  17.150  0.3312  0.3724  0.4451
 4379TIP3    H137332   4.847   2.709  17.138 -0.6444 -0.5605  0.0815
 4379TIP3    H237333   4.877   2.566  17.099  1.5831 -0.2205  0.4169
 4380TIP3   OH237334   5.327   4.879  17.118 -0.0070 -0.4594  0.6256
 4380TIP3    H137335   5.281   4.912  17.040  0.1501 -0.9074  0.3427
 4380TIP3    H237336   5.403   4.833  17.083  0.7744  0.4359  1.1041
 4381TIP3   OH237337   7.302   2.411  17.018  0.3289 -0.1428  0.7031
 4381TIP3    H137338   7.293   2.473  17.090  0.3983 -1.2364  1.6924
 4381TIP3    H237339   7.388   2.372  17.031  0.1427 -0.6931  0.3140
 4382TIP3   OH237340   4.882   4.246  18.148  0.0762  0.1099  0.0727
 4382TIP3    H137341   4.953   4.289  18.101 -1.1790  1.8406 -0.3248
 4382TIP3    H237342   4.927   4.191  18.214  1.8047 -0.6897 -1.6588
 4383TIP3   OH237343   3.401   0.210  18.340  0.0411 -0.2835 -0.6271
 4383TIP3    H137344   3.384   0.117  18.355 -0.6076  0.0507  0.8504
 4383TIP3    H237345   3.324   0.255  18.374  1.0113  0.8921  0.1017
 4384TIP3   OH237346   6.272   7.429  17.645  0.0629 -0.2052 -0.1778
 4384TIP3    H137347   6.301   7.338  17.649 -1.9576 -0.9808 -1.2498
 4384TIP3    H237348   6.352   7.480  17.635  1.2444 -1.8628  0.4143
 4385TIP3   OH237349   3.829   3.007  18.543 -0.0080 -0.3143  0.1614
 4385TIP3    H137350   3.853   3.097  18.519 -0.3467  0.8385  3.5582
 4385TIP3    H237351   3.912   2.966  18.568 -0.2183  0.3771  2.2122
 4386TIP3   OH237352   0.696   7.474  17.511  0.0026  0.4332 -0.2524
 4386TIP3    H137353   0.783   7.496  17.478 -0.2773  1.6331 -0.2006
 4386TIP3    H237354   0.639   7.545  17.482 -1.4227 -1.3169 -2.0643
 4387TIP3   OH237355   4.298   1.503  19.142  0.2898 -0.1952 -0.2553
 4387TIP3    H137356   4.370   1.486  19.203  1.2858 -0.3595 -1.4339
 4387TIP3    H237357   4.266   1.590  19.165  1.1335  0.0444  0.0371
 4388TIP3   OH237358   6.287   1.952  18.776 -0.4667  0.4548 -0.2365
 4388TIP3    H137359   6.351   1.882  18.760 -1.5017 -0.5442 -0.1486
 4388TIP3    H237360   6.331   2.032  18.747  0.8646 -0.1858 -0.0417
 4389TIP3   OH237361   5.057   1.317  18.018 -0.2504 -0.4708 -0.1034
 4389TIP3    H137362   5.123   1.381  18.044 -0.0259 -1.0310  0.7467
 4389TIP3    H237363   4.987   1.327  18.083 -0.6869 -0.3630 -0.5868
 4390TIP3   OH237364   7.080   5.324  17.395  0.2873  0.0001 -0.3836
 4390TIP3    H137365   7.027   5.403  17.409 -1.2816 -1.2161  1.1258
 4390TIP3    H237366   7.161   5.340  17.443 -0.8186 -0.0218  1.5740
 4391TIP3   OH237367   5.417   1.602  18.934  0.3788 -0.1272 -0.2991
 4391TIP3    H137368   5.380   1.665  18.996  1.3331  0.0137  0.1407
 4391TIP3    H237369   5.438   1.525  18.987  0.4237 -0.3269 -0.6041
 4392TIP3   OH237370   0.731   6.596  18.401  0.1421 -0.5430 -0.1693
 4392TIP3    H137371   0.784   6.548  18.338  2.0742  2.0457 -0.6972
 4392TIP3    H237372   0.783   6.597  18.481 -0.7925 -1.0243  0.4602
 4393TIP3   OH237373   6.665   1.925  17.875  0.2151 -0.4485  0.2500
 4393TIP3    H137374   6.756   1.901  17.895 -0.0260 -1.0982  0.5984
 4393TIP3    H237375   6.630   1.954  17.959  0.3616  0.7063 -0.0672
 4394TIP3   OH237376   1.398   5.545  18.264  0.0661 -0.1308 -0.1636
 4394TIP3    H137377   1.439   5.526  18.179 -0.0560  0.1650 -0.2870
 4394TIP3    H237378   1.307   5.520  18.253 -0.1629  0.7918 -0.4216
 4395TIP3   OH237379   6.967   0.815  16.856 -0.3237 -0.6350  0.6651
 4395TIP3    H137380   6.889   0.870  16.850  1.2301  1.6462 -0.3250
 4395TIP3    H237381   7.032   0.860  16.802  1.5665 -2.6492  1.1099
 4396TIP3   OH237382   7.631   3.107  17.235  0.7980  0.1859  0.2722
 4396TIP3    H137383   7.709   3.138  17.188  0.0497 -0.0858 -1.2095
 4396TIP3    H237384   7.612   3.022  17.195  0.6322 -0.4618  1.6901
 4397TIP3   OH237385   1.545   7.096  17.174  0.2520 -0.0711  0.3356
 4397TIP3    H137386   1.455   7.117  17.150 -0.0492 -1.2235  0.4129
 4397TIP3    H237387   1.595   7.108  17.094 -0.1890 -0.6497 -0.0322
 4398TIP3   OH237388   3.673   2.737  18.532  0.3675  0.6226  0.0764
 4398TIP3    H137389   3.721   2.819  18.541  2.8753 -0.5363 -1.7122
 4398TIP3    H237390   3.675   2.698  18.620 -0.7060  2.3090  0.9022
 4399TIP3   OH237391   1.456   0.134  17.339 -0.0834 -0.0161  0.0932
 4399TIP3    H137392   1.382   0.164  17.286  1.0565  0.1379 -1.4876
 4399TIP3    H237393   1.504   0.214  17.359 -0.2879 -0.1215  1.0895
 4400TIP3   OH237394   7.299   0.572  17.881  0.0504 -0.2494 -0.4580
 4400TIP3    H137395   7.281   0.489  17.924 -1.2162 -0.1232 -0.6982
 4400TIP3    H237396   7.366   0.552  17.815  0.3538 -0.9010  0.0440
 4401TIP3   OH237397   3.742   3.176  17.326 -0.0778  0.7553 -0.4308
 4401TIP3    H137398   3.711   3.117  17.258 -1.1260  0.9154 -0.1217
 4401TIP3    H237399   3.834   3.152  17.340 -0.2323 -0.1753 -0.9504
 4402TIP3   OH237400   3.476   1.825  17.825  0.4819 -0.4458 -0.0622
 4402TIP3    H137401   3.477   1.730  17.836 -0.1063 -0.5734 -0.9730
 4402TIP3    H237402   3.492   1.859  17.913  0.9623 -1.3828  0.2349
 4403TIP3   OH237403   2.860   5.280  17.857 -0.5120  0.0305  0.0845
 4403TIP3    H137404   2.774   5.278  17.899 -0.1900 -0.6469  0.7341
 4403TIP3    H237405   2.923   5.278  17.930  0.0519 -0.3047 -0.3944
 4404TIP3   OH237406   6.377   4.986  18.159 -0.0284 -0.0069  0.3371
 4404TIP3    H137407   6.414   5.074  18.158  1.2465 -0.5170  0.3998
 4404TIP3    H237408   6.283   4.999  18.149  0.2260  1.3171 -0.5838
 4405TIP3   OH237409   0.371   5.792  18.294  0.5227  0.0069  0.9924
 4405TIP3    H137410   0.407   5.881  18.292  0.9779 -0.1684  1.1213
 4405TIP3    H237411   0.298   5.796  18.355  1.0410  0.1146  1.6145
 4406TIP3   OH237412   6.314   7.431  19.264  0.2476  0.7513  0.2403
 4406TIP3    H137413   6.360   7.348  19.273  0.0134  0.5174 -0.6211
 4406TIP3    H237414   6.383   7.497  19.256  0.4633  0.3666 -1.3767
 4407TIP3   OH237415   7.352   4.890  17.184 -0.0734  0.5588  0.0115
 4407TIP3    H137416   7.257   4.880  17.176  0.0634  0.2113 -1.4039
 4407TIP3    H237417   7.368   4.982  17.163 -0.0091  0.3501 -0.9242
 4408TIP3   OH237418   4.321   6.339  17.596  0.3709  0.2950  0.1795
 4408TIP3    H137419   4.413   6.313  17.597  0.6565  1.2635  0.3788
 4408TIP3    H237420   4.273   6.258  17.582  1.2907 -0.1342 -0.6035
 4409TIP3   OH237421   4.081   3.914  18.184 -0.1836  0.0337  0.0986
 4409TIP3    H137422   4.175   3.896  18.184 -0.2136 -0.2080  1.7032
 4409TIP3    H237423   4.075   4.007  18.207 -0.3157  0.4125 -1.3342
 4410TIP3   OH237424   6.521   1.619  17.653  0.3171 -0.1789  0.0181
 4410TIP3    H137425   6.509   1.696  17.597 -0.4848 -0.2295  0.1191
 4410TIP3    H237426   6.595   1.573  17.613 -0.0073 -0.0206 -0.7909
 4411TIP3   OH237427   2.800   6.536  17.607 -0.3204  0.3673 -0.4010
 4411TIP3    H137428   2.793   6.569  17.517 -0.4033  1.6006  0.0401
 4411TIP3    H237429   2.871   6.588  17.645 -0.7460  0.3364  0.4458
 4412TIP3   OH237430   0.164   4.125  17.607 -0.2974 -0.1819  0.2888
 4412TIP3    H137431   0.233   4.099  17.668 -0.2693  1.4192  0.9839
 4412TIP3    H237432   0.116   4.045  17.589  1.3128 -1.1978  0.3356
 4413TIP3   OH237433   5.770   6.399  18.705  0.0674  0.1497  0.2452
 4413TIP3    H137434   5.844   6.446  18.744 -0.3125  0.5577  0.4804
 4413TIP3    H237435   5.803   6.310  18.690  1.1181  0.7309 -1.1200
 4414TIP3   OH237436   4.140   6.112  16.712 -0.2191 -0.0778  0.1132
 4414TIP3    H137437   4.193   6.182  16.750 -0.3968  0.5363 -0.7393
 4414TIP3    H237438   4.050   6.133  16.738 -0.1152 -0.9021  1.2266
 4415TIP3   OH237439   3.862   1.445  18.271  0.0707  0.2244  0.2823
 4415TIP3    H137440   3.861   1.380  18.201  0.6638  1.1647 -0.6452
 4415TIP3    H237441   3.944   1.428  18.318  0.2453  0.3219  0.0172
 4416TIP3   OH237442   5.679   5.306  18.823 -0.8771  0.2144 -0.2543
 4416TIP3    H137443   5.603   5.271  18.775 -0.4930 -0.1376 -0.6225
 4416TIP3    H237444   5.740   5.232  18.826  0.8480  1.3599 -2.8769
 4417TIP3   OH237445   2.370   1.529  18.862  0.1376  0.3658 -1.2008
 4417TIP3    H137446   2.341   1.595  18.800 -0.4935  0.0348 -1.2726
 4417TIP3    H237447   2.353   1.446  18.817 -0.1926  0.1302 -0.6463
 4418TIP3   OH237448   1.190   3.098  19.351 -0.4926 -0.1757  0.1236
 4418TIP3    H137449   1.221   3.185  19.375  2.8572 -0.8020 -1.3772
 4418TIP3    H237450   1.155   3.109  19.262  2.0438 -0.6334 -1.0206
 4419TIP3   OH237451   4.448   3.221  16.908 -0.1543 -0.1834 -0.4735
 4419TIP3    H137452   4.368   3.266  16.882  0.0063 -1.2258 -3.0203
 4419TIP3    H237453   4.421   3.131  16.923  0.0431  0.0733  1.7336
 4420TIP3   OH237454   1.459   4.109  19.578  0.1028  0.2847 -0.0480
 4420TIP3    H137455   1.372   4.130  19.613  0.9344  2.1871  1.0521
 4420TIP3    H237456   1.468   4.015  19.590 -1.4889  0.1715  0.5532
 4421TIP3   OH237457   6.963   4.091  18.751  0.2904 -0.2522 -0.1898
 4421TIP3    H137458   6.968   3.996  18.741  1.8554 -0.3987  1.4551
 4421TIP3    H237459   7.049   4.116  18.787 -0.2942  1.7019 -0.0355
 4422TIP3   OH237460   1.013   0.417  18.527  0.7150 -0.1904  0.2456
 4422TIP3    H137461   0.960   0.472  18.470  1.9394  0.2129 -0.5227
 4422TIP3    H237462   0.959   0.407  18.606 -0.3776  0.4391 -0.3865
 4423TIP3   OH237463   1.667   6.656  16.407 -0.6410 -0.3271  0.4155
 4423TIP3    H137464   1.740   6.703  16.366  0.3865 -0.8912  1.5442
 4423TIP3    H237465   1.671   6.679  16.499 -0.2916 -2.3373  0.9663
 4424TIP3   OH237466   2.442   4.491  18.513  0.0952 -0.2249  0.7312
 4424TIP3    H137467   2.429   4.549  18.588  1.9228  1.1337  0.0765
 4424TIP3    H237468   2.537   4.479  18.508  0.1948  0.8496 -2.1139
 4425TIP3   OH237469   4.767   2.443  16.995  0.2451  0.2566  0.5458
 4425TIP3    H137470   4.837   2.411  16.938  1.3396  0.2886  1.8038
 4425TIP3    H237471   4.705   2.370  17.001  0.5035 -0.0153 -0.0725
 4426TIP3   OH237472   1.992   0.234  19.254  0.2937 -0.1214  0.4823
 4426TIP3    H137473   2.041   0.317  19.249  1.7997 -0.7349  3.3042
 4426TIP3    H237474   1.901   0.261  19.263  0.2647  1.0955 -2.3955
 4427TIP3   OH237475   5.131   2.297  17.934  0.2965 -0.6871 -0.2973
 4427TIP3    H137476   5.064   2.359  17.963  0.5464 -0.5583  0.0166
 4427TIP3    H237477   5.189   2.348  17.878  0.0985 -0.8139 -0.6206
 4428TIP3   OH237478   2.309   6.248  18.099 -0.2296 -0.3723 -0.8135
 4428TIP3    H137479   2.399   6.279  18.089 -0.3974  0.6379  0.5853
 4428TIP3    H237480   2.262   6.290  18.027  0.0671  0.5985 -0.4646
 4429TIP3   OH237481   2.292   2.978  19.463  0.7900 -0.1513 -0.1157
 4429TIP3    H137482   2.267   2.984  19.371 -0.6118  1.2759  0.3068
 4429TIP3    H237483   2.279   3.067  19.497  1.5972 -0.5703  1.3865
 4430TIP3   OH237484   2.934   5.790  18.030 -0.6554  0.0142  0.2349
 4430TIP3    H137485   3.006   5.841  17.991 -0.8178  1.3749  1.6351
 4430TIP3    H237486   2.890   5.751  17.955  1.4999 -0.8223 -0.6760
 4431TIP3   OH237487   7.125   3.377  18.749  0.1140 -0.3386  0.3536
 4431TIP3    H137488   7.072   3.300  18.725 -0.2306 -0.6506  1.9946
 4431TIP3    H237489   7.188   3.343  18.812 -0.2808  0.7819  1.3843
 4432TIP3   OH237490   1.984   6.714  18.086  0.1610  0.4372  0.1331
 4432TIP3    H137491   1.893   6.705  18.117  0.3955 -1.5290  0.3708
 4432TIP3    H237492   1.979   6.779  18.017 -1.1263  1.7043  1.3310
 4433TIP3   OH237493   4.103   6.851  18.236  0.4926 -0.4685  0.0270
 4433TIP3    H137494   4.032   6.855  18.300 -1.1062 -0.7337 -1.6471
 4433TIP3    H237495   4.071   6.792  18.168  1.5351  0.8365 -1.6957
 4434TIP3   OH237496   7.558   1.432  17.983 -0.3348 -0.1094 -0.2724
 4434TIP3    H137497   7.632   1.393  18.029 -0.1062  1.4387  0.7194
 4434TIP3    H237498   7.598   1.487  17.915 -0.4844  1.7598  1.0977
 4435TIP3   OH237499   4.454   2.101  17.182  0.0982 -0.4554  0.3194
 4435TIP3    H137500   4.465   2.011  17.212  2.7399 -0.3550 -0.0611
 4435TIP3    H237501   4.520   2.111  17.113 -1.1618  1.3480 -0.7255
 4436TIP3   OH237502   1.210   6.467  17.785 -0.1867  0.1022 -0.1633
 4436TIP3    H137503   1.186   6.483  17.694  0.9174  1.6647 -0.2196
 4436TIP3    H237504   1.129   6.439  17.827 -0.9269  0.3139 -1.4159
 4437TIP3   OH237505   6.803   3.917  17.591  0.4318  0.1826 -0.0689
 4437TIP3    H137506   6.707   3.916  17.584  0.3973  0.3834  0.3498
 4437TIP3    H237507   6.830   3.830  17.561  0.1469  0.2466 -0.5312
 4438TIP3   OH237508   3.723   6.709  17.234  0.9265  0.3469 -0.3067
 4438TIP3    H137509   3.692   6.796  17.258  0.7619 -0.0609  1.0199
 4438TIP3    H237510   3.645   6.663  17.205  0.7690  0.2199  0.3025
 4439TIP3   OH237511   7.010   3.680  18.546  0.0668  0.0336  0.4607
 4439TIP3    H137512   6.928   3.653  18.505  0.2136 -1.0610  0.8270
 4439TIP3    H237513   6.986   3.750  18.606 -0.3609  0.7099 -0.4861
 4440TIP3   OH237514   1.595   5.750  18.554  0.3927 -0.0425 -0.0612
 4440TIP3    H137515   1.608   5.830  18.501  0.0181  0.8771  1.1913
 4440TIP3    H237516   1.504   5.754  18.581  0.1063 -1.4130 -0.7369
 4441TIP3   OH237517   3.836   4.141  18.477  0.2017 -0.3616 -0.0107
 4441TIP3    H137518   3.832   4.206  18.547  0.8224  0.8768 -1.0786
 4441TIP3    H237519   3.793   4.184  18.403  1.0820 -0.9467 -0.8868
 4442TIP3   OH237520   1.662   2.837  16.816  0.3774  0.6843 -0.6266
 4442TIP3    H137521   1.701   2.845  16.902  0.6750 -0.3092 -0.6553
 4442TIP3    H237522   1.568   2.841  16.832  0.3348 -1.5158  0.0301
 4443TIP3   OH237523   5.206   1.734  19.077  0.4563  0.1111 -0.0614
 4443TIP3    H137524   5.207   1.828  19.059  0.8282  0.0880 -0.1682
 4443TIP3    H237525   5.118   1.705  19.053  1.3278 -0.2065 -3.2713
 4444TIP3   OH237526   1.315   2.573  18.556  1.1161  0.3994 -0.7122
 4444TIP3    H137527   1.285   2.608  18.472  0.4321  0.1317 -0.5889
 4444TIP3    H237528   1.323   2.478  18.541 -1.5881 -0.0701  0.2114
 4445TIP3   OH237529   6.217   7.231  18.723  0.4663  0.0583 -0.1977
 4445TIP3    H137530   6.190   7.311  18.679  0.9196  0.0503 -0.4943
 4445TIP3    H237531   6.190   7.243  18.814  0.0592  0.3228 -0.3555
 4446TIP3   OH237532   6.240   3.419  18.447 -0.0587  0.2293  0.6144
 4446TIP3    H137533   6.276   3.356  18.510 -1.6094  0.8680  2.2325
 4446TIP3    H237534   6.147   3.426  18.471 -0.1328  2.4349 -0.0943
 4447TIP3   OH237535   6.827   1.358  18.003 -0.5099 -0.0422 -0.5888
 4447TIP3    H137536   6.863   1.350  18.091 -1.7546 -1.7259 -0.1784
 4447TIP3    H237537   6.902   1.352  17.945  0.1772 -0.4349  0.3186
 4448TIP3   OH237538   3.845   6.266  17.764  0.4222  0.2628 -0.2685
 4448TIP3    H137539   3.849   6.269  17.859 -0.8522 -2.7006 -0.0096
 4448TIP3    H237540   3.751   6.258  17.744  0.6499  1.0416 -1.8002
 4449TIP3   OH237541   6.324   5.914  19.434 -0.0715 -0.1964  1.1693
 4449TIP3    H137542   6.348   5.822  19.420 -2.5049 -0.7563  0.2977
 4449TIP3    H237543   6.241   5.925  19.388  1.1580  3.0402 -0.6155
 4450TIP3   OH237544   2.106   5.023  19.044 -0.0425 -0.0972  0.4187
 4450TIP3    H137545   2.019   5.037  19.004 -0.8758 -2.7133  1.1394
 4450TIP3    H237546   2.131   4.935  19.016  1.7794  0.0957  1.3408
 4451TIP3   OH237547   5.912   5.235  19.615 -0.0669  0.5166  0.0455
 4451TIP3    H137548   5.844   5.208  19.677 -0.4195 -0.9868 -0.9218
 4451TIP3    H237549   5.904   5.330  19.609 -1.5511  0.4426  0.5581
 4452TIP3   OH237550   6.918   4.594  18.471 -0.1578 -0.0682  0.2468
 4452TIP3    H137551   6.829   4.626  18.455 -0.0301 -0.6353 -1.9041
 4452TIP3    H237552   6.948   4.562  18.386  1.6097 -1.1684  1.2126
 4453TIP3   OH237553   4.292   2.169  19.067  0.7091  0.4775 -0.4991
 4453TIP3    H137554   4.364   2.221  19.032  1.0590 -0.0179 -0.5236
 4453TIP3    H237555   4.304   2.172  19.162  0.5818  0.6398 -0.4868
 4454TIP3   OH237556   0.189   4.138  18.073  0.7518 -0.2955  0.0564
 4454TIP3    H137557   0.259   4.076  18.092 -0.1281 -1.7135 -1.1401
 4454TIP3    H237558   0.114   4.108  18.125  0.7162  0.6178  0.5599
 4455TIP3   OH237559   4.422   1.392  17.816 -0.4023  0.3942  0.2798
 4455TIP3    H137560   4.455   1.427  17.899  1.0113  0.3426 -0.2379
 4455TIP3    H237561   4.436   1.463  17.753 -0.8952  0.2081 -0.0416
 4456TIP3   OH237562   4.337   2.853  17.941 -0.6489 -0.2055 -0.1804
 4456TIP3    H137563   4.252   2.819  17.968 -0.4148 -0.4478  0.2754
 4456TIP3    H237564   4.326   2.875  17.848 -0.8980 -1.2752 -0.4204
 4457TIP3   OH237565   3.526   7.602  16.910 -0.7395 -0.1915  0.5226
 4457TIP3    H137566   3.547   7.520  16.866  1.3083  0.8824 -0.6647
 4457TIP3    H237567   3.446   7.633  16.868 -1.6788 -1.6637  1.1670
 4458TIP3   OH237568   0.695   1.226  17.974 -0.4318 -0.3601  0.9110
 4458TIP3    H137569   0.643   1.146  17.970  1.7234 -1.8584  0.8316
 4458TIP3    H237570   0.774   1.205  17.924  1.1894  1.0239  2.7436
 4459TIP3   OH237571   1.278  -0.016  17.507 -0.3210 -0.6483  0.0503
 4459TIP3    H137572   1.198   0.022  17.469 -0.9803  0.9642  2.7318
 4459TIP3    H237573   1.349   0.034  17.467 -0.8859  0.0894 -0.0658
 4460TIP3   OH237574   3.920   5.259  18.988 -0.7519 -0.0586 -0.0042
 4460TIP3    H137575   4.000   5.305  19.012 -1.6340  1.2521  0.5431
 4460TIP3    H237576   3.857   5.282  19.056 -1.4603 -1.4882 -0.1250
 4461TIP3   OH237577   7.320   1.974  17.546  1.0825 -0.2113  0.2267
 4461TIP3    H137578   7.241   1.986  17.597  1.2678 -0.3639  0.5531
 4461TIP3    H237579   7.382   2.037  17.581  0.8580  0.4697 -0.5637
 4462TIP3   OH237580   3.953   3.041  17.005  0.1386 -0.0723  0.2719
 4462TIP3    H137581   3.909   3.123  17.026 -1.8689 -1.4234  1.6408
 4462TIP3    H237582   3.925   2.980  17.073  2.2789 -1.6989 -0.1771
 4463TIP3   OH237583   2.302   6.075  17.474 -0.0139 -0.1395 -0.3849
 4463TIP3    H137584   2.252   6.102  17.551  1.3537  0.4315  0.3517
 4463TIP3    H237585   2.239   6.077  17.402 -1.4424 -1.1230  0.7746
 4464TIP3   OH237586   0.472   6.075  18.262 -0.4758 -0.0067 -0.2478
 4464TIP3    H137587   0.465   6.098  18.354  0.9328  1.5155 -0.4951
 4464TIP3    H237588   0.382   6.083  18.229 -1.0347 -0.7476  0.9848
 4465TIP3   OH237589   6.677   6.625  17.310 -0.8799  0.2954  0.2220
 4465TIP3    H137590   6.641   6.580  17.386  0.4374  0.4428  0.9727
 4465TIP3    H237591   6.606   6.627  17.246 -1.3190 -1.8688  0.5767
 4466TIP3   OH237592   3.730   5.366  19.532 -0.4243  0.5723  0.3549
 4466TIP3    H137593   3.800   5.312  19.494  1.0950  0.6004  2.8913
 4466TIP3    H237594   3.654   5.308  19.533  0.1702 -0.2634 -0.3474
 4467TIP3   OH237595   6.480   2.538  19.267 -0.2470  0.3734  0.2965
 4467TIP3    H137596   6.414   2.505  19.328 -0.2239 -0.4788 -0.1194
 4467TIP3    H237597   6.514   2.618  19.308 -2.3115  1.4627  0.0260
 4468TIP3   OH237598   5.884   4.179  17.931  0.0350 -0.4825  0.1444
 4468TIP3    H137599   5.930   4.154  18.011  0.7553 -0.3384 -0.2136
 4468TIP3    H237600   5.858   4.270  17.946 -0.1595 -0.5713  0.3576
 4469TIP3   OH237601   2.230   2.594  18.548  0.0048  0.2760 -0.5621
 4469TIP3    H137602   2.229   2.546  18.465  1.1756 -0.5585 -0.1281
 4469TIP3    H237603   2.138   2.614  18.565 -0.5435 -1.7881 -0.8212
 4470TIP3   OH237604   5.865   0.779  19.075 -0.3216 -1.1361  0.7037
 4470TIP3    H137605   5.790   0.765  19.017  0.3161  0.1966 -0.5276
 4470TIP3    H237606   5.927   0.830  19.022  1.1044 -1.4819  1.9541
 4471TIP3   OH237607   1.999   2.551  17.237 -0.3655  0.1375 -0.0144
 4471TIP3    H137608   1.946   2.547  17.157  1.0366  2.1308 -1.1504
 4471TIP3    H237609   2.084   2.584  17.207  0.1789  1.0160  2.3140
 4472TIP3   OH237610   2.429   5.958  17.880  0.3209  0.6113 -0.1589
 4472TIP3    H137611   2.451   5.934  17.789  0.2289  2.5098 -0.7200
 4472TIP3    H237612   2.363   5.893  17.906  0.9791 -0.4919 -1.1351
 4473TIP3   OH237613   6.639   0.731  18.981 -0.1221  0.0695 -0.1291
 4473TIP3    H137614   6.576   0.713  19.051 -1.1056  0.5639 -0.8559
 4473TIP3    H237615   6.600   0.803  18.932  1.2764  0.7433 -0.3000
 4474TIP3   OH237616   4.530   1.855  17.854 -0.0392 -0.1654 -0.1292
 4474TIP3    H137617   4.498   1.901  17.932  2.2502  0.7363  0.3365
 4474TIP3    H237618   4.467   1.784  17.842 -1.7351  1.0150  1.1765
 4475TIP3   OH237619   5.672   5.542  17.535  0.0067  0.2291 -0.1531
 4475TIP3    H137620   5.687   5.484  17.609 -0.0916 -0.3676 -0.5900
 4475TIP3    H237621   5.718   5.500  17.462 -0.7138  0.2848 -0.6512
 4476TIP3   OH237622   2.848   6.344  18.488  0.3177 -0.3003  0.0987
 4476TIP3    H137623   2.763   6.309  18.514 -0.5766  0.2510 -1.9354
 4476TIP3    H237624   2.888   6.373  18.570 -1.9689  0.5485  0.9884
 4477TIP3   OH237625   6.151   7.071  17.113 -0.3303 -0.4746  0.1024
 4477TIP3    H137626   6.148   7.148  17.170  2.7174 -0.8690  1.0353
 4477TIP3    H237627   6.148   6.997  17.174 -0.7324 -1.0241 -0.5774
 4478TIP3   OH237628   6.753   5.326  19.499  0.3638 -0.0560 -0.2402
 4478TIP3    H137629   6.743   5.361  19.411 -1.9303 -0.3702 -0.1816
 4478TIP3    H237630   6.665   5.333  19.538  0.4864 -2.9917  0.8291
 4479TIP3   OH237631   1.394   4.032  18.950  0.5769 -0.1433  0.2051
 4479TIP3    H137632   1.301   4.010  18.940  1.1499 -2.6237 -0.3402
 4479TIP3    H237633   1.394   4.112  19.003 -1.9244  1.3742 -1.8657
 4480TIP3   OH237634   2.550   0.310  17.773 -0.1134  0.2550 -0.0053
 4480TIP3    H137635   2.561   0.405  17.759 -1.1690  0.1169 -2.2080
 4480TIP3    H237636   2.517   0.303  17.862  1.0428  1.8679  0.6037
 4481TIP3   OH237637   7.207   3.327  17.480  0.9383 -0.1208 -0.0209
 4481TIP3    H137638   7.121   3.299  17.449  1.2433 -0.2505 -0.7819
 4481TIP3    H237639   7.225   3.272  17.556 -0.3196  0.9780  1.1077
 4482TIP3   OH237640   2.162   1.729  18.245  0.0160 -0.2431  0.2515
 4482TIP3    H137641   2.176   1.643  18.284 -0.5193 -0.3190  0.2774
 4482TIP3    H237642   2.128   1.782  18.317 -0.4573 -0.2387  0.0297
 4483TIP3   OH237643   0.268   6.985  18.647 -0.1523 -0.1165 -0.3967
 4483TIP3    H137644   0.208   6.912  18.663 -0.0111  0.0967  1.3089
 4483TIP3    H237645   0.349   6.943  18.615 -1.0157 -0.4294 -2.3350
 4484TIP3   OH237646   0.401   6.642  17.803  0.3079 -0.3187 -0.1116
 4484TIP3    H137647   0.469   6.689  17.852 -0.0824 -0.9826  1.1105
 4484TIP3    H237648   0.330   6.706  17.795 -0.0142 -0.4974  1.0850
 4485TIP3   OH237649   3.746   3.483  18.079  0.3693  0.5667  0.0070
 4485TIP3    H137650   3.733   3.537  18.001 -0.2142  0.4613  0.0292
 4485TIP3    H237651   3.658   3.470  18.115  0.3518 -1.3144 -0.6105
 4486TIP3   OH237652   6.701   7.423  19.193 -0.2002  0.2488  0.4164
 4486TIP3    H137653   6.633   7.361  19.217  0.9996 -1.4120 -0.2563
 4486TIP3    H237654   6.659   7.481  19.129 -0.6322 -1.6752 -1.1501
 4487TIP3   OH237655   5.238   3.346  17.738 -0.8090  0.5268 -0.4199
 4487TIP3    H137656   5.249   3.423  17.682 -1.0124 -0.0902 -1.3207
 4487TIP3    H237657   5.144   3.341  17.753 -0.7039  1.0151  0.4554
 4488TIP3   OH237658   5.423   0.669  18.867 -0.1074 -0.7641  0.2456
 4488TIP3    H137659   5.329   0.685  18.865  0.1252  0.6888 -0.6173
 4488TIP3    H237660   5.440   0.614  18.791 -0.4705 -2.6369  1.4402
 4489TIP3   OH237661   0.874   0.898  17.731 -0.5576  0.2131  0.1921
 4489TIP3    H137662   0.805   0.960  17.752  0.0277 -0.0018  3.0877
 4489TIP3    H237663   0.842   0.852  17.653 -2.1370  2.3441 -0.5161
 4490TIP3   OH237664   6.645   3.812  18.481  0.1926 -0.3640  0.3845
 4490TIP3    H137665   6.554   3.840  18.482 -0.1547 -1.4363  0.0998
 4490TIP3    H237666   6.696   3.893  18.487 -0.7642  0.3904 -1.1718
 4491TIP3   OH237667   4.777   3.854  17.981 -0.2068  0.6885  0.0090
 4491TIP3    H137668   4.754   3.947  17.980  0.7358  0.9286 -1.4187
 4491TIP3    H237669   4.863   3.850  17.941  0.8099 -0.5749  2.1427
 4492TIP3   OH237670   5.451   6.001  19.097  0.0866  0.0568 -0.1154
 4492TIP3    H137671   5.517   6.069  19.090 -0.8814  1.2302  1.4052
 4492TIP3    H237672   5.416   5.992  19.008 -0.1813  2.0043 -0.2394
 4493TIP3   OH237673   6.601   5.516  17.567 -0.0837 -0.1023 -0.2426
 4493TIP3    H137674   6.614   5.422  17.582  2.1173  0.2528  0.2862
 4493TIP3    H237675   6.570   5.521  17.477 -0.8379 -1.3551 -0.0922
 4494TIP3   OH237676   6.656   1.137  17.249 -0.4014  0.2261 -0.2822
 4494TIP3    H137677   6.633   1.214  17.302  0.1717 -0.2992  0.7648
 4494TIP3    H237678   6.640   1.062  17.307  0.9746 -0.3253 -0.5822
 4495TIP3   OH237679   2.654   0.441  18.162  0.0362 -0.3088 -0.4206
 4495TIP3    H137680   2.584   0.435  18.097  1.7459 -0.3877 -2.3792
 4495TIP3    H237681   2.694   0.527  18.148  0.5345 -0.3838  0.4307
 4496TIP3   OH237682   0.987   3.086  17.278  0.2957  0.4341 -0.1531
 4496TIP3    H137683   0.968   3.159  17.220  1.5991 -0.1452 -1.3673
 4496TIP3    H237684   1.011   3.014  17.220 -0.1989 -0.7479  1.0406
 4497TIP3   OH237685   2.118   3.105  16.274  0.4041  0.3980  0.2934
 4497TIP3    H137686   2.045   3.058  16.314  0.9354  0.2900  1.1578
 4497TIP3    H237687   2.177   3.035  16.245  0.0673  0.4769 -0.6254
 4498TIP3   OH237688   1.908   7.625  19.167 -0.4426  0.2046 -0.2023
 4498TIP3    H137689   1.892   7.543  19.213 -0.8248  0.6787  0.5205
 4498TIP3    H237690   1.977   7.669  19.218 -0.2553  0.3496 -0.5723
 4499TIP3   OH237691   6.970   0.295  19.271  0.4332 -0.4022 -0.1161
 4499TIP3    H137692   6.906   0.356  19.307 -0.0139 -1.4221  0.8905
 4499TIP3    H237693   7.054   0.340  19.281  0.3834 -0.7316  2.5838
 4500TIP3   OH237694   6.639   2.262  18.987 -0.0220 -0.1332 -0.1350
 4500TIP3    H137695   6.729   2.240  18.965  0.3647 -0.1750  1.3761
 4500TIP3    H237696   6.604   2.182  19.027 -1.0079 -0.3931 -1.4470
 4501TIP3   OH237697   4.745   5.320  19.167  0.3214  0.3179  0.3401
 4501TIP3    H137698   4.800   5.342  19.092 -0.2803  0.8281  0.0421
 4501TIP3    H237699   4.764   5.389  19.231 -1.2133  1.5151 -0.4127
 4502TIP3   OH237700   6.812   1.071  16.793  0.1565  0.2936  0.0694
 4502TIP3    H137701   6.854   1.054  16.709 -1.4059  0.3402 -0.7582
 4502TIP3    H237702   6.807   1.167  16.798  0.4069  0.2962  0.3095
 4503TIP3   OH237703   6.304   6.278  18.911  0.4538 -0.1438  0.0630
 4503TIP3    H137704   6.211   6.256  18.906  0.5025 -0.1285 -1.5277
 4503TIP3    H237705   6.343   6.232  18.837  1.5500  0.6260  0.1407
 4504TIP3   OH237706   3.297   7.275  18.258  0.1951  0.0283 -0.0095
 4504TIP3    H137707   3.331   7.211  18.196 -0.6854  0.5220 -1.0384
 4504TIP3    H237708   3.324   7.359  18.222 -0.9049  0.3540 -0.1116
 4505TIP3   OH237709   7.313   0.730  16.781  0.6717  0.3531  0.0202
 4505TIP3    H137710   7.329   0.795  16.850  0.8559  1.2502 -0.8492
 4505TIP3    H237711   7.224   0.749  16.750  0.4628 -0.2599  0.2110
 4506TIP3   OH237712   6.240   0.834  18.333 -0.2029  0.6454  0.2521
 4506TIP3    H137713   6.236   0.780  18.253  0.4524  2.1250 -0.8322
 4506TIP3    H237714   6.151   0.829  18.369 -0.2732 -0.7915 -0.0454
 4507TIP3   OH237715   1.532   3.766  18.242 -0.1276 -0.3183  0.1450
 4507TIP3    H137716   1.465   3.782  18.175 -0.2938 -0.9785  0.1519
 4507TIP3    H237717   1.488   3.786  18.325 -0.1446 -0.2143  0.1114
 4508TIP3   OH237718   4.911   5.917  19.496  0.4873 -0.0793  0.4236
 4508TIP3    H137719   4.952   5.976  19.561  0.6882  1.1864 -0.8036
 4508TIP3    H237720   4.979   5.853  19.477  0.0040 -1.2476  2.3534
 4509TIP3   OH237721   6.402   4.106  19.297  0.3510 -0.2585  0.1251
 4509TIP3    H137722   6.399   4.188  19.346  0.9467  0.2752 -0.7097
 4509TIP3    H237723   6.342   4.048  19.344  1.2008  0.1007  1.7141
 4510TIP3   OH237724   5.316   5.194  18.291  0.5807  0.2845 -0.3851
 4510TIP3    H137725   5.322   5.159  18.203 -2.3720  3.4364 -2.0813
 4510TIP3    H237726   5.263   5.130  18.339  2.2554 -1.4732 -0.7622
 4511TIP3   OH237727   6.937   0.786  17.608  0.4942  0.1437  0.5348
 4511TIP3    H137728   6.913   0.793  17.516 -1.7538 -0.8760  0.9563
 4511TIP3    H237729   6.929   0.692  17.628 -1.5640  0.6039  2.2872
 4512TIP3   OH237730   3.340   2.675  19.188 -0.7398  0.0840  0.5703
 4512TIP3    H137731   3.252   2.645  19.167 -0.8600 -0.4156  1.6943
 4512TIP3    H237732   3.372   2.716  19.108 -1.5881 -0.6743 -0.1668
 4513TIP3   OH237733   1.954   2.728  17.838 -0.0927 -0.1832 -0.0332
 4513TIP3    H137734   1.931   2.782  17.762  1.9977 -1.7378 -1.8873
 4513TIP3    H237735   2.017   2.782  17.888  1.5789 -0.6028 -1.5899
 4514TIP3   OH237736   7.503   0.261  18.689 -0.3558 -0.0869  0.2314
 4514TIP3    H137737   7.524   0.264  18.782 -0.7711  0.2822  0.3153
 4514TIP3    H237738   7.486   0.168  18.671 -1.1470 -0.0478  0.7270
 4515TIP3   OH237739   2.446   3.423  16.940  0.0202 -0.2560  0.4067
 4515TIP3    H137740   2.460   3.344  16.887 -2.0989  0.5680 -1.5314
 4515TIP3    H237741   2.412   3.488  16.879 -1.6022  1.0971  2.5857
 4516TIP3   OH237742   0.285   5.056  18.203  0.1604 -0.0104 -0.1578
 4516TIP3    H137743   0.222   5.001  18.250 -1.0039  2.4994  1.4368
 4516TIP3    H237744   0.361   5.060  18.261 -1.1584  2.8372  1.5871
 4517TIP3   OH237745   7.114   6.840  18.378 -0.1301  0.2161  0.0692
 4517TIP3    H137746   7.138   6.791  18.457 -0.6402  0.1338  0.1725
 4517TIP3    H237747   7.188   6.899  18.364 -0.6100  1.1796  1.3761
 4518TIP3   OH237748   6.506   2.643  18.084 -0.0107 -0.5144 -0.0485
 4518TIP3    H137749   6.463   2.583  18.144 -0.2133  0.6452  1.0132
 4518TIP3    H237750   6.436   2.704  18.056  0.4128 -0.1022 -0.2295
 4519TIP3   OH237751   6.703   6.955  17.225 -0.0507  0.2521  0.2091
 4519TIP3    H137752   6.772   6.910  17.176  0.5532 -0.0953  1.3452
 4519TIP3    H237753   6.679   7.030  17.170 -0.3703 -0.8807 -1.2357
 4520TIP3   OH237754   4.898   6.082  18.454  0.3652 -0.2150  0.5028
 4520TIP3    H137755   4.938   6.051  18.372 -0.5775 -2.7256  0.9023
 4520TIP3    H237756   4.824   6.135  18.425 -0.1115 -1.2838 -0.2871
 4521TIP3   OH237757   2.825   6.504  18.234 -0.1980  0.2878 -0.3169
 4521TIP3    H137758   2.819   6.435  18.300 -1.0954 -1.4571 -2.1168
 4521TIP3    H237759   2.861   6.579  18.281  0.1404 -1.1670  1.8964
 4522TIP3   OH237760   7.589   4.352  16.461 -0.2153 -0.8708 -0.1838
 4522TIP3    H137761   7.643   4.302  16.399 -0.6712 -0.6181 -0.8020
 4522TIP3    H237762   7.643   4.360  16.539  0.3443 -1.2729 -0.5213
 4523TIP3   OH237763   1.573   6.491  18.100 -0.0124 -0.2019 -0.1620
 4523TIP3    H137764   1.545   6.399  18.105 -1.1904  0.0742 -1.2006
 4523TIP3    H237765   1.638   6.493  18.030 -0.4351 -0.1412 -0.5541
 4524TIP3   OH237766   5.944   3.217  19.291  0.1571  0.4740  0.6943
 4524TIP3    H137767   5.994   3.135  19.286  1.3901  1.1371  1.5169
 4524TIP3    H237768   5.899   3.223  19.206  2.1913  0.2609 -0.4757
 4525TIP3   OH237769   6.340   1.562  19.355  0.6286 -0.0160 -0.0822
 4525TIP3    H137770   6.408   1.495  19.354  1.5543  0.8657  1.1417
 4525TIP3    H237771   6.297   1.554  19.269  0.2980 -2.5545  0.2339
 4526TIP3   OH237772   0.946   7.588  17.481  0.1815  0.3964 -0.6522
 4526TIP3    H137773   1.007   7.646  17.436  0.8865 -0.1006 -0.3682
 4526TIP3    H237774   0.963   7.501  17.444 -0.7839  0.3394 -1.0016
 4527TIP3   OH237775   6.523   3.677  18.777  0.0320 -0.0884  0.2203
 4527TIP3    H137776   6.593   3.684  18.842 -0.0399 -1.1046  0.4356
 4527TIP3    H237777   6.503   3.767  18.752  2.4090  0.1872 -0.9200
 4528TIP3   OH237778   0.696   7.120  18.352  0.1188 -0.5365  0.3133
 4528TIP3    H137779   0.724   7.145  18.440 -0.8472 -1.6680  0.9819
 4528TIP3    H237780   0.748   7.175  18.293 -1.6885  2.8525  1.6158
 4529TIP3   OH237781   0.244   3.150  17.462  0.2204  0.4440 -0.4807
 4529TIP3    H137782   0.239   3.068  17.510 -1.0073  1.0468  0.4585
 4529TIP3    H237783   0.168   3.150  17.404 -0.1736  1.1896  0.0098
 4530TIP3   OH237784   0.703   4.210  18.337 -0.0393 -0.3870  0.1453
 4530TIP3    H137785   0.610   4.191  18.323 -0.5730  0.9813  1.6251
 4530TIP3    H237786   0.707   4.250  18.424  1.8276  0.4205 -0.2721
 4531TIP3   OH237787   6.595   6.824  19.100 -0.1257 -0.0660 -0.1184
 4531TIP3    H137788   6.680   6.868  19.106 -1.1149  1.9376  0.2290
 4531TIP3    H237789   6.572   6.827  19.007  0.3393 -0.9330 -0.2617
 4532TIP3   OH237790   3.887   1.299  16.833 -0.0165  0.1081 -0.1564
 4532TIP3    H137791   3.956   1.315  16.898  0.3458 -1.0645 -0.2238
 4532TIP3    H237792   3.852   1.386  16.813  0.5729  0.5913  0.8317
 4533TIP3   OH237793   1.001   3.111  18.670  0.1521 -0.1442  0.0077
 4533TIP3    H137794   1.072   3.111  18.735 -1.1361  0.9405  1.5114
 4533TIP3    H237795   0.995   3.020  18.641  0.7219 -0.7166  1.5426
 4534TIP3   OH237796   7.482   3.734  17.925  0.2028  0.1962 -0.1224
 4534TIP3    H137797   7.573   3.759  17.941  1.1046 -2.0190 -1.3414
 4534TIP3    H237798   7.447   3.804  17.870  1.0078  1.2958  0.7100
 4535TIP3   OH237799   6.630   5.623  18.375 -0.5357 -0.1309  0.2267
 4535TIP3    H137800   6.626   5.569  18.453  0.6342 -0.5062  0.0364
 4535TIP3    H237801   6.683   5.699  18.400  0.0863 -0.3912 -0.2725
 4536TIP3   OH237802   5.785   3.331  17.778 -0.5254 -0.0544 -0.4614
 4536TIP3    H137803   5.703   3.374  17.801 -0.1718  0.0260  0.7222
 4536TIP3    H237804   5.838   3.336  17.857  0.0662 -1.3993 -0.7312
 4537TIP3   OH237805   0.405   2.630  19.114  0.1242  0.3948 -0.2169
 4537TIP3    H137806   0.382   2.701  19.174  1.1807 -0.6074  1.4597
 4537TIP3    H237807   0.498   2.615  19.130 -0.0322 -1.2296 -0.6819
 4538TIP3   OH237808   0.732   6.539  17.229 -0.3737  0.0618 -0.3865
 4538TIP3    H137809   0.771   6.611  17.180  1.7464 -1.4726 -1.1037
 4538TIP3    H237810   0.690   6.484  17.163  0.6931 -0.9387 -0.2543
 4539TIP3   OH237811   7.647   3.641  19.494 -0.0757 -0.0118  0.0919
 4539TIP3    H137812   7.705   3.708  19.457  0.7934 -0.4412  0.6593
 4539TIP3    H237813   7.670   3.637  19.586 -0.7679 -0.4512  0.2558
 4540TIP3   OH237814   6.000   1.861  17.902  0.1279 -0.1631 -0.0188
 4540TIP3    H137815   5.984   1.822  17.817 -0.9481  1.0885 -0.4193
 4540TIP3    H237816   6.096   1.871  17.907  0.2641 -1.0514 -0.6841
 4541TIP3   OH237817   3.178   5.312  17.940 -0.3323  0.7957  0.1250
 4541TIP3    H137818   3.129   5.235  17.970 -1.0297  1.2171  0.0924
 4541TIP3    H237819   3.163   5.378  18.008  0.7538  0.7259  0.4552
 4542TIP3   OH237820   7.362   7.081  18.043 -0.4363 -0.4218  0.3254
 4542TIP3    H137821   7.323   7.167  18.023 -2.0127 -0.8475  1.3361
 4542TIP3    H237822   7.383   7.044  17.958 -4.3282 -1.0207 -0.5929
 4543TIP3   OH237823   2.563   1.668  19.025  0.7353  0.2635 -0.3305
 4543TIP3    H137824   2.555   1.613  19.103  0.4225  0.0034 -0.5413
 4543TIP3    H237825   2.499   1.632  18.964  1.5197 -0.0359 -1.0008
 4544TIP3   OH237826   1.442   5.457  17.574 -0.0726  0.2590 -0.5672
 4544TIP3    H137827   1.470   5.369  17.598 -0.0856  0.6188  0.8632
 4544TIP3    H237828   1.438   5.456  17.479  0.4749 -1.1180 -0.5979
 4545TIP3   OH237829   2.498   5.273  17.770  0.5717  0.5103 -0.7018
 4545TIP3    H137830   2.494   5.184  17.804 -0.8553  1.0521  0.6615
 4545TIP3    H237831   2.558   5.268  17.696  0.2121 -1.6537 -0.8968
 4546TIP3   OH237832   0.688   7.513  19.362 -0.4006 -0.2826  0.0332
 4546TIP3    H137833   0.698   7.576  19.433 -0.3642 -1.8971  1.5426
 4546TIP3    H237834   0.625   7.553  19.302  1.9620  2.5246 -0.7532
 4547TIP3   OH237835   7.107   5.242  18.922 -0.0338 -0.0832 -0.9103
 4547TIP3    H137836   7.172   5.174  18.936  0.9579  0.6434 -1.8025
 4547TIP3    H237837   7.156   5.313  18.881 -0.2784  2.4435  2.6452
 4548TIP3   OH237838   3.775   5.890  17.707 -0.0005  0.5013  0.4026
 4548TIP3    H137839   3.768   5.868  17.614 -1.1447  2.5825 -0.0528
 4548TIP3    H237840   3.726   5.820  17.751  0.8750 -0.7284 -0.4748
 4549TIP3   OH237841   1.447   5.371  17.314  0.0058  0.5412  0.1155
 4549TIP3    H137842   1.397   5.342  17.237 -0.8873 -0.1956  0.9509
 4549TIP3    H237843   1.531   5.400  17.278  0.0826 -0.9557 -1.0246
 4550TIP3   OH237844   6.521   1.242  16.642  0.1690 -0.2005 -0.2817
 4550TIP3    H137845   6.461   1.317  16.638  0.4097  0.0370  0.3411
 4550TIP3    H237846   6.593   1.265  16.584  1.2002  0.9451  1.3404
 4551TIP3   OH237847   0.284   5.360  18.222 -0.3778 -0.0990  0.4720
 4551TIP3    H137848   0.236   5.440  18.202  0.3112  0.4775  1.0910
 4551TIP3    H237849   0.221   5.290  18.203 -1.3379  0.6244  0.8846
 4552TIP3   OH237850   4.900   5.344  18.944 -0.5318 -0.1087 -0.4027
 4552TIP3    H137851   4.909   5.294  18.863  1.1347 -0.6361  0.0703
 4552TIP3    H237852   4.952   5.423  18.929 -0.8292  0.1444 -0.1111
 4553TIP3   OH237853   5.381   6.489  16.397  0.4557 -0.0292 -0.2422
 4553TIP3    H137854   5.374   6.476  16.492 -0.0801  1.2574 -0.0893
 4553TIP3    H237855   5.341   6.574  16.382 -0.8892 -0.9068 -1.8412
 4554TIP3   OH237856   2.324   3.787  17.411 -0.2554  0.3533 -0.2129
 4554TIP3    H137857   2.339   3.692  17.402  0.7061  0.0580  3.1499
 4554TIP3    H237858   2.349   3.806  17.502 -0.6035  3.8325 -0.7431
 4555TIP3   OH237859   5.908   7.051  18.261  0.1759 -0.4860 -0.1692
 4555TIP3    H137860   5.884   6.959  18.248 -0.6280 -0.0789 -1.8306
 4555TIP3    H237861   5.835   7.089  18.309 -0.5483 -0.2491 -1.4050
 4556TIP3   OH237862   0.085   6.795  18.651 -0.6604  0.0552 -0.1555
 4556TIP3    H137863   0.076   6.782  18.556  0.3835 -0.8112 -0.1597
 4556TIP3    H237864  -0.001   6.825  18.679 -1.6761 -1.7980 -1.0639
 4557TIP3   OH237865   6.484   1.841  17.483  0.0966 -0.1818 -0.1961
 4557TIP3    H137866   6.444   1.894  17.552  0.5404  0.2870 -0.2845
 4557TIP3    H237867   6.563   1.890  17.459 -0.5126  0.1254 -1.6611
 4558TIP3   OH237868   5.354   1.109  19.401  0.0904 -0.3359  0.1737
 4558TIP3    H137869   5.347   1.204  19.403 -1.1996 -0.4178  1.4185
 4558TIP3    H237870   5.265   1.079  19.381  0.5097 -1.2768 -0.3281
 4559TIP3   OH237871   3.149   4.644  18.564  0.0933 -1.1669  0.3687
 4559TIP3    H137872   3.171   4.652  18.471  1.5863  1.2981  0.8484
 4559TIP3    H237873   3.060   4.677  18.571  0.1539 -0.8932 -0.1216
 4560TIP3   OH237874   2.332   6.104  18.938  0.5339 -0.3782 -0.2784
 4560TIP3    H137875   2.404   6.143  18.889  0.6505 -2.2147 -1.6707
 4560TIP3    H237876   2.253   6.137  18.895  0.5686  0.1998  0.0917
 4561TIP3   OH237877   0.565   2.218  18.280  0.6518 -0.9098 -0.0261
 4561TIP3    H137878   0.474   2.207  18.309 -0.5459  0.4614 -2.8909
 4561TIP3    H237879   0.579   2.147  18.218  0.4666  0.5418 -1.8024
 4562TIP3   OH237880   6.339   1.653  19.614 -0.4107 -0.0236 -0.6973
 4562TIP3    H137881   6.433   1.664  19.628  0.0849 -1.3673 -2.5874
 4562TIP3    H237882   6.332   1.617  19.526 -2.7114  0.0185 -0.5835
 4563TIP3   OH237883   3.361   6.591  17.667  0.2565 -0.2979 -0.1478
 4563TIP3    H137884   3.346   6.518  17.726  2.8774  0.5693  1.7721
 4563TIP3    H237885   3.418   6.556  17.599 -0.4362 -0.5826 -0.5958
 4564TIP3   OH237886   6.732   7.547  17.445  0.5527 -0.0241 -0.0049
 4564TIP3    H137887   6.718   7.471  17.390  3.4054 -0.0713 -0.8300
 4564TIP3    H237888   6.713   7.622  17.389  0.8609 -0.1122 -0.2302
 4565TIP3   OH237889   2.696   2.449  16.728 -0.6387  0.3503  0.9884
 4565TIP3    H137890   2.709   2.372  16.673  0.8364  0.9670  0.4318
 4565TIP3    H237891   2.638   2.506  16.677 -1.5858 -0.2952  1.3242
 4566TIP3   OH237892   3.061   0.792  16.802  0.2506 -0.2031  0.4464
 4566TIP3    H137893   3.131   0.855  16.787 -0.7781  0.8315 -0.1137
 4566TIP3    H237894   3.088   0.714  16.754  1.8401 -0.4445  1.6564
 4567TIP3   OH237895   0.283   4.604  18.576 -0.3812 -0.5745 -0.4123
 4567TIP3    H137896   0.372   4.586  18.545  0.0469 -0.8494  0.9049
 4567TIP3    H237897   0.243   4.518  18.587 -0.6471 -0.4669 -0.5126
 4568TIP3   OH237898   6.884   7.295  19.348 -0.3399  0.2519  0.1897
 4568TIP3    H137899   6.827   7.349  19.294 -0.3036 -0.5217 -0.6455
 4568TIP3    H237900   6.963   7.347  19.359 -1.4359  1.6731  1.9996
 4569TIP3   OH237901   2.648   6.183  18.510 -0.1868  0.4083 -0.0263
 4569TIP3    H137902   2.588   6.220  18.575  0.1049 -0.3046  0.6702
 4569TIP3    H237903   2.615   6.214  18.426 -0.1988  1.9047  0.4926
 4570TIP3   OH237904   6.449   2.507  17.838  0.5687 -0.0314 -0.5801
 4570TIP3    H137905   6.371   2.452  17.840  0.9788 -0.6469 -0.9480
 4570TIP3    H237906   6.436   2.571  17.907  0.3681 -0.9961  0.2947
 4571TIP3   OH237907   5.440   2.477  18.385 -0.9463  0.0739  0.3663
 4571TIP3    H137908   5.448   2.525  18.467  0.0054  1.2921 -0.3974
 4571TIP3    H237909   5.488   2.531  18.321  0.0963 -1.8445 -0.5648
 4572TIP3   OH237910   6.439   1.990  16.175  0.3679  0.5319 -0.2913
 4572TIP3    H137911   6.441   1.894  16.176 -0.1833  0.5188  0.1220
 4572TIP3    H237912   6.526   2.015  16.146  0.6698 -0.0917  0.0457
 4573TIP3   OH237913   2.979   1.738  18.766  0.3334  0.0859  0.2982
 4573TIP3    H137914   3.005   1.812  18.820 -0.1601  0.6182 -0.1780
 4573TIP3    H237915   2.888   1.721  18.790  0.4086 -0.2978  0.3250
 4574TIP3   OH237916   5.296   0.219  17.174  0.4445  0.2061  0.3127
 4574TIP3    H137917   5.236   0.209  17.100 -0.8016 -0.6723  1.3740
 4574TIP3    H237918   5.283   0.139  17.225 -0.1477  1.5723  2.4381
 4575TIP3   OH237919   6.045   1.435  18.190 -0.1065  0.1575 -0.1931
 4575TIP3    H137920   6.035   1.399  18.102  3.7802 -1.5840 -0.1296
 4575TIP3    H237921   6.084   1.521  18.176  3.1411 -1.1963 -0.3345
 4576TIP3   OH237922   2.387   0.321  18.003 -0.0261  0.2381 -0.6546
 4576TIP3    H137923   2.386   0.254  18.071 -0.0296 -1.0524 -1.8837
 4576TIP3    H237924   2.370   0.403  18.050 -1.8453 -0.8169  0.6609
 4577TIP3   OH237925   4.391   5.596  18.353 -0.0663 -0.3307  0.5171
 4577TIP3    H137926   4.382   5.505  18.325 -1.7494 -0.2554  0.6846
 4577TIP3    H237927   4.370   5.595  18.446  1.9337 -0.0468  1.0101
 4578TIP3   OH237928   4.610   5.176  18.678  0.7232  0.4872 -0.4735
 4578TIP3    H137929   4.602   5.257  18.728 -0.0603  0.1558 -0.0634
 4578TIP3    H237930   4.639   5.111  18.742  1.0915  0.3787 -0.7471
 4579TIP3   OH237931   7.238   7.259  19.461 -0.4324  0.5434 -0.1735
 4579TIP3    H137932   7.205   7.200  19.394 -0.4456  2.3096 -1.8218
 4579TIP3    H237933   7.197   7.343  19.441 -0.8737  1.0276  2.4397
 4580TIP3   OH237934   0.968   2.810  18.622  0.1363  0.2533  0.1846
 4580TIP3    H137935   0.891   2.842  18.574 -0.4314  1.0211  1.5526
 4580TIP3    H237936   0.986   2.724  18.584 -1.9821 -0.3651  0.4740
 4581TIP3   OH237937   0.313   3.758  16.438 -0.3423  0.5510 -0.6110
 4581TIP3    H137938   0.231   3.716  16.411  0.9775 -3.4519  0.9510
 4581TIP3    H237939   0.293   3.795  16.524 -0.6502  0.0815 -0.4753
 4582TIP3   OH237940   5.275   0.787  17.242 -0.7430  0.1691 -0.4340
 4582TIP3    H137941   5.360   0.745  17.230 -1.1390 -1.2559  1.3696
 4582TIP3    H237942   5.277   0.862  17.182  1.3877 -0.3769 -1.1350
 4583TIP3   OH237943   4.337   5.009  17.610 -0.3677 -0.0729 -0.1075
 4583TIP3    H137944   4.308   4.957  17.535  0.1700  1.1690 -1.2335
 4583TIP3    H237945   4.317   4.956  17.686 -0.6907 -1.5015 -1.1520
 4584TIP3   OH237946   2.532   0.906  18.503  0.1086 -0.1914  0.4170
 4584TIP3    H137947   2.508   0.950  18.422 -1.6706 -1.2917  0.2954
 4584TIP3    H237948   2.525   0.973  18.570  0.8212  0.5334 -0.2110
 4585TIP3   OH237949   2.716   4.015  17.002 -0.7662 -0.3388  0.1176
 4585TIP3    H137950   2.660   3.985  17.074 -0.4762 -1.0172  0.0724
 4585TIP3    H237951   2.777   4.076  17.043 -1.3017  0.1301  0.2343
 4586TIP3   OH237952   6.386   3.026  16.747 -0.1177  0.0929 -0.8294
 4586TIP3    H137953   6.408   3.108  16.703  1.2537 -0.2239 -0.7708
 4586TIP3    H237954   6.418   2.957  16.687  1.3448 -0.3498  0.3884
 4587TIP3   OH237955   4.847   2.831  17.911  0.1137  0.3500  0.5326
 4587TIP3    H137956   4.792   2.789  17.977  0.3781 -0.2146  0.3955
 4587TIP3    H237957   4.936   2.812  17.939  0.2899  2.1508  1.3500
 4588TIP3   OH237958   1.329   4.561  18.222 -0.4482  0.4219 -0.3276
 4588TIP3    H137959   1.376   4.531  18.300 -0.7486 -0.7665 -0.5890
 4588TIP3    H237960   1.256   4.613  18.256 -0.0390  0.7010  0.1446
 4589TIP3   OH237961   5.864   6.100  18.544  0.2030  0.2361 -0.1842
 4589TIP3    H137962   5.817   6.049  18.609  0.2405  0.1225 -0.2440
 4589TIP3    H237963   5.904   6.035  18.486  0.6350  0.3230  0.0104
 4590TIP3   OH237964   2.033   5.799  17.565 -0.6375  0.1793  0.4350
 4590TIP3    H137965   1.993   5.870  17.515 -1.9610 -1.3087 -0.7020
 4590TIP3    H237966   2.078   5.745  17.500 -0.1264 -0.3561  1.2077
 4591TIP3   OH237967   6.765   2.155  19.483  0.0471  0.2904 -0.4429
 4591TIP3    H137968   6.733   2.067  19.502  1.2005  0.0746  0.5739
 4591TIP3    H237969   6.687   2.210  19.491 -0.3532 -0.3990  0.6900
 4592TIP3   OH237970   3.747   6.142  16.605  0.4949 -0.0376  0.7572
 4592TIP3    H137971   3.799   6.167  16.681  1.3164  1.1234 -0.1541
 4592TIP3    H237972   3.742   6.222  16.551 -0.0352 -0.8350 -0.4267
 4593TIP3   OH237973   7.535   2.890  17.095  0.4118  0.3181 -0.2468
 4593TIP3    H137974   7.551   2.796  17.082  0.0745 -0.0186  1.5765
 4593TIP3    H237975   7.467   2.912  17.031 -0.5965 -1.0427  0.3064
 4594TIP3   OH237976   3.452   5.263  17.908  0.1171  0.0274  0.1683
 4594TIP3    H137977   3.469   5.175  17.877 -0.4204 -0.1104  0.2578
 4594TIP3    H237978   3.357   5.266  17.923 -0.1210  1.1059 -1.3390
 4595TIP3   OH237979   2.069   5.997  18.086 -0.8136 -0.0914  0.2647
 4595TIP3    H137980   2.147   6.049  18.106 -0.4278 -0.1174 -1.0448
 4595TIP3    H237981   2.015   6.002  18.165 -0.3256  1.4537  0.5289
 4596TIP3   OH237982   6.025   7.275  17.277 -0.4102 -0.5045 -0.0190
 4596TIP3    H137983   5.962   7.252  17.346  0.0322 -2.5014 -0.2023
 4596TIP3    H237984   6.076   7.346  17.315 -0.3909 -1.3360  1.6261
 4597TIP3   OH237985   5.274   1.487  18.079  0.0155 -0.2544  0.2584
 4597TIP3    H137986   5.273   1.574  18.120 -2.3367  0.4891 -1.1774
 4597TIP3    H237987   5.308   1.502  17.991  0.1059 -0.8815  0.1820
 4598TIP3   OH237988   3.499   1.569  19.176  0.1313 -0.3887 -0.6800
 4598TIP3    H137989   3.555   1.549  19.251 -0.7320  0.0381  0.0980
 4598TIP3    H237990   3.536   1.650  19.141  0.0062 -0.1016 -0.1636
 4599TIP3   OH237991   5.393   5.982  18.835 -0.0951 -0.7688  0.1370
 4599TIP3    H137992   5.426   5.961  18.748 -0.0032 -2.0539  0.4605
 4599TIP3    H237993   5.302   5.951  18.833  0.2475 -1.8638  0.8508
 4600TIP3   OH237994   3.658   2.060  19.022 -0.1605 -0.1443  0.5087
 4600TIP3    H137995   3.618   2.063  19.109 -0.6085 -2.1566  0.4109
 4600TIP3    H237996   3.592   2.098  18.964 -0.3694  0.0593  0.8776
 4601TIP3   OH237997   7.627   1.114  19.045  0.2412 -0.0265  0.6217
 4601TIP3    H137998   7.550   1.122  18.988  0.1149 -2.4705  0.3351
 4601TIP3    H237999   7.701   1.113  18.985  0.1703 -1.6803  0.5152
 4602TIP3   OH238000   6.491   3.963  17.613 -0.1654 -0.6810  0.2886
 4602TIP3    H138001   6.458   3.874  17.601  1.0305 -1.0002 -0.8256
 4602TIP3    H238002   6.434   4.018  17.560  1.1844 -1.2648 -1.8587
 4603TIP3   OH238003   6.495   3.135  18.963  0.5619 -0.2914  1.0402
 4603TIP3    H138004   6.549   3.059  18.942 -0.3975 -0.5469 -0.6175
 4603TIP3    H238005   6.461   3.165  18.879 -0.5909  0.8352  1.8740
 4604TIP3   OH238006   3.918   5.231  19.401  0.5866 -0.1930  0.3191
 4604TIP3    H138007   3.870   5.248  19.320  0.1445 -0.9276  0.4242
 4604TIP3    H238008   3.995   5.183  19.374  0.5153 -0.3074  0.3215
 4605TIP3   OH238009   7.437   6.659  18.314 -0.2714 -0.2806 -0.1009
 4605TIP3    H138010   7.402   6.689  18.230  2.3292  0.4642 -1.0049
 4605TIP3    H238011   7.411   6.567  18.319 -3.6050  0.5246  0.0910
 4606TIP3   OH238012   4.461   1.731  18.696  0.0931 -0.5574 -1.0853
 4606TIP3    H138013   4.425   1.780  18.771  1.4271  0.6071 -1.1521
 4606TIP3    H238014   4.482   1.645  18.732 -0.2310 -0.3459 -0.3628
 4607TIP3   OH238015   4.941   5.615  19.060 -0.0874  0.7445 -0.1390
 4607TIP3    H138016   4.943   5.699  19.014 -3.3176 -0.1997 -2.2960
 4607TIP3    H238017   4.871   5.624  19.124 -0.1278 -0.1458 -0.0455
 4608TIP3   OH238018   7.270   0.856  19.476 -0.4307 -0.3242 -0.7748
 4608TIP3    H138019   7.286   0.897  19.390  0.2096 -0.3005 -0.6489
 4608TIP3    H238020   7.196   0.797  19.461 -0.8461  0.2777 -1.1509
 4609TIP3   OH238021   4.423   3.647  17.419 -0.1269 -0.3964 -0.4153
 4609TIP3    H138022   4.497   3.704  17.401 -1.1495  0.6672 -1.5083
 4609TIP3    H238023   4.454   3.559  17.399  0.7199  0.0837 -1.3092
 4610TIP3   OH238024   7.436   6.074  16.768 -0.3483  0.0873  0.1841
 4610TIP3    H138025   7.512   6.022  16.794 -1.2590 -1.3983  0.0312
 4610TIP3    H238026   7.392   6.020  16.702 -0.5282  1.7575 -1.1315
 4611TIP3   OH238027   1.840   4.373  17.838  0.2331 -0.0781  0.4263
 4611TIP3    H138028   1.826   4.437  17.908  0.3942  0.2597  0.1549
 4611TIP3    H238029   1.886   4.301  17.880 -1.0016 -0.5533  1.0031
 4612TIP3   OH238030   3.945   1.133  18.120  0.4604  0.0527 -0.2009
 4612TIP3    H138031   4.029   1.166  18.153  0.2569 -0.6237  1.0797
 4612TIP3    H238032   3.920   1.065  18.183 -1.2492  0.5161 -0.3396
 4613TIP3   OH238033   6.733   2.598  17.904 -0.4324 -0.2719  0.0795
 4613TIP3    H138034   6.665   2.595  17.971 -0.0041 -1.4966  0.4937
 4613TIP3    H238035   6.800   2.656  17.939 -0.2861 -0.7755  0.6385
 4614TIP3   OH238036   1.674   2.508  16.811 -0.1443 -0.1704  0.6607
 4614TIP3    H138037   1.606   2.574  16.826  1.7447  1.4558  2.9758
 4614TIP3    H238038   1.629   2.424  16.821 -2.6450  0.6414 -2.3567
 4615TIP3   OH238039   6.154   6.780  16.528  0.3462 -0.6204 -0.5022
 4615TIP3    H138040   6.230   6.723  16.527  0.3144 -1.0102  3.4090
 4615TIP3    H238041   6.116   6.768  16.615 -2.8630  1.3131 -1.4455
 4616TIP3   OH238042   0.200   2.007  18.950 -0.2108 -0.4740  0.3509
 4616TIP3    H138043   0.287   1.967  18.954 -1.0234 -3.0298 -3.1205
 4616TIP3    H238044   0.154   1.971  19.026  0.7170 -1.8983  0.2818
 4617TIP3   OH238045   6.464   5.235  18.218  0.0017 -0.7465  0.1350
 4617TIP3    H138046   6.443   5.315  18.170  0.2423 -1.8636 -1.9696
 4617TIP3    H238047   6.540   5.257  18.271 -1.1673  0.9522  1.1715
 4618TIP3   OH238048   0.805   2.150  18.008 -0.2812  0.0353 -0.3091
 4618TIP3    H138049   0.860   2.076  18.033 -1.4652 -0.4165  1.0794
 4618TIP3    H238050   0.858   2.227  18.028 -0.0439 -0.3950  0.7543
 4619TIP3   OH238051   1.662   1.192  18.174  0.2301  0.0251  0.4560
 4619TIP3    H138052   1.598   1.216  18.107 -0.3599  0.0718  1.0279
 4619TIP3    H238053   1.736   1.157  18.125 -0.5135 -0.6751 -0.1932
 4620TIP3   OH238054   2.089   3.466  19.460  0.2127 -0.0866  0.1687
 4620TIP3    H138055   2.024   3.530  19.490  0.6976  0.8589 -0.7130
 4620TIP3    H238056   2.169   3.518  19.448  1.3153 -1.3153  1.7428
 4621TIP3   OH238057   1.742   3.825  18.062 -0.1816  0.1562  0.3426
 4621TIP3    H138058   1.824   3.852  18.102  0.0257  0.0253  0.0189
 4621TIP3    H238059   1.676   3.840  18.129  0.0406  0.6905  0.4488
 4622TIP3   OH238060   7.433   0.665  18.735  0.1581 -0.0923  0.4813
 4622TIP3    H138061   7.525   0.646  18.755  0.6685  1.3400 -0.3870
 4622TIP3    H238062   7.433   0.756  18.707 -1.3717 -0.4131 -0.6494
 4623TIP3   OH238063   5.285   4.816  19.664 -0.3671 -0.2545  0.4658
 4623TIP3    H138064   5.250   4.903  19.684 -0.9593 -0.3109 -0.2842
 4623TIP3    H238065   5.349   4.799  19.733 -0.1604  0.8273  0.5537
 4624TIP3   OH238066   3.260   1.519  19.277 -0.0756 -0.1493  0.3472
 4624TIP3    H138067   3.268   1.425  19.295  1.5955  0.1262  1.1972
 4624TIP3    H238068   3.341   1.542  19.232  0.7105  1.3368  2.3712
 4625TIP3   OH238069   5.370   4.211  19.659 -0.1852  0.1248  0.4203
 4625TIP3    H138070   5.429   4.136  19.663 -0.9329 -0.4265  2.1956
 4625TIP3    H238071   5.369   4.236  19.567  2.6152  0.0154  0.2760
 4626TIP3   OH238072   5.849   0.841  18.239 -0.4279  0.2124  0.3661
 4626TIP3    H138073   5.823   0.929  18.212 -0.2430 -0.3712 -1.9876
 4626TIP3    H238074   5.776   0.785  18.212  0.2403 -0.5620  0.0933
 4627TIP3   OH238075   2.457   0.578  17.721 -0.4481 -0.3600 -0.2903
 4627TIP3    H138076   2.386   0.605  17.662 -0.0947  0.3612 -0.4070
 4627TIP3    H238077   2.466   0.651  17.782 -0.6880 -1.0267  0.5497
 4628TIP3   OH238078   1.280   4.905  18.439 -0.5212 -0.1415 -0.2055
 4628TIP3    H138079   1.243   4.974  18.494 -0.0948  0.3557 -0.5261
 4628TIP3    H238080   1.372   4.900  18.466 -0.9191 -1.8117  1.0480
 4629TIP3   OH238081   5.797   7.132  17.412 -0.0794 -0.5664 -0.4992
 4629TIP3    H138082   5.768   7.203  17.470  0.8340  0.9826 -1.8425
 4629TIP3    H238083   5.725   7.119  17.351  0.3077  0.2633 -1.1557
 4630TIP3   OH238084   4.743   3.632  18.289  0.2496  0.4081 -0.2289
 4630TIP3    H138085   4.812   3.616  18.225  1.1995  0.1676  0.8170
 4630TIP3    H238086   4.788   3.629  18.374 -1.0559  0.1855  0.4864
 4631TIP3   OH238087   1.492   7.540  17.145  0.5397  0.2964 -0.2568
 4631TIP3    H138088   1.566   7.488  17.115  1.1484  1.5420 -0.9928
 4631TIP3    H238089   1.516   7.565  17.235  1.0884  0.8184 -0.5423
 4632TIP3   OH238090   3.058   0.510  19.344  0.5316  0.4882  0.1250
 4632TIP3    H138091   3.117   0.442  19.311  1.3118  0.0816  2.2201
 4632TIP3    H238092   3.116   0.578  19.378 -0.2398  1.3094 -0.1675
 4633TIP3   OH238093   2.843   4.079  17.498 -0.4596  1.3900 -0.2080
 4633TIP3    H138094   2.894   4.104  17.421 -0.1058  0.2237 -0.3793
 4633TIP3    H238095   2.752   4.095  17.473 -0.3318  1.2517 -0.7788
 4634TIP3   OH238096   7.157   1.234  17.937 -0.0381  0.2764 -0.8044
 4634TIP3    H138097   7.192   1.323  17.927  2.2403 -0.3951  0.4933
 4634TIP3    H238098   7.165   1.196  17.849  0.3522  0.8971 -1.0451
 4635TIP3   OH238099   2.397   4.537  17.066  0.9637 -0.3480  0.0166
 4635TIP3    H138100   2.385   4.446  17.041 -1.3124  0.0814 -0.6524
 4635TIP3    H238101   2.489   4.543  17.092  1.2834 -2.6978 -0.3948
 4636TIP3   OH238102   2.452   3.604  18.435  0.3357  0.4965  0.6810
 4636TIP3    H138103   2.515   3.544  18.475  0.2605 -1.4838 -1.9085
 4636TIP3    H238104   2.497   3.638  18.358 -0.8060  1.1951  0.2963
 4637TIP3   OH238105   0.910   0.688  19.158  0.2823  0.2568  0.1651
 4637TIP3    H138106   0.985   0.630  19.148  0.1056 -0.1119  0.9107
 4637TIP3    H238107   0.907   0.738  19.076 -0.5248 -1.8795 -1.1961
 4638TIP3   OH238108   5.647   6.401  17.943 -0.0706 -0.0476 -0.2286
 4638TIP3    H138109   5.643   6.449  17.861 -0.1892 -0.7681 -0.6598
 4638TIP3    H238110   5.555   6.379  17.962 -0.3312  2.0345  1.2946
 4639TIP3   OH238111   2.331   7.016  18.411  0.2902  0.1402  0.2959
 4639TIP3    H138112   2.403   6.959  18.438 -0.1851 -0.7606 -0.2873
 4639TIP3    H238113   2.369   7.073  18.344 -0.0248 -1.8655 -1.7252
 4640TIP3   OH238114   3.103   3.430  17.802 -0.3367 -0.5628  0.1150
 4640TIP3    H138115   3.103   3.350  17.855 -0.6912 -0.2603  0.5806
 4640TIP3    H238116   3.184   3.475  17.826  1.9722 -2.5945 -3.0009
 4641TIP3   OH238117   7.696   3.140  18.726  0.0122 -0.1891  0.1731
 4641TIP3    H138118   7.748   3.109  18.800  1.4275  0.7936 -0.3523
 4641TIP3    H238119   7.753   3.204  18.682 -2.1849  2.1110  0.4025
 4642TIP3   OH238120   1.828   5.220  18.056 -0.3885 -0.2260  0.5366
 4642TIP3    H138121   1.744   5.255  18.088 -0.9380  0.0190 -1.0455
 4642TIP3    H238122   1.893   5.283  18.087 -1.0012  0.5184  0.3694
 4643TIP3   OH238123   2.733   3.079  18.051  0.1717  0.3602  0.3344
 4643TIP3    H138124   2.752   3.121  17.967 -0.3488 -0.5078 -0.2288
 4643TIP3    H238125   2.766   3.141  18.117  1.7752  0.4671 -0.5229
 4644TIP3   OH238126   5.691   1.212  17.949  0.6634 -0.5519  0.1207
 4644TIP3    H138127   5.710   1.167  18.031 -1.2173  0.5320  1.2316
 4644TIP3    H238128   5.776   1.240  17.917  1.7045 -3.2253  0.3090
 4645TIP3   OH238129   2.697   1.434  18.901 -0.8672  0.6297  0.8100
 4645TIP3    H138130   2.728   1.521  18.927 -1.0797  1.7602 -2.2735
 4645TIP3    H238131   2.603   1.437  18.915 -0.8538  0.8654  0.8665
 4646TIP3   OH238132   5.536   4.255  18.033 -0.3982 -0.1875  0.1107
 4646TIP3    H138133   5.579   4.185  18.083 -0.7443  0.1413  0.8944
 4646TIP3    H238134   5.443   4.241  18.047 -0.4682  0.5383  0.4389
 4647TIP3   OH238135   6.337   5.830  18.150  0.6467 -0.5137 -0.1882
 4647TIP3    H138136   6.258   5.884  18.150  0.2555 -1.0719 -0.5224
 4647TIP3    H238137   6.315   5.756  18.093  2.0005  0.1863 -1.6795
 4648TIP3   OH238138   1.987   1.049  16.519  0.0337 -0.2440 -0.4660
 4648TIP3    H138139   1.941   1.072  16.438 -1.7033 -2.0059 -0.0440
 4648TIP3    H238140   1.980   0.954  16.524  1.5648 -0.3113  0.9448
 4649TIP3   OH238141   3.356   2.510  18.057 -0.3532  0.5654 -0.2019
 4649TIP3    H138142   3.361   2.486  18.150 -0.4978  0.9070 -0.1048
 4649TIP3    H238143   3.338   2.427  18.012  1.8707  0.0048 -0.1559
 4650TIP3   OH238144   6.174   6.094  18.109  0.5131 -0.2074 -0.6662
 4650TIP3    H138145   6.114   6.168  18.100  3.6577  2.8803  1.0319
 4650TIP3    H238146   6.195   6.069  18.019 -1.3271  0.3316 -1.2874
 4651TIP3   OH238147   2.608   5.623  17.974 -0.0422  0.3906  0.3706
 4651TIP3    H138148   2.648   5.684  17.913 -1.1369 -1.0015 -1.8549
 4651TIP3    H238149   2.682   5.575  18.012  0.6071 -1.1061 -2.5278
 4652TIP3   OH238150   2.921   7.369  18.489  0.1866  0.1284 -0.2670
 4652TIP3    H138151   2.857   7.368  18.417 -0.6883 -2.1668  0.4620
 4652TIP3    H238152   2.868   7.385  18.567  0.9248  1.0104  0.0684
 4653TIP3   OH238153   3.014   3.841  19.368  0.5239 -0.0459  0.3081
 4653TIP3    H138154   2.943   3.905  19.371 -0.1816 -0.6101 -1.8708
 4653TIP3    H238155   2.969   3.756  19.377  0.3005 -0.6419 -3.9873
 4654TIP3   OH238156   0.049   1.976  19.220 -0.2375  0.1073  0.2608
 4654TIP3    H138157   0.043   1.882  19.201  1.9099  0.1282 -0.7234
 4654TIP3    H238158  -0.038   1.999  19.254 -0.9645 -2.1150  0.0381
 4655TIP3   OH238159   6.035   1.632  19.496  0.0212 -0.3447  0.1439
 4655TIP3    H138160   6.098   1.657  19.563  0.9088 -1.0497 -0.4129
 4655TIP3    H238161   6.088   1.605  19.421 -0.8602 -3.0717  0.3974
 4656TIP3   OH238162   5.357   6.250  17.955 -0.1345 -0.4318  0.2173
 4656TIP3    H138163   5.333   6.245  18.048  2.5508  0.1018  1.0236
 4656TIP3    H238164   5.307   6.324  17.921  0.8341  1.1296  1.9739
 4657TIP3   OH238165   6.467   2.095  17.230 -0.4147  0.3279  0.3205
 4657TIP3    H138166   6.415   2.035  17.177  1.4874 -0.9037 -0.2661
 4657TIP3    H238167   6.558   2.076  17.206  0.4125  1.3104  2.4023
 4658TIP3   OH238168   5.087   6.539  16.952  0.2243  0.0565  0.2120
 4658TIP3    H138169   5.013   6.522  16.894  1.1852  0.3420 -1.1523
 4658TIP3    H238170   5.057   6.512  17.039 -1.3382 -0.1630 -0.3731
 4659TIP3   OH238171   2.457   2.963  19.193  0.3384 -0.0805  0.0954
 4659TIP3    H138172   2.506   2.930  19.268 -0.4467 -2.1926 -0.2528
 4659TIP3    H238173   2.457   2.890  19.131 -1.3852  0.6415 -0.8129
 4660TIP3   OH238174   1.832   1.699  16.666 -0.2995 -0.2358 -0.5361
 4660TIP3    H138175   1.797   1.678  16.580  0.2377 -1.1574 -0.5416
 4660TIP3    H238176   1.771   1.659  16.727 -1.1573  1.1521 -0.4464
 4661TIP3   OH238177   7.171   5.791  18.398  0.0538 -0.3839 -0.6323
 4661TIP3    H138178   7.239   5.779  18.464 -0.2170  0.4661 -0.1777
 4661TIP3    H238179   7.217   5.785  18.314  0.7943  0.6655 -0.3261
 4662TIP3   OH238180   2.237   7.332  19.026 -0.2201  0.7059  0.3010
 4662TIP3    H138181   2.290   7.407  19.000  0.3536  0.6081  1.1249
 4662TIP3    H238182   2.168   7.326  18.960  0.0530  1.6185 -0.0769
 4663TIP3   OH238183   3.113   5.798  16.635  0.2737 -0.7141  0.0568
 4663TIP3    H138184   3.139   5.888  16.656 -1.3429 -0.0645 -0.5422
 4663TIP3    H238185   3.195   5.753  16.615  0.8921  1.4970 -2.9582
 4664TIP3   OH238186   3.887   5.208  17.450 -0.0910 -0.0110  0.0249
 4664TIP3    H138187   3.866   5.280  17.510  0.7685  0.5159 -0.2923
 4664TIP3    H238188   3.970   5.174  17.482 -0.3612 -0.6880  0.0057
 4665TIP3   OH238189   2.644   2.188  16.341  0.2212  0.1413 -0.4305
 4665TIP3    H138190   2.598   2.271  16.330  0.0732  0.0285 -0.6801
 4665TIP3    H238191   2.728   2.201  16.297  0.1442  0.1168 -0.5879
 4666TIP3   OH238192   5.059   4.453  18.944 -0.3401  0.1165 -0.4838
 4666TIP3    H138193   4.965   4.474  18.949 -0.0498  1.3603  0.1009
 4666TIP3    H238194   5.094   4.513  18.879  0.1050 -0.1486 -0.4924
 4667TIP3   OH238195   1.004   2.345  18.116  0.1581  0.1435  0.0812
 4667TIP3    H138196   0.999   2.436  18.085 -0.2724  0.2402  0.4196
 4667TIP3    H238197   1.074   2.306  18.064 -0.3605  0.3763 -0.8249
 4668TIP3   OH238198   0.150   2.259  18.690  0.5410 -0.1004  0.6676
 4668TIP3    H138199   0.204   2.228  18.618  1.2222 -1.6200  1.7810
 4668TIP3    H238200   0.090   2.187  18.708 -0.3381  0.6767  0.9504
 4669TIP3   OH238201   5.628   0.150  18.479 -0.1479 -0.3521  0.1637
 4669TIP3    H138202   5.723   0.141  18.474 -0.2115 -0.6266 -0.6967
 4669TIP3    H238203   5.612   0.244  18.475 -0.0123 -0.3556 -2.4747
 4670TIP3   OH238204   2.605   0.634  18.690 -0.1803  0.0181  0.4670
 4670TIP3    H138205   2.539   0.699  18.711  0.9414  1.4133 -0.1462
 4670TIP3    H238206   2.597   0.620  18.596  0.0032 -0.2542  0.4898
 4671TIP3   OH238207   0.316   1.183  17.981 -0.2167  0.0361 -0.3277
 4671TIP3    H138208   0.271   1.126  17.919 -1.3358  0.0050  0.4695
 4671TIP3    H238209   0.329   1.127  18.058 -0.5227  0.5888  0.1296
 4672TIP3   OH238210   4.175   3.826  18.777  0.1300 -0.5699 -0.6728
 4672TIP3    H138211   4.141   3.812  18.865 -1.8058  2.9169 -0.6871
 4672TIP3    H238212   4.121   3.769  18.721 -0.2348 -1.0217  0.1266
 4673TIP3   OH238213   1.065   7.718  17.770 -0.1499  0.5606  0.2463
 4673TIP3    H138214   1.038   7.628  17.791 -0.2546  0.3602 -0.7191
 4673TIP3    H238215   1.159   7.712  17.755  0.2542  1.0249  2.3195
 4674TIP3   OH238216   3.840   2.605  17.266  0.2467 -1.0310  0.0822
 4674TIP3    H138217   3.891   2.598  17.347  0.6405  0.7307  0.0173
 4674TIP3    H238218   3.845   2.517  17.227 -0.4957 -2.1223  2.2511
 4675TIP3   OH238219   4.118   0.946  19.314  0.4313 -0.7353 -0.1236
 4675TIP3    H138220   4.140   1.038  19.328  0.2869 -0.7633  0.2939
 4675TIP3    H238221   4.030   0.948  19.275 -0.1366 -0.7374  1.1091
 4676TIP3   OH238222   4.624   6.420  18.583  0.4363 -0.4734 -0.0705
 4676TIP3    H138223   4.529   6.434  18.584  0.4477 -0.4011 -0.0286
 4676TIP3    H238224   4.662   6.506  18.600  0.5426 -0.1540 -1.6794
 4677TIP3   OH238225   1.814   6.503  17.598  0.2695 -0.4732  0.4344
 4677TIP3    H138226   1.856   6.588  17.594  0.6272 -0.6873 -0.5991
 4677TIP3    H238227   1.884   6.440  17.582 -0.6712 -0.7665 -3.2898
 4678TIP3   OH238228   1.721   5.249  18.840  0.0681  0.5899  0.3952
 4678TIP3    H138229   1.736   5.255  18.745 -2.2809  0.2584 -0.0578
 4678TIP3    H238230   1.761   5.328  18.875 -1.0428  1.9282 -1.1908
 4679TIP3   OH238231   3.729   2.592  18.271  0.1583  0.5989 -0.4352
 4679TIP3    H138232   3.704   2.607  18.362 -0.6895  1.4905 -0.7988
 4679TIP3    H238233   3.825   2.595  18.271  0.3679 -2.3081  0.9006
 4680TIP3   OH238234   3.494   3.964  17.293  0.5071  0.2724 -0.0802
 4680TIP3    H138235   3.514   3.998  17.206  0.9665 -0.0035 -0.0859
 4680TIP3    H238236   3.467   4.041  17.343  0.6345  0.4980 -0.3540
 4681TIP3   OH238237   6.351   4.838  19.335  0.5143  0.0351 -0.3597
 4681TIP3    H138238   6.256   4.842  19.335  0.4883  0.2075  1.2347
 4681TIP3    H238239   6.378   4.893  19.262 -0.5949  0.9949 -0.0714
 4682TIP3   OH238240   2.177   5.251  16.747  0.1077 -0.0009 -0.1075
 4682TIP3    H138241   2.178   5.158  16.724  0.7508 -1.1640  3.8430
 4682TIP3    H238242   2.109   5.259  16.814  0.4663  2.2725  0.0679
 4683TIP3   OH238243   1.349   6.166  18.596 -0.1121  0.2773 -0.9146
 4683TIP3    H138244   1.298   6.146  18.674 -0.3503 -0.7577 -1.3302
 4683TIP3    H238245   1.401   6.243  18.621  0.6730 -0.7050  0.6560
 4684TIP3   OH238246   0.273   7.024  19.189 -0.4489  0.0337 -0.0128
 4684TIP3    H138247   0.224   7.103  19.165 -0.1467 -0.1672 -1.3711
 4684TIP3    H238248   0.271   6.970  19.111  1.8469 -0.0231 -0.1066
 4685TIP3   OH238249   2.663   7.122  19.521  0.0850 -0.3596  0.1155
 4685TIP3    H138250   2.721   7.197  19.535 -0.0976 -0.2515  0.3109
 4685TIP3    H238251   2.716   7.045  19.539  0.1259 -0.2563  0.4288
 4686TIP3   OH238252   4.087   2.491  18.059 -0.3367  0.0063 -0.1692
 4686TIP3    H138253   4.075   2.444  18.141  0.3611  1.1631  0.6278
 4686TIP3    H238254   4.140   2.567  18.082  2.1560 -0.9965 -2.1589
 4687TIP3   OH238255   6.650   1.041  17.622  0.3818  0.1153 -0.6993
 4687TIP3    H138256   6.658   0.955  17.663 -2.2811  0.3852  0.5889
 4687TIP3    H238257   6.632   1.022  17.530  1.1142 -0.6700 -0.6867
 4688TIP3   OH238258   3.740   3.715  17.926 -0.1467  0.0439  0.2205
 4688TIP3    H138259   3.720   3.714  17.833 -1.2238 -1.5558  0.4385
 4688TIP3    H238260   3.816   3.774  17.933 -0.9594  1.3786 -1.4392
 4689TIP3   OH238261   6.400   5.274  17.896  0.2363  0.3155  0.0514
 4689TIP3    H138262   6.386   5.215  17.822 -1.8334  1.1144 -0.2594
 4689TIP3    H238263   6.489   5.254  17.926  0.2394 -1.7066 -1.1186
 4690TIP3   OH238264   1.168   3.982  17.925 -0.3065  0.1503  0.0022
 4690TIP3    H138265   1.093   3.922  17.918 -1.6123  1.7192 -0.1176
 4690TIP3    H238266   1.196   3.975  18.017 -1.6104  0.6644  0.4627
 4691TIP3   OH238267   7.170   2.716  16.802 -0.1146 -0.2537 -0.2254
 4691TIP3    H138268   7.105   2.699  16.733 -0.4512 -0.5384  0.1566
 4691TIP3    H238269   7.228   2.640  16.798 -0.6930 -0.7333  0.4367
 4692TIP3   OH238270   0.387   2.608  16.690 -0.4228  0.0109 -0.6814
 4692TIP3    H138271   0.328   2.619  16.616  0.0060  1.8961 -0.8049
 4692TIP3    H238272   0.423   2.696  16.705  0.8009 -0.6743  0.6680
 4693TIP3   OH238273   6.185   3.366  18.168 -0.3231  0.0600 -0.6628
 4693TIP3    H138274   6.219   3.371  18.257 -0.7144 -1.3737 -0.4097
 4693TIP3    H238275   6.098   3.405  18.174  0.7391  2.7933 -1.1038
 4694TIP3   OH238276   7.437   4.005  17.813  0.5624 -0.0588  0.2959
 4694TIP3    H138277   7.342   4.002  17.819  0.6662 -1.2957  4.1229
 4694TIP3    H238278   7.462   4.088  17.854  1.1193 -0.7141  1.3480
 4695TIP3   OH238279   2.895   7.313  19.579 -0.5382 -0.0104  0.5798
 4695TIP3    H138280   2.986   7.285  19.580 -1.1258 -2.1616 -0.8740
 4695TIP3    H238281   2.899   7.406  19.553  1.2396  0.0815  1.0710
 4696TIP3   OH238282   1.126   5.505  18.695  0.3468 -0.4474 -0.4009
 4696TIP3    H138283   1.129   5.580  18.755  0.1901  1.3736 -2.5621
 4696TIP3    H238284   1.038   5.508  18.657 -0.3178 -2.8407  0.6941
 4697TIP3   OH238285   2.156   7.605  17.669 -0.0109  0.4287 -0.6163
 4697TIP3    H138286   2.166   7.686  17.619  1.9821 -0.2314 -1.4058
 4697TIP3    H238287   2.134   7.539  17.604 -0.1148  0.0536 -0.2087
 4698TIP3   OH238288   3.576   3.115  18.005 -0.1704  0.2284 -0.1245
 4698TIP3    H138289   3.630   3.058  17.951  2.2162  3.9704 -2.1308
 4698TIP3    H238290   3.487   3.100  17.972  0.6131 -0.9333 -1.9046
 4699TIP3   OH238291   3.061   0.635  17.848 -0.4746  0.4685  0.1530
 4699TIP3    H138292   3.008   0.677  17.781  0.9412  1.1434 -0.5723
 4699TIP3    H238293   3.041   0.683  17.929 -2.2885 -0.4371  0.3021
 4700TIP3   OH238294   5.107   3.282  18.703 -0.0454  0.0263 -0.1726
 4700TIP3    H138295   5.050   3.312  18.774  1.4474  1.3580  0.5481
 4700TIP3    H238296   5.191   3.325  18.721  0.6178 -0.2788 -2.2896
 4701TIP3   OH238297   4.715   2.087  19.613 -0.1500 -0.6948  0.0617
 4701TIP3    H138298   4.724   2.127  19.527  1.5900 -0.4991  0.2997
 4701TIP3    H238299   4.747   2.153  19.674  1.8114 -1.9993  0.5425
 4702TIP3   OH238300   4.915   2.642  19.678 -0.0032  0.5727  0.2282
 4702TIP3    H138301   4.900   2.679  19.591  2.2462 -1.5784 -1.2121
 4702TIP3    H238302   4.998   2.682  19.706  0.2521 -0.1712  0.5422
 4703TIP3   OH238303   1.518   2.048  19.393  0.5757 -0.1970  0.6319
 4703TIP3    H138304   1.512   2.029  19.299 -2.6503  1.3272  0.4113
 4703TIP3    H238305   1.518   2.143  19.398  0.2737 -0.2583  2.1969
 4704TIP3   OH238306   3.330   5.682  17.253  0.3195 -0.2759  0.0495
 4704TIP3    H138307   3.379   5.669  17.172  1.6040  2.6803  0.2284
 4704TIP3    H238308   3.361   5.612  17.311  2.0593 -0.3321 -0.8697
 4705TIP3   OH238309   4.702   2.789  18.177 -0.1464  0.4235 -0.1184
 4705TIP3    H138310   4.659   2.874  18.185  0.1210  0.7886 -2.0581
 4705TIP3    H238311   4.637   2.734  18.134  0.7498  0.5721 -1.7386
 4706TIP3   OH238312   6.216   1.681  18.198  0.0563  0.4245  0.1854
 4706TIP3    H138313   6.299   1.647  18.232  0.7606  0.9796 -0.9250
 4706TIP3    H238314   6.241   1.734  18.123 -1.3193  0.6045 -0.1662
 4707TIP3   OH238315   1.053   0.332  18.919 -0.4280 -0.6977  0.1183
 4707TIP3    H138316   0.976   0.373  18.881 -0.1859  1.2597  1.6272
 4707TIP3    H238317   1.127   0.384  18.888  0.3165 -2.3227 -1.0063
 4708TIP3   OH238318   0.233   3.603  18.441 -0.5048  0.2675 -0.0519
 4708TIP3    H138319   0.208   3.529  18.495  0.9140 -0.1087  0.1200
 4708TIP3    H238320   0.297   3.651  18.494 -0.2571  0.7507 -0.7720
 4709TIP3   OH238321   7.184   1.922  18.366 -0.1053  0.2593 -0.3047
 4709TIP3    H138322   7.178   1.949  18.457  0.0037 -0.1044 -0.1879
 4709TIP3    H238323   7.139   1.838  18.363  0.6798 -0.1613 -0.4030
 4710TIP3   OH238324   1.217   2.012  19.348 -0.3467  0.1515 -0.3419
 4710TIP3    H138325   1.138   2.065  19.361 -0.4361  0.0937 -0.6372
 4710TIP3    H238326   1.235   1.975  19.434 -1.1884 -0.5792 -0.4554
 4711TIP3   OH238327   2.112   7.313  18.591 -1.0406 -0.2454 -0.0401
 4711TIP3    H138328   2.136   7.330  18.499 -0.9256  1.9689  0.3414
 4711TIP3    H238329   2.018   7.330  18.595 -1.1185 -0.7077  0.2007
 4712TIP3   OH238330   6.052   7.435  19.264  0.2389 -0.0840 -0.2134
 4712TIP3    H138331   6.147   7.428  19.270  0.3591  0.2071 -1.4314
 4712TIP3    H238332   6.034   7.529  19.271 -0.2838 -0.3179  3.3054
 4713TIP3   OH238333   2.021   7.173  19.441  0.2649  0.2561 -0.3125
 4713TIP3    H138334   2.025   7.257  19.486 -2.4035  0.5921 -0.5125
 4713TIP3    H238335   2.087   7.179  19.371  1.3069  1.4762  0.7375
 4714TIP3   OH238336   6.523   0.962  18.870 -0.1380 -1.1146  0.0821
 4714TIP3    H138337   6.559   1.045  18.839  0.5107 -1.8200 -1.1116
 4714TIP3    H238338   6.433   0.961  18.837 -0.7239 -0.1645  1.5317
 4715TIP3   OH238339   6.228   3.936  19.440  0.0097 -0.4403  0.2801
 4715TIP3    H138340   6.195   3.929  19.530  0.1140  0.0562  0.3593
 4715TIP3    H238341   6.156   3.904  19.386 -0.0200 -0.8290  0.5466
 4716TIP3   OH238342   5.924   4.450  17.995  0.2397  0.2950  0.1952
 4716TIP3    H138343   5.843   4.485  18.032  1.5868  2.5870  1.1721
 4716TIP3    H238344   5.937   4.497  17.913  1.3824  1.2050  0.8592
 4717TIP3   OH238345   2.119   1.587  17.805  0.5751  0.0969 -0.6026
 4717TIP3    H138346   2.112   1.674  17.844  1.8231  0.7134 -1.6934
 4717TIP3    H238347   2.044   1.581  17.746 -1.7178 -1.0943  2.1966
 4718TIP3   OH238348   0.072   4.492  19.167 -0.1047  0.7037 -0.1816
 4718TIP3    H138349   0.043   4.445  19.089 -0.8099  1.1179 -0.1731
 4718TIP3    H238350   0.167   4.475  19.171 -0.1428  0.2899 -0.8524
 4719TIP3   OH238351   5.793   5.948  18.076 -0.0793  0.0343 -0.0683
 4719TIP3    H138352   5.793   5.999  17.995 -1.2090 -0.1399 -0.2047
 4719TIP3    H238353   5.805   5.858  18.048 -2.1601 -0.2450 -0.2547
 4720TIP3   OH238354   1.661   5.849  19.180 -0.2872  0.0953  0.4145
 4720TIP3    H138355   1.616   5.902  19.247 -0.5109  0.7988 -0.2799
 4720TIP3    H238356   1.718   5.791  19.230  0.0366  1.0628  1.1990
 4721TIP3   OH238357   1.920   0.393  18.452  0.0701 -0.2964 -0.0505
 4721TIP3    H138358   1.883   0.476  18.483 -0.8671 -0.8014  0.1828
 4721TIP3    H238359   1.845   0.342  18.423  0.4452 -1.7880  1.5098
 4722TIP3   OH238360   4.254   7.135  18.383 -0.1023  0.4623  0.0513
 4722TIP3    H138361   4.333   7.180  18.353 -0.7454  2.5013  1.2027
 4722TIP3    H238362   4.191   7.148  18.312  0.2966 -0.3831 -0.4726
 4723TIP3   OH238363   0.041   5.327  19.085  0.1591 -0.1813 -0.4761
 4723TIP3    H138364  -0.041   5.281  19.105  0.0258  0.8116  1.5013
 4723TIP3    H238365   0.063   5.299  18.996 -1.9275 -1.0583 -0.7799
 4724TIP3   OH238366   7.065   0.764  18.598  0.0987 -0.6993  0.0800
 4724TIP3    H138367   6.992   0.723  18.645  0.2363 -0.4808  0.4868
 4724TIP3    H238368   7.087   0.701  18.529 -1.5834 -0.0268 -1.1327
 4725TIP3   OH238369   1.721   1.279  19.036  0.0754  0.1494 -0.5326
 4725TIP3    H138370   1.786   1.211  19.055  0.5644  1.1899  1.9569
 4725TIP3    H238371   1.654   1.267  19.104 -0.5229  1.2752 -0.9009
 4726TIP3   OH238372   4.434   3.780  18.385 -0.4724 -0.4129  0.2829
 4726TIP3    H138373   4.431   3.824  18.469 -0.4491  1.3295 -0.5746
 4726TIP3    H238374   4.524   3.789  18.356 -0.7530  0.1313 -0.4704
 4727TIP3   OH238375   0.145   3.823  19.425  0.0973  0.1821  0.5976
 4727TIP3    H138376   0.158   3.819  19.330  0.9327  0.4380  0.6934
 4727TIP3    H238377   0.096   3.904  19.438 -1.0228 -0.4224  0.2916
 4728TIP3   OH238378   0.593   3.750  17.852 -0.3159  0.2073  0.4172
 4728TIP3    H138379   0.571   3.659  17.831 -0.0403 -0.6703  3.3957
 4728TIP3    H238380   0.619   3.788  17.769 -3.1549 -1.5948 -1.4920
 4729TIP3   OH238381   5.091   5.328  19.581 -0.3140  0.4677 -0.4569
 4729TIP3    H138382   5.046   5.406  19.613 -1.4292 -0.0825 -0.6487
 4729TIP3    H238383   5.171   5.324  19.634 -1.2268  0.6061  0.9882
 4730TIP3   OH238384   3.380   5.520  17.832  0.2178 -0.0003 -0.3962
 4730TIP3    H138385   3.402   5.432  17.862  1.3184 -0.3893 -2.2107
 4730TIP3    H238386   3.311   5.549  17.892 -0.3886 -2.1897  0.0531
 4731TIP3   OH238387   0.641   7.021  18.102  0.0564 -1.1459 -0.1765
 4731TIP3    H138388   0.684   7.050  18.182 -0.4403  1.2691 -0.6992
 4731TIP3    H238389   0.684   7.070  18.032 -3.1794  1.1714 -0.7487
 4732TIP3   OH238390   1.905   0.694  16.821 -0.2647  0.2193  0.2344
 4732TIP3    H138391   2.001   0.685  16.824 -0.3208 -0.7837 -0.7050
 4732TIP3    H238392   1.883   0.683  16.729 -1.3244  0.2180  0.4810
 4733TIP3   OH238393   5.236   6.011  17.868  0.1587  0.2310  0.1847
 4733TIP3    H138394   5.262   6.091  17.914 -0.4870  0.8581 -0.5067
 4733TIP3    H238395   5.241   5.942  17.935  1.8098  0.6359  0.5089
 4734TIP3   OH238396   3.037   7.170  18.362 -0.0838 -0.2330 -0.1959
 4734TIP3    H138397   3.128   7.196  18.369 -0.3708  0.8925 -0.4365
 4734TIP3    H238398   2.989   7.238  18.410 -0.8174 -0.6868 -0.2678
 4735TIP3   OH238399   0.146   2.599  19.004  0.6779 -0.0142  0.2037
 4735TIP3    H138400   0.103   2.667  19.055  0.8252 -0.0954  0.4369
 4735TIP3    H238401   0.238   2.606  19.028  0.8334  0.3185 -0.4714
 4736TIP3   OH238402   0.799   2.289  18.631 -0.2427  0.2511  0.0668
 4736TIP3    H138403   0.820   2.260  18.543  0.6874 -1.9623  0.9414
 4736TIP3    H238404   0.725   2.349  18.620 -0.3643 -0.2400 -2.1594
 4737TIP3   OH238405   1.155   1.664  17.317 -0.3828 -0.0698  0.3869
 4737TIP3    H138406   1.117   1.664  17.229 -0.6462  1.7074  0.4708
 4737TIP3    H238407   1.240   1.621  17.306 -0.4782 -0.0126 -0.6934
 4738TIP3   OH238408   3.888   3.286  19.297 -0.3694  0.0941  0.0688
 4738TIP3    H138409   3.834   3.211  19.322  1.0903  0.1798  4.4466
 4738TIP3    H238410   3.965   3.247  19.256 -0.3793 -0.7127  0.7794
 4739TIP3   OH238411   3.920   3.296  18.520  0.2820 -0.3271 -1.0788
 4739TIP3    H138412   3.856   3.344  18.466 -0.2114  0.1544 -0.0821
 4739TIP3    H238413   3.914   3.336  18.606  0.4699 -1.6311 -0.4343
 4740TIP3   OH238414   5.792  -0.037  16.968 -0.2766  0.2007  0.6055
 4740TIP3    H138415   5.814  -0.064  16.879  0.1587 -0.9840  1.0534
 4740TIP3    H238416   5.711  -0.085  16.989  0.4875 -0.7807  1.4001
 4741TIP3   OH238417   2.947   0.612  18.587  0.4858  0.0899  0.0538
 4741TIP3    H138418   2.949   0.607  18.492 -0.4894 -0.9925  0.0693
 4741TIP3    H238419   2.866   0.568  18.612  0.1689  1.3069  1.3397
 4742TIP3   OH238420   1.251   0.279  17.222  0.1991  0.1102  0.0131
 4742TIP3    H138421   1.212   0.335  17.155 -1.1339 -0.3996  0.3390
 4742TIP3    H238422   1.179   0.225  17.254  1.3697 -1.6553 -0.1443
 4743TIP3   OH238423   0.783   2.258  17.185  0.3980  0.2464 -0.3119
 4743TIP3    H138424   0.863   2.250  17.134 -0.1472 -1.2166 -0.9735
 4743TIP3    H238425   0.715   2.279  17.121 -0.0737 -0.3844 -0.0333
 4744TIP3   OH238426   6.656   7.107  18.632  0.0329  0.0927 -0.4158
 4744TIP3    H138427   6.705   7.185  18.606  0.2310  0.7361  1.6875
 4744TIP3    H238428   6.566   7.125  18.605  0.0348  1.1644  0.2321
 4745TIP3   OH238429   5.833   1.733  18.917  0.4431  0.0247 -0.0013
 4745TIP3    H138430   5.925   1.713  18.898  0.5669  0.5891 -0.0232
 4745TIP3    H238431   5.832   1.827  18.935  0.0174 -0.1513  0.9535
 4746TIP3   OH238432   2.147   2.993  18.974  0.3977 -0.3575 -0.9445
 4746TIP3    H138433   2.148   2.898  18.988  1.1025 -0.4927 -1.8138
 4746TIP3    H238434   2.190   3.005  18.890  0.1417  0.7289 -0.9336
 4747TIP3   OH238435   4.344   0.212  17.920  0.2410  0.3679  0.2250
 4747TIP3    H138436   4.278   0.220  17.989 -0.0212  1.4513 -0.1462
 4747TIP3    H238437   4.313   0.267  17.849 -0.2903 -1.9297 -1.4461
 4748TIP3   OH238438   3.128   1.971  18.077 -0.3556 -0.4946  0.4895
 4748TIP3    H138439   3.052   1.920  18.052 -0.1453  0.0732 -1.5023
 4748TIP3    H238440   3.171   1.920  18.146 -1.2597 -1.9630 -0.0039
 4749TIP3   OH238441   4.161   3.134  17.762 -0.4341  0.1607  0.3009
 4749TIP3    H138442   4.074   3.095  17.761 -0.5113  0.2404  1.8290
 4749TIP3    H238443   4.171   3.168  17.850  0.4623  1.7593 -0.3848
 4750TIP3   OH238444   6.844   6.407  18.166 -0.3406  0.2388  0.2746
 4750TIP3    H138445   6.863   6.442  18.079 -0.9726  0.7706  0.3432
 4750TIP3    H238446   6.930   6.385  18.202 -0.0674  0.0972 -0.4470
 4751TIP3   OH238447   5.060   2.842  17.308 -0.2206 -0.1525 -0.0107
 4751TIP3    H138448   5.152   2.829  17.285 -0.1180 -0.5919  0.6294
 4751TIP3    H238449   5.014   2.771  17.264 -0.6546  1.6055 -2.6229
 4752TIP3   OH238450   1.209   4.303  17.801 -0.0061 -0.3697 -0.3627
 4752TIP3    H138451   1.196   4.388  17.759  2.0093  1.3758  2.1676
 4752TIP3    H238452   1.187   4.239  17.734 -0.9590  2.1231 -2.6283
 4753TIP3   OH238453   5.769   3.244  18.885 -0.0807 -0.7810 -0.0699
 4753TIP3    H138454   5.836   3.182  18.856 -0.4296 -1.1963 -0.0008
 4753TIP3    H238455   5.689   3.192  18.890 -0.2294 -0.4966  0.6961
 4754TIP3   OH238456   0.022   1.755  18.549  0.2557 -0.1553 -0.1203
 4754TIP3    H138457  -0.045   1.795  18.494  1.7024  1.9707 -0.4950
 4754TIP3    H238458   0.061   1.686  18.495 -1.1942 -1.0283 -0.0980
 4755TIP3   OH238459   0.382   5.453  18.989 -0.2903  0.0506  0.1212
 4755TIP3    H138460   0.405   5.536  19.030  3.1776  0.1254 -1.6053
 4755TIP3    H238461   0.349   5.399  19.060 -0.1731  2.0500  1.7839
 4756TIP3   OH238462   2.841   0.905  17.189 -0.1967  0.2485  0.0729
 4756TIP3    H138463   2.907   0.930  17.124 -0.1763  3.2025  1.0469
 4756TIP3    H238464   2.760   0.893  17.138  0.1619  0.9444 -0.6863
 4757TIP3   OH238465   5.076   4.640  18.734  0.0728 -0.1439 -0.8815
 4757TIP3    H138466   5.006   4.595  18.687 -1.0136  1.3549 -0.7834
 4757TIP3    H238467   5.077   4.728  18.697  1.1692  0.1870 -0.1128
 4758TIP3   OH238468   0.041   5.121  19.898  0.1491  0.2369  0.0500
 4758TIP3    H138469   0.035   5.040  19.948 -0.6425  1.4969  2.1214
 4758TIP3    H238470   0.134   5.129  19.876  0.4778 -0.5067  1.0939
 4759TIP3   OH238471   2.927   4.515  17.747 -0.1568  0.5713  0.3666
 4759TIP3    H138472   2.912   4.501  17.653 -0.1528  1.2738  0.2590
 4759TIP3    H238473   2.908   4.430  17.787  0.3786  0.1198 -0.3287
 4760TIP3   OH238474   6.890   7.336  17.832 -0.3472 -0.5625  0.0199
 4760TIP3    H138475   6.970   7.285  17.847  0.3719  0.2369 -0.9631
 4760TIP3    H238476   6.916   7.403  17.770 -1.3796  0.7723  0.9803
 4761TIP3   OH238477   4.604   7.218  19.046 -0.1083  0.2457  0.1675
 4761TIP3    H138478   4.679   7.273  19.072 -0.0343  0.7362 -0.9935
 4761TIP3    H238479   4.619   7.135  19.090  0.8279  0.5235  0.4082
 4762TIP3   OH238480   3.090   3.763  17.127 -0.4005  0.2822 -0.8641
 4762TIP3    H138481   3.012   3.758  17.071  0.8401 -2.0131 -2.5828
 4762TIP3    H238482   3.098   3.675  17.164  0.5692  0.9052  0.4823
 4763TIP3   OH238483   0.559   4.014  16.755 -0.1818 -0.1549 -0.1618
 4763TIP3    H138484   0.497   3.964  16.808 -0.0866  0.6119  0.6859
 4763TIP3    H238485   0.559   3.969  16.670 -2.8393  0.5652 -0.6314
 4764TIP3   OH238486   6.673   1.237  19.105 -0.1707  0.4110 -0.1073
 4764TIP3    H138487   6.628   1.153  19.114  0.1851  0.3233  0.9623
 4764TIP3    H238488   6.766   1.214  19.107  0.0205  0.4853 -3.2064
 4765TIP3   OH238489   4.080   3.666  17.839  0.5919 -0.3793 -0.1678
 4765TIP3    H138490   4.063   3.637  17.749 -0.2182 -1.1709  0.2186
 4765TIP3    H238491   4.047   3.756  17.842 -0.9610 -0.9161 -0.2260
 4766TIP3   OH238492   5.451   1.900  18.456  0.6069 -1.0182  0.2504
 4766TIP3    H138493   5.488   1.885  18.543  2.3997  1.3035 -0.0008
 4766TIP3    H238494   5.392   1.974  18.467 -0.1339 -1.5064 -0.3167
 4767TIP3   OH238495   2.225   4.336  17.021  0.1262 -0.3187  0.3384
 4767TIP3    H138496   2.162   4.406  17.039  1.4739  1.3896 -1.2201
 4767TIP3    H238497   2.184   4.284  16.953 -0.0532  0.1435  0.0923
 4768TIP3   OH238498   0.461   4.859  17.908 -0.0906  0.1198  0.6552
 4768TIP3    H138499   0.516   4.867  17.986  1.0589 -2.1704  0.1582
 4768TIP3    H238500   0.510   4.905  17.839  0.3459 -0.3955  0.6178
 4769TIP3   OH238501   0.785   2.883  17.750 -0.1522  0.2248  0.1212
 4769TIP3    H138502   0.787   2.809  17.810 -2.6292 -0.3202 -0.3738
 4769TIP3    H238503   0.791   2.844  17.663  0.3761  0.7668 -0.0938
 4770TIP3   OH238504   5.995   5.373  18.346  0.0180  0.7571 -0.2547
 4770TIP3    H138505   5.960   5.305  18.404  0.3867 -0.0329 -0.9323
 4770TIP3    H238506   6.090   5.365  18.354  0.0631  1.2608 -0.2711
 4771TIP3   OH238507   4.077   7.394  18.793 -0.1960  0.5052 -0.2660
 4771TIP3    H138508   4.132   7.468  18.819  0.2645 -0.8882  3.3330
 4771TIP3    H238509   4.137   7.333  18.750 -0.0587  1.1422 -0.9959
 4772TIP3   OH238510   4.804   7.403  17.391 -0.4052 -0.1729 -0.1766
 4772TIP3    H138511   4.875   7.372  17.447 -0.5705 -3.0279 -1.3943
 4772TIP3    H238512   4.798   7.338  17.321 -1.7211  2.0359 -2.2629
 4773TIP3   OH238513   6.610   2.734  17.336  0.0736  0.4803 -0.0990
 4773TIP3    H138514   6.625   2.796  17.265 -0.7550 -0.0178 -0.7262
 4773TIP3    H238515   6.631   2.648  17.298 -0.5434  0.1918  0.1821
 4774TIP3   OH238516   2.995   1.348  18.495  0.3983  1.2508 -0.0734
 4774TIP3    H138517   2.968   1.435  18.525 -1.0264  0.0426  2.5350
 4774TIP3    H238518   3.079   1.333  18.538  0.6262  1.3128 -0.4943
 4775TIP3   OH238519   5.345   0.442  17.049 -0.7346  0.0629 -0.0977
 4775TIP3    H138520   5.437   0.463  17.067 -1.6467  1.8469  3.4775
 4775TIP3    H238521   5.329   0.361  17.097 -1.2980  0.4387  0.3650
 4776TIP3   OH238522   4.345   2.449  18.996 -0.2592  0.6194 -0.0286
 4776TIP3    H138523   4.430   2.414  19.023 -0.8207  0.6400  1.9251
 4776TIP3    H238524   4.367   2.526  18.944  0.9221 -0.0796 -0.6134
 4777TIP3   OH238525   3.254   2.184  17.152 -0.2042 -0.2372  0.0739
 4777TIP3    H138526   3.329   2.177  17.093 -0.0736  3.6508 -0.5106
 4777TIP3    H238527   3.205   2.260  17.121 -4.3447 -2.3533  0.6413
 4778TIP3   OH238528   6.656   3.459  19.246  0.2491  0.3004  0.2200
 4778TIP3    H138529   6.733   3.513  19.231  1.3516 -1.5189 -1.2002
 4778TIP3    H238530   6.689   3.369  19.243 -1.4816 -0.5072  2.5224
 4779TIP3   OH238531   3.639   4.370  17.106 -0.2469  0.1443  0.4595
 4779TIP3    H138532   3.728   4.343  17.084 -1.0328  0.1780 -3.5879
 4779TIP3    H238533   3.602   4.294  17.151  1.2907 -0.5209  0.6693
 4780TIP3   OH238534   2.867   7.041  17.839  0.8790  0.5365  0.0677
 4780TIP3    H138535   2.791   7.093  17.813 -0.1401 -1.0021 -0.1711
 4780TIP3    H238536   2.892   6.994  17.759  1.5849  0.4201  0.3480
 4781TIP3   OH238537   5.848   1.647  17.466 -0.0548 -0.0936 -0.2298
 4781TIP3    H138538   5.913   1.657  17.397 -0.0511 -0.9102 -0.3589
 4781TIP3    H238539   5.789   1.721  17.455  1.9495  1.8375  1.1452
 4782TIP3   OH238540   2.281   2.052  17.351  0.0467 -0.2457 -0.5793
 4782TIP3    H138541   2.264   1.961  17.373  2.6931 -0.9432 -1.1715
 4782TIP3    H238542   2.237   2.102  17.420 -1.0592 -1.9480  0.0011
 4783TIP3   OH238543   0.345   1.025  18.221  0.0836 -0.3678 -0.0393
 4783TIP3    H138544   0.270   1.050  18.274 -0.4417  0.1448 -0.9926
 4783TIP3    H238545   0.371   0.939  18.254 -1.6632 -1.0873 -0.4614
 4784TIP3   OH238546   2.088   2.783  19.368  0.1959 -0.3165  0.1142
 4784TIP3    H138547   2.134   2.837  19.432 -0.2033 -0.5701  0.6162
 4784TIP3    H238548   2.138   2.701  19.365  0.5349 -0.0957 -0.3076
 4785TIP3   OH238549   5.671   0.651  18.170  0.1787 -0.1546 -0.6611
 4785TIP3    H138550   5.662   0.690  18.083 -1.2048  0.4811 -0.2572
 4785TIP3    H238551   5.608   0.579  18.171  1.0728 -0.9682 -0.5911
 4786TIP3   OH238552   1.022   4.357  18.005  0.1093 -0.1701  0.1975
 4786TIP3    H138553   1.027   4.451  17.988  2.5479  0.0334  1.5407
 4786TIP3    H238554   1.095   4.319  17.955 -0.4312 -1.2457  0.2007
 4787TIP3   OH238555   0.670   2.692  18.269 -0.4191 -0.0029  0.3975
 4787TIP3    H138556   0.607   2.740  18.215 -1.6116 -0.2083  1.5388
 4787TIP3    H238557   0.628   2.608  18.285  0.2922 -0.2680  0.9216
 4788TIP3   OH238558   4.365   6.524  18.653 -0.0060 -0.1960 -0.6901
 4788TIP3    H138559   4.407   6.599  18.612 -0.2380 -0.3878 -1.2761
 4788TIP3    H238560   4.371   6.542  18.747  2.4968 -0.7604 -0.6543
 4789TIP3   OH238561   7.619   0.944  17.596 -0.2710 -0.2147 -0.2825
 4789TIP3    H138562   7.662   0.963  17.679  0.1488 -1.5333 -0.1748
 4789TIP3    H238563   7.527   0.967  17.611 -0.5575 -2.0397  1.1436
 4790TIP3   OH238564   2.735   2.925  18.924  0.0965  0.6966 -0.1069
 4790TIP3    H138565   2.700   3.008  18.892  1.5400  0.9228 -1.1876
 4790TIP3    H238566   2.804   2.902  18.862  0.0565 -1.0803  0.4422
 4791TIP3   OH238567   1.557   6.897  17.864 -0.0252  0.6537  0.1352
 4791TIP3    H138568   1.624   6.956  17.830 -1.1854  2.5652  1.0280
 4791TIP3    H238569   1.493   6.890  17.793 -0.5306  1.5518  0.4847
 4792TIP3   OH238570   7.615   1.276  19.518 -0.3931 -0.1820 -0.1824
 4792TIP3    H138571   7.538   1.224  19.543 -2.0599  1.3672 -1.7923
 4792TIP3    H238572   7.659   1.223  19.451 -1.1387 -0.2872 -0.6044
 4793TIP3   OH238573   5.947   7.454  18.830 -0.2691  0.0922 -0.3026
 4793TIP3    H138574   6.007   7.437  18.757 -0.0116  0.7768 -0.2594
 4793TIP3    H238575   5.924   7.546  18.821 -3.1840 -0.6459 -1.6909
 4794TIP3   OH238576   2.906   2.145  19.416  0.0259 -0.9755 -0.1964
 4794TIP3    H138577   2.885   2.052  19.421  0.8835 -1.1300  2.3414
 4794TIP3    H238578   2.999   2.148  19.394  0.7882 -0.9514  2.5786
 4795TIP3   OH238579   5.823   7.219  18.739  0.0850 -0.4798 -0.2586
 4795TIP3    H138580   5.837   7.293  18.798  0.3811 -0.6217 -0.1491
 4795TIP3    H238581   5.901   7.165  18.749 -1.0890 -1.9907  1.3733
 4796TIP3   OH238582   1.722   1.002  17.467  0.6627  0.1583  0.1358
 4796TIP3    H138583   1.787   1.064  17.500  1.3165 -0.7604  0.6302
 4796TIP3    H238584   1.757   0.916  17.491 -0.4595 -0.3824 -0.1019
 4797TIP3   OH238585   4.365   0.150  18.738 -0.3035 -0.0932 -0.2018
 4797TIP3    H138586   4.362   0.215  18.808 -0.3527 -0.8745  0.5366
 4797TIP3    H238587   4.340   0.198  18.659  0.5699  0.9887  0.1685
 4798TIP3   OH238588   5.820   2.576  17.545 -0.5289 -0.2866  0.0629
 4798TIP3    H138589   5.745   2.517  17.540 -0.7389 -0.1724  1.4057
 4798TIP3    H238590   5.782   2.663  17.553 -0.2932 -0.2791  1.3756
 4799TIP3   OH238591   4.555   5.080  17.307  0.4651 -0.6755 -0.4971
 4799TIP3    H138592   4.464   5.093  17.281 -0.3000  0.4068  2.3115
 4799TIP3    H238593   4.569   4.985  17.301 -0.8536 -0.8512 -0.9401
 4800TIP3   OH238594   2.050   1.810  17.291 -0.1642  0.2484  1.3043
 4800TIP3    H138595   2.084   1.849  17.210 -0.0311  1.5573  1.9665
 4800TIP3    H238596   1.971   1.763  17.264 -0.1044  0.6474  0.4111
 4801TIP3   OH238597   7.126   7.121  18.598 -0.2617 -0.1164  0.3679
 4801TIP3    H138598   7.059   7.060  18.566  0.1434 -1.3664  1.7932
 4801TIP3    H238599   7.207   7.092  18.556  0.5443 -2.6267  3.2991
 4802TIP3   OH238600   1.060   1.922  18.752 -0.0926 -0.6005 -0.0619
 4802TIP3    H138601   1.055   2.017  18.735  0.5026 -0.3177  1.2604
 4802TIP3    H238602   1.061   1.883  18.665 -0.4357  0.6051 -0.6332
 4803TIP3   OH238603   4.134   0.479  17.474  0.6043 -0.2098  0.0946
 4803TIP3    H138604   4.146   0.474  17.379 -1.1279  0.1289 -0.1786
 4803TIP3    H238605   4.067   0.547  17.486 -1.8600 -2.6381  1.2725
 4804TIP3   OH238606   5.525   5.898  19.356 -0.0535 -0.2188  0.3025
 4804TIP3    H138607   5.549   5.806  19.349 -3.1505 -1.0827 -0.5958
 4804TIP3    H238608   5.505   5.925  19.266 -0.1953  1.0174  0.6836
 4805TIP3   OH238609   7.516   3.369  18.630 -0.2319 -0.0918  0.8444
 4805TIP3    H138610   7.594   3.319  18.657 -0.9025 -1.1730  0.8534
 4805TIP3    H238611   7.532   3.389  18.538 -0.4845 -1.4106  0.4945
 4806TIP3   OH238612   5.482   7.406  19.216  0.0705  0.3002 -0.4157
 4806TIP3    H138613   5.526   7.480  19.259 -1.9079  0.4713  1.4933
 4806TIP3    H238614   5.511   7.329  19.265 -0.9029  0.3081  0.2098
 4807TIP3   OH238615   5.768   5.012  18.679  0.0904  0.6160 -0.2952
 4807TIP3    H138616   5.729   4.951  18.616  1.0261 -0.2753 -0.0364
 4807TIP3    H238617   5.726   4.990  18.762  0.9928 -0.2462 -0.0445
 4808TIP3   OH238618   5.599   0.721  19.368  0.3440 -0.4712 -0.4714
 4808TIP3    H138619   5.691   0.704  19.348  0.5915 -1.3374  1.2503
 4808TIP3    H238620   5.562   0.752  19.285  2.6504  2.0133 -0.7228
 4809TIP3   OH238621   2.781   0.521  17.220 -0.2660  0.0819  0.5786
 4809TIP3    H138622   2.804   0.584  17.288  0.0965  0.4509  0.1217
 4809TIP3    H238623   2.740   0.574  17.151 -1.7318 -0.4407  0.9977
 4810TIP3   OH238624   5.873   2.724  18.982  0.0201  0.2956  0.5859
 4810TIP3    H138625   5.844   2.638  18.951  2.4234 -0.8634  1.3130
 4810TIP3    H238626   5.848   2.784  18.912 -1.8573 -0.9295  0.1245
 4811TIP3   OH238627   6.686   5.484  16.485 -0.4750  0.0592 -0.7530
 4811TIP3    H138628   6.698   5.397  16.523 -2.3954 -0.5344 -1.3729
 4811TIP3    H238629   6.728   5.478  16.399  0.2756  0.0883 -0.3976
 4812TIP3   OH238630   7.589   2.687  18.304  0.3276  0.0866  0.1094
 4812TIP3    H138631   7.651   2.721  18.369 -1.6699  1.2782  1.4753
 4812TIP3    H238632   7.513   2.661  18.355 -0.9642  0.1768 -1.6819
 4813TIP3   OH238633   6.009   5.667  18.709  0.0380  0.5725  0.0429
 4813TIP3    H138634   5.938   5.660  18.645 -0.9885  0.3950  1.1839
 4813TIP3    H238635   6.069   5.731  18.670  0.2602 -0.6772 -1.8411
 4814TIP3   OH238636   2.993   2.901  17.959  0.0194 -1.0256  0.1340
 4814TIP3    H138637   3.067   2.874  17.904  0.7819  1.9575 -0.4511
 4814TIP3    H238638   2.917   2.896  17.901  0.3235 -0.8009 -0.2840
 4815TIP3   OH238639   4.281   4.211  19.080  0.5030  0.1972 -0.6015
 4815TIP3    H138640   4.309   4.126  19.045  0.6809  0.0597 -0.1420
 4815TIP3    H238641   4.316   4.212  19.169 -0.7118  0.1437 -0.1022
 4816TIP3   OH238642   4.174   1.475  18.097  0.0248  0.5820  0.4439
 4816TIP3    H138643   4.139   1.431  18.175 -1.1723  1.9230  0.6960
 4816TIP3    H238644   4.216   1.554  18.130 -1.6357  1.8422 -0.3547
 4817TIP3   OH238645   2.959   5.075  18.329  0.3073 -0.3427  0.0962
 4817TIP3    H138646   2.947   5.161  18.370  2.7353 -0.5334  1.4244
 4817TIP3    H238647   2.894   5.019  18.371 -1.3460  0.8001 -0.8235
 4818TIP3   OH238648   5.696   3.367  18.295  0.3122 -0.0661  0.3077
 4818TIP3    H138649   5.786   3.340  18.312  0.3018  0.1694  0.7477
 4818TIP3    H238650   5.703   3.436  18.229  0.4749  0.1412  0.5397
 4819TIP3   OH238651   1.130   4.144  18.267  0.7124 -0.0011 -0.0407
 4819TIP3    H138652   1.205   4.093  18.237  1.1914  0.4554  0.3500
 4819TIP3    H238653   1.070   4.147  18.192  0.6976 -1.0770 -0.0904
 4820TIP3   OH238654   5.104   7.000  17.692  0.3171 -0.3517  0.2463
 4820TIP3    H138655   5.172   6.958  17.745  0.8106  1.6354  1.3053
 4820TIP3    H238656   5.032   7.016  17.754 -1.2160 -2.4242 -0.8527
 4821TIP3   OH238657   0.729   4.960  19.813  0.1026 -0.3335 -0.1567
 4821TIP3    H138658   0.804   4.931  19.864 -0.0898 -2.0546 -0.7899
 4821TIP3    H238659   0.656   4.908  19.846  0.0409 -1.7490 -2.3737
 4822TIP3   OH238660   1.890   6.043  19.193  0.1685 -1.3606  0.4724
 4822TIP3    H138661   1.884   6.029  19.287  0.8668  1.0658  0.9488
 4822TIP3    H238662   1.984   6.048  19.176  0.0616  1.3704  0.2630
 4823TIP3   OH238663   0.284   1.735  19.026  0.1410  0.2123 -0.6144
 4823TIP3    H138664   0.335   1.661  18.992 -2.6021 -2.0291 -0.1755
 4823TIP3    H238665   0.211   1.744  18.965 -1.8012 -0.1939  1.5203
 4824TIP3   OH238666   4.674   4.254  17.985 -0.2617  0.3171 -0.1977
 4824TIP3    H138667   4.750   4.251  18.044 -1.0149  0.5580  0.8314
 4824TIP3    H238668   4.618   4.182  18.015 -1.1336  1.0878  0.0716
 4825TIP3   OH238669   5.910   6.293  16.820 -0.7484 -0.1380  0.1835
 4825TIP3    H138670   6.001   6.313  16.844 -1.0642 -0.0714  1.3971
 4825TIP3    H238671   5.890   6.353  16.748  1.3272 -2.6263 -2.7237
 4826TIP3   OH238672   0.686   2.382  16.465  0.4437  0.1625  0.0289
 4826TIP3    H138673   0.763   2.414  16.419  0.1317 -1.2105 -1.5397
 4826TIP3    H238674   0.675   2.442  16.539  0.9304  2.5159 -1.7021
 4827TIP3   OH238675   0.701   3.667  18.352 -0.1419 -0.1774  0.1020
 4827TIP3    H138676   0.713   3.748  18.301  2.2502 -1.3276 -1.3253
 4827TIP3    H238677   0.739   3.687  18.437  1.2278 -0.0203 -0.5185
 4828TIP3   OH238678   3.163   1.858  17.554  0.2725 -0.4219 -0.4083
 4828TIP3    H138679   3.248   1.815  17.555 -0.1861 -1.3464 -0.3808
 4828TIP3    H238680   3.170   1.924  17.485  0.5961 -1.3444 -1.2674
 4829TIP3   OH238681   6.983   5.399  19.218 -0.0141 -0.8044  0.2781
 4829TIP3    H138682   6.932   5.321  19.239  0.3182 -0.9376  0.5958
 4829TIP3    H238683   7.041   5.411  19.293  1.9608 -1.8991 -0.9973
 4830TIP3   OH238684   2.502   1.396  19.623  0.0867  0.0208  0.6738
 4830TIP3    H138685   2.417   1.412  19.665  0.2300 -1.2870  1.5338
 4830TIP3    H238686   2.485   1.325  19.562  0.3940  0.3250  0.2310
 4831TIP3   OH238687   2.162   1.499  18.409  0.3612  0.0234  0.3201
 4831TIP3    H138688   2.098   1.482  18.479 -0.6293 -1.8689 -0.9643
 4831TIP3    H238689   2.246   1.473  18.447 -0.1727 -1.0542  0.8074
 4832TIP3   OH238690   5.416   3.960  18.203  0.1642  0.0241 -0.2677
 4832TIP3    H138691   5.363   4.029  18.165 -0.0985 -0.2746 -0.4432
 4832TIP3    H238692   5.474   4.005  18.264  1.4196  0.6812 -1.8577
 4833TIP3   OH238693   2.446   2.370  17.517 -0.5452 -0.5300  0.1253
 4833TIP3    H138694   2.501   2.389  17.441 -1.8509 -0.3290 -0.8244
 4833TIP3    H238695   2.500   2.315  17.573  0.4654 -0.6891 -0.9634
 4834TIP3   OH238696   3.206   0.328  18.760  0.5608  0.1122 -0.2784
 4834TIP3    H138697   3.175   0.247  18.721  0.4792  0.7212 -1.5112
 4834TIP3    H238698   3.177   0.323  18.851 -1.8466 -0.0373 -0.9839
 4835TIP3   OH238699   0.319   7.159  17.097 -0.3961  0.0634 -0.1080
 4835TIP3    H138700   0.251   7.138  17.032 -1.4140  0.0536  0.9303
 4835TIP3    H238701   0.377   7.220  17.051 -0.9628 -0.1135 -1.1064
 4836TIP3   OH238702   2.808   6.279  16.661 -0.3231 -0.4170 -0.1357
 4836TIP3    H138703   2.877   6.214  16.649 -0.6845 -0.8991  0.3572
 4836TIP3    H238704   2.766   6.285  16.576  0.1633 -0.3087 -0.3719
 4837TIP3   OH238705   7.355   0.851  17.035  0.1941  0.0344 -0.5735
 4837TIP3    H138706   7.413   0.918  17.000  1.7134 -0.3187  1.1503
 4837TIP3    H238707   7.318   0.889  17.114  0.7734 -0.9846  0.2113
 4838TIP3   OH238708   2.774   4.330  19.077  0.2230 -0.4340 -0.1291
 4838TIP3    H138709   2.799   4.421  19.095 -1.2084 -0.5138  2.9063
 4838TIP3    H238710   2.682   4.325  19.103 -0.4190 -2.2501 -2.4266
 4839TIP3   OH238711   3.215   6.612  19.179 -0.4751 -0.1013  0.1585
 4839TIP3    H138712   3.137   6.592  19.229 -0.2992  0.1240  0.5290
 4839TIP3    H238713   3.206   6.704  19.155 -0.5254 -0.1897 -0.1619
 4840TIP3   OH238714   2.132   6.068  17.171  0.0656 -0.4359  0.9292
 4840TIP3    H138715   2.224   6.044  17.176  0.4971  0.7808 -0.4926
 4840TIP3    H238716   2.111   6.067  17.078 -1.1523  0.0510  1.1733
 4841TIP3   OH238717   4.615   0.037  18.827 -0.1648 -0.6488  0.2079
 4841TIP3    H138718   4.556   0.093  18.777  0.7578 -1.4498 -1.8913
 4841TIP3    H238719   4.701   0.077  18.816 -0.0812 -0.1764  2.2181
 4842TIP3   OH238720   1.486   5.911  19.405  0.2941 -0.0394 -0.0409
 4842TIP3    H138721   1.476   5.969  19.480 -0.5916  1.8460 -1.5370
 4842TIP3    H238722   1.405   5.921  19.356 -0.2770 -3.2321  0.0116
 4843TIP3   OH238723   5.629   7.062  17.910 -0.2206  0.0067 -0.1281
 4843TIP3    H138724   5.574   7.060  17.988  1.0181  1.2266  0.8335
 4843TIP3    H238725   5.581   7.011  17.845 -1.8698 -0.0117  1.0425
 4844TIP3   OH238726   1.753   4.092  18.556 -0.0688 -0.0733 -0.1822
 4844TIP3    H138727   1.741   4.050  18.641  1.3478 -0.0906  0.0335
 4844TIP3    H238728   1.738   4.185  18.572  0.4651 -0.0402  0.1636
 4845TIP3   OH238729   4.812   6.370  16.507  0.9008  0.2763  0.4611
 4845TIP3    H138730   4.836   6.424  16.433 -0.1046  1.0472  0.6619
 4845TIP3    H238731   4.787   6.285  16.469  0.9575  0.4747 -0.0176
 4846TIP3   OH238732   1.026   5.895  19.317  0.1329 -0.3641  0.2888
 4846TIP3    H138733   1.116   5.928  19.317  0.3469 -0.7778  2.5438
 4846TIP3    H238734   0.998   5.901  19.226  1.7445  1.6731 -0.1461
 4847TIP3   OH238735   2.004   3.462  18.233 -0.0604  0.6441 -0.2101
 4847TIP3    H138736   2.073   3.514  18.274  0.7493 -0.8383  0.4200
 4847TIP3    H238737   1.999   3.383  18.288 -0.5599 -0.3662 -1.6632
 4848TIP3   OH238738   6.525   2.784  19.132  0.2759  0.2607  0.0562
 4848TIP3    H138739   6.574   2.724  19.075 -0.3675 -0.5054  0.3037
 4848TIP3    H238740   6.589   2.853  19.153  0.2356  1.2131 -2.5035
 4849TIP3   OH238741   5.069   6.336  17.451 -0.3325  0.1129  0.3373
 4849TIP3    H138742   5.125   6.269  17.492  0.3276  1.4540  1.7411
 4849TIP3    H238743   4.981   6.316  17.483 -0.2602 -0.4911  0.1760
 4850TIP3   OH238744   6.173   7.488  18.348  0.3476 -0.3036  0.3721
 4850TIP3    H138745   6.160   7.406  18.397 -1.0814  1.1296  2.5488
 4850TIP3    H238746   6.124   7.474  18.267 -1.5186 -0.9471  1.5417
 4851TIP3   OH238747   5.347   7.516  18.213 -0.1946 -0.1944 -0.4261
 4851TIP3    H138748   5.430   7.483  18.249  0.0911  3.6029  3.1411
 4851TIP3    H238749   5.282   7.490  18.278 -0.6398  2.1400  0.1387
 4852TIP3   OH238750   7.159   6.326  17.009  0.3740  0.5461 -0.1017
 4852TIP3    H138751   7.100   6.263  16.967  0.6324 -0.0555  0.4029
 4852TIP3    H238752   7.244   6.310  16.968  0.8407 -0.6956  1.2403
 4853TIP3   OH238753   6.959   5.655  17.822 -0.3703 -0.1297  0.5361
 4853TIP3    H138754   6.900   5.651  17.747 -0.6836 -1.1964  0.8222
 4853TIP3    H238755   6.963   5.748  17.845  0.0385  0.2697 -1.0241
 4854TIP3   OH238756   5.115   5.236  18.734  0.1275 -0.2817  0.1168
 4854TIP3    H138757   5.121   5.180  18.811  0.6043 -0.5209 -0.0862
 4854TIP3    H238758   5.139   5.323  18.765 -1.9611  0.1236  0.7391
 4855TIP3   OH238759   6.955   0.455  17.318 -0.5765  0.5520 -0.2362
 4855TIP3    H138760   6.883   0.453  17.254  0.8313 -0.0522 -1.8767
 4855TIP3    H238761   6.956   0.367  17.355 -0.1678  0.2884 -0.8499
 4856TIP3   OH238762   7.470   6.062  17.580 -0.1428  0.3923  0.5715
 4856TIP3    H138763   7.487   6.085  17.671  1.1137  1.1562  0.1751
 4856TIP3    H238764   7.550   6.086  17.534 -0.2132 -1.2665 -0.5270
 4857TIP3   OH238765   1.552   7.243  19.089  0.5689  0.2891  0.4489
 4857TIP3    H138766   1.623   7.185  19.118  0.7389  1.2160  1.9879
 4857TIP3    H238767   1.495   7.187  19.036  0.6543 -1.3288  2.0009
 4858TIP3   OH238768   6.456   7.370  18.103 -0.3324 -0.2612 -0.4857
 4858TIP3    H138769   6.467   7.373  18.198 -1.5148  3.0954 -0.3042
 4858TIP3    H238770   6.543   7.347  18.070  1.2413  2.2816  1.4002
 4859TIP3   OH238771   4.319   7.513  18.091 -0.3902  0.0294  0.3564
 4859TIP3    H138772   4.359   7.427  18.079 -0.2791  0.0918  0.2791
 4859TIP3    H238773   4.388   7.566  18.130 -0.4567  0.0860  0.3969
 4860TIP3   OH238774   3.456   5.948  18.787  0.4337 -0.6965  0.3083
 4860TIP3    H138775   3.461   6.025  18.731  0.8785 -0.2366  0.9623
 4860TIP3    H238776   3.519   5.965  18.857 -0.8751 -0.7523  1.5576
 4861TIP3   OH238777   6.797   2.425  19.354  0.0616 -0.4102 -0.0458
 4861TIP3    H138778   6.843   2.363  19.411  0.5566 -0.4544 -0.4930
 4861TIP3    H238779   6.744   2.477  19.415 -2.1883 -2.7284  0.1611
 4862TIP3   OH238780   3.712   3.962  19.413  0.3531  0.0124  0.2222
 4862TIP3    H138781   3.622   3.991  19.426 -0.9256 -2.6099 -1.7573
 4862TIP3    H238782   3.725   3.895  19.480  0.9360  0.5437  0.6469
 4863TIP3   OH238783   4.704   5.485  17.188 -0.0313  0.1675  0.3997
 4863TIP3    H138784   4.634   5.466  17.250  0.0231 -0.4551  0.2828
 4863TIP3    H238785   4.660   5.529  17.115 -0.2999 -0.2001  0.3361
 4864TIP3   OH238786   7.227   6.298  18.574 -0.3953 -0.2387  0.1006
 4864TIP3    H138787   7.287   6.302  18.648  0.7216 -0.0280 -0.7812
 4864TIP3    H238788   7.168   6.372  18.586  0.5136  0.4846  0.1757
 4865TIP3   OH238789   2.903   3.005  19.344 -0.5878 -0.5136 -0.1501
 4865TIP3    H138790   2.938   3.003  19.433  0.1818 -1.3903 -0.4596
 4865TIP3    H238791   2.836   3.074  19.347 -0.0899 -0.0427  0.9173
 4866TIP3   OH238792   2.342   2.228  16.479  0.6741  0.3518  1.1072
 4866TIP3    H138793   2.398   2.157  16.512  0.5108  0.0132  0.6618
 4866TIP3    H238794   2.343   2.217  16.384 -0.9025 -0.2513  1.1313
 4867TIP3   OH238795   6.591   5.368  18.862 -0.0716  0.0154 -0.2132
 4867TIP3    H138796   6.609   5.460  18.879 -0.2771 -0.1542  0.9926
 4867TIP3    H238797   6.670   5.322  18.890 -1.2846 -0.4917  2.7348
 4868TIP3   OH238798   1.584   3.548  18.465  0.4800 -0.6275  0.2654
 4868TIP3    H138799   1.585   3.457  18.495  1.1170 -1.5617 -2.2768
 4868TIP3    H238800   1.677   3.572  18.459  0.3205  0.1540  0.7625
 4869TIP3   OH238801   1.055   2.466  18.692  0.7442  0.1096 -0.7889
 4869TIP3    H138802   0.994   2.494  18.624  0.0274 -1.1444 -0.6895
 4869TIP3    H238803   1.140   2.498  18.662  0.3126  0.3123 -1.8463
 4870TIP3   OH238804   1.237   1.510  18.797 -0.0688 -0.6572 -0.2858
 4870TIP3    H138805   1.324   1.549  18.803  0.1979 -1.4376  1.5884
 4870TIP3    H238806   1.184   1.557  18.861 -0.5075 -1.4332 -0.0549
 4871TIP3   OH238807   2.403   6.653  18.444  0.0710 -0.6113 -0.5678
 4871TIP3    H138808   2.465   6.724  18.430  0.5773 -1.1277 -1.0381
 4871TIP3    H238809   2.375   6.627  18.356 -0.4591 -0.6957 -0.3813
 4872TIP3   OH238810   6.298   2.884  16.942 -0.4230  0.5607 -0.0457
 4872TIP3    H138811   6.315   2.949  16.873  1.2585 -0.9639 -1.1497
 4872TIP3    H238812   6.333   2.802  16.907 -0.1542 -0.4210  2.3540
 4873TIP3   OH238813   2.817   6.999  19.212  0.0690  0.2929  0.1784
 4873TIP3    H138814   2.784   6.914  19.241  2.0679 -0.0296  1.8027
 4873TIP3    H238815   2.741   7.057  19.215 -1.5024 -1.5263 -1.6564
 4874TIP3   OH238816   0.797   0.170  17.283 -0.1068  0.0068  0.4836
 4874TIP3    H138817   0.732   0.113  17.324  0.2058 -1.0147 -0.3933
 4874TIP3    H238818   0.753   0.205  17.206 -0.3889  1.1909  1.1659
 4875TIP3   OH238819   5.988   0.351  16.961 -0.0948  0.1829  0.3825
 4875TIP3    H138820   5.980   0.429  17.016  0.7188  1.1177 -0.7682
 4875TIP3    H238821   5.898   0.331  16.935 -0.3347  0.6030  0.8501
 4876TIP3   OH238822   5.850   3.434  18.030  0.3659 -0.2978 -0.1140
 4876TIP3    H138823   5.924   3.470  18.077  0.8924 -1.8240  0.2966
 4876TIP3    H238824   5.782   3.500  18.037  1.5071  0.9021 -0.0498
 4877TIP3   OH238825   4.845   5.045  17.032  0.0324 -0.3278  0.2597
 4877TIP3    H138826   4.804   4.964  17.062  1.4639 -0.9359  0.6128
 4877TIP3    H238827   4.771   5.106  17.020 -1.1967 -1.9657 -1.0267
 4878TIP3   OH238828   6.479   5.354  18.583 -0.2698 -0.0563 -0.8507
 4878TIP3    H138829   6.539   5.307  18.525 -0.2424  1.4079 -2.0478
 4878TIP3    H238830   6.526   5.359  18.666  0.5685 -0.3640 -1.2936
 4879TIP3   OH238831   5.053   2.017  17.946 -0.1060  0.4340 -0.7808
 4879TIP3    H138832   5.026   2.083  17.882  1.1691  1.8768  0.0920
 4879TIP3    H238833   5.127   2.058  17.992 -0.2936 -0.9888  0.8741
 4880TIP3   OH238834   2.809   0.979  18.062  0.0741 -0.1339  0.1296
 4880TIP3    H138835   2.821   0.941  17.976  0.3334  1.5865 -0.6380
 4880TIP3    H238836   2.891   0.962  18.108  0.4398  0.0699 -0.4355
 4881TIP3   OH238837   3.247   3.124  17.985 -0.4238  0.1053 -0.0880
 4881TIP3    H138838   3.231   3.042  18.031 -1.6073  0.5430  0.3283
 4881TIP3    H238839   3.171   3.134  17.927  0.6020  0.0093 -1.5014
 4882TIP3   OH238840   6.526   0.702  18.664  0.1441 -0.0732 -0.8046
 4882TIP3    H138841   6.522   0.785  18.617  0.3153 -1.2869 -3.1681
 4882TIP3    H238842   6.616   0.672  18.651  0.1863 -0.4731  0.3259
 4883TIP3   OH238843   4.410   3.329  19.149  0.2442  0.2515  0.2530
 4883TIP3    H138844   4.335   3.382  19.175 -1.3154 -1.0916 -1.2812
 4883TIP3    H238845   4.444   3.373  19.071 -0.0873 -0.1424 -0.1153
 4884TIP3   OH238846   4.250   7.229  18.666  0.3560  0.1444 -0.1635
 4884TIP3    H138847   4.262   7.240  18.572  1.6606  0.8060  0.0600
 4884TIP3    H238848   4.338   7.233  18.703  0.0828 -1.9897  0.9270
 4885TIP3   OH238849   1.093   0.761  17.074  0.0578 -0.3451  0.6399
 4885TIP3    H138850   1.067   0.850  17.051 -0.0381 -0.3214  0.8393
 4885TIP3    H238851   1.163   0.773  17.138  1.1014 -0.3966 -0.4453
 4886TIP3   OH238852   6.439   4.278  16.983  0.0135  0.3783 -0.6500
 4886TIP3    H138853   6.378   4.206  16.973  0.4245 -0.2128  0.8076
 4886TIP3    H238854   6.507   4.244  17.042 -0.8951  2.5912  1.8765
 4887TIP3   OH238855   4.240   4.963  18.357 -0.3522 -0.1669 -0.2730
 4887TIP3    H138856   4.290   5.024  18.411  1.5974  0.8491 -2.9782
 4887TIP3    H238857   4.166   5.014  18.324  1.0604  0.7440 -2.2163
 4888TIP3   OH238858   4.726   2.142  16.645 -0.2562  0.1942  0.0178
 4888TIP3    H138859   4.805   2.192  16.669  0.5609 -1.4778  0.9927
 4888TIP3    H238860   4.740   2.056  16.683 -1.7067 -0.7534 -1.4746
 4889TIP3   OH238861   7.222   1.503  19.151  0.7197  0.1727 -0.2608
 4889TIP3    H138862   7.207   1.587  19.107 -2.1187 -0.0067  0.2332
 4889TIP3    H238863   7.242   1.528  19.242 -1.1632  0.3281  0.1380
 4890TIP3   OH238864   6.633   4.587  17.270 -0.4318  0.2325 -0.0989
 4890TIP3    H138865   6.542   4.560  17.286 -0.8834  0.0553 -2.5067
 4890TIP3    H238866   6.658   4.538  17.192  1.0838  1.7068 -0.5859
 4891TIP3   OH238867   4.737   3.205  16.342  0.1163 -0.4451 -0.0937
 4891TIP3    H138868   4.668   3.148  16.308 -1.7689  2.5786 -1.7391
 4891TIP3    H238869   4.812   3.146  16.354 -2.0255 -3.4825 -0.3165
 4892TIP3   OH238870   0.741   0.497  17.318 -0.5374  0.0666 -0.4584
 4892TIP3    H138871   0.723   0.572  17.260  0.2818  0.0459 -0.7567
 4892TIP3    H238872   0.773   0.429  17.259 -0.5498 -0.2579 -0.0880
 4893TIP3   OH238873   4.288   3.672  19.038 -0.0430  0.0404  0.5033
 4893TIP3    H138874   4.382   3.657  19.043 -0.1386 -1.7105 -1.4211
 4893TIP3    H238875   4.249   3.610  19.099 -0.0516 -2.2282 -1.6467
 4894TIP3   OH238876   2.964   5.624  18.712 -0.3946  0.0437  0.0836
 4894TIP3    H138877   2.929   5.542  18.676  0.4916  0.0132 -0.7602
 4894TIP3    H238878   2.997   5.599  18.799  0.1885 -0.5981 -0.3058
 4895TIP3   OH238879   1.909   1.633  17.634  0.2956 -0.2874  0.4836
 4895TIP3    H138880   1.881   1.715  17.675  1.0477  0.2351 -0.0229
 4895TIP3    H238881   1.831   1.602  17.587  0.3341  0.7996 -0.3561
 4896TIP3   OH238882   0.751   3.730  18.643  0.5870 -0.1980  0.4888
 4896TIP3    H138883   0.825   3.782  18.611  0.8592 -0.8120  0.0973
 4896TIP3    H238884   0.751   3.742  18.738  0.4236  0.8030  0.3716
 4897TIP3   OH238885   7.028   0.037  17.682  0.6877 -0.2429  0.2462
 4897TIP3    H138886   6.968   0.108  17.704 -1.6673 -1.9475 -0.3264
 4897TIP3    H238887   7.054   0.054  17.592  1.7087  0.8960  0.7308
 4898TIP3   OH238888   3.004   1.607  19.342  0.1487 -0.2391 -0.6309
 4898TIP3    H138889   2.970   1.533  19.392 -0.4139 -0.0269 -0.6957
 4898TIP3    H238890   3.093   1.582  19.320 -0.0063 -0.8540 -0.5687
 4899TIP3   OH238891   7.376   6.338  17.954 -0.1871 -0.0909 -0.0684
 4899TIP3    H138892   7.369   6.363  17.862 -0.9916 -2.3258 -0.6558
 4899TIP3    H238893   7.290   6.357  17.991  0.0196  0.4499  0.1485
 4900TIP3   OH238894   6.715   2.638  18.595 -0.2612 -0.0372 -0.5217
 4900TIP3    H138895   6.723   2.586  18.514 -0.2037 -0.9049  0.0272
 4900TIP3    H238896   6.696   2.573  18.663  1.6580  0.4128  0.5215
 4901TIP3   OH238897   4.626   1.968  18.994 -0.6588 -0.1660 -0.0972
 4901TIP3    H138898   4.623   1.906  19.067 -0.9891 -1.1737 -0.9534
 4901TIP3    H238899   4.704   1.944  18.945 -0.2800  0.6937  0.0604
 4902TIP3   OH238900   6.083   7.413  16.650  0.1076 -0.7819 -0.1374
 4902TIP3    H138901   6.163   7.456  16.620  1.0362  0.1951  3.2891
 4902TIP3    H238902   6.097   7.320  16.630  3.7958 -1.2171  3.1985
 4903TIP3   OH238903   3.496   6.301  17.704  1.2743  0.6751 -0.2388
 4903TIP3    H138904   3.436   6.362  17.747 -0.0012 -1.0059  0.4886
 4903TIP3    H238905   3.545   6.355  17.642  0.2489  2.4319  0.4066
 4904TIP3   OH238906   6.612   7.324  17.767  0.0128  0.1832  0.3319
 4904TIP3    H138907   6.577   7.391  17.708 -2.2311 -0.7270  0.5344
 4904TIP3    H238908   6.681   7.369  17.816 -0.6298  2.0191 -0.3622
 4905TIP3   OH238909   5.020   4.098  18.369  0.3272  0.9303 -0.1821
 4905TIP3    H138910   5.009   4.004  18.355  0.2636  0.8278  0.5177
 4905TIP3    H238911   4.931   4.131  18.377  0.0720  1.6831 -4.0324
 4906TIP3   OH238912   3.430   4.592  17.055 -0.8117  0.3763 -0.0732
 4906TIP3    H138913   3.409   4.502  17.077 -1.2933  0.9449  2.0537
 4906TIP3    H238914   3.491   4.586  16.982 -0.4823 -1.6783  0.3261
 4907TIP3   OH238915   2.984   1.379  19.020  0.6768  0.0014 -0.1134
 4907TIP3    H138916   2.942   1.465  19.027  2.8774  1.1288  0.2938
 4907TIP3    H238917   2.992   1.364  18.926 -0.0292  0.0778 -0.1887
 4908TIP3   OH238918   0.742   1.875  17.882 -0.4671 -0.8127 -1.0725
 4908TIP3    H138919   0.837   1.886  17.892 -0.7399 -0.6505  3.5872
 4908TIP3    H238920   0.709   1.964  17.870 -0.1571 -0.3154  1.1697
 4909TIP3   OH238921   2.876   6.020  17.646  0.2577  0.0129 -0.2998
 4909TIP3    H138922   2.948   6.077  17.620  0.9630 -0.0165  1.4034
 4909TIP3    H238923   2.800   6.078  17.652  0.5709  0.4283 -0.2920
 4910TIP3   OH238924   6.467   4.885  17.868  0.0167 -0.0760 -0.3749
 4910TIP3    H138925   6.428   4.934  17.941 -1.5045 -0.1503 -1.1178
 4910TIP3    H238926   6.560   4.878  17.892 -0.2017  1.0027  0.9392
 4911TIP3   OH238927   3.168   7.120  17.565  0.2152 -0.1561  0.3744
 4911TIP3    H138928   3.207   7.173  17.496  0.5001 -0.5532  0.2269
 4911TIP3    H238929   3.242   7.095  17.621  0.0321 -0.1009  0.6453
 4912TIP3   OH238930   3.222   3.760  18.500 -0.5153 -0.1100  0.2319
 4912TIP3    H138931   3.218   3.775  18.406  0.7256 -1.7804 -0.1283
 4912TIP3    H238932   3.133   3.777  18.531 -1.0826 -0.1271 -1.3273
 4913TIP3   OH238933   1.310   2.577  19.304 -0.3441  1.1261 -0.2413
 4913TIP3    H138934   1.298   2.661  19.261 -2.2846  0.3543 -1.3222
 4913TIP3    H238935   1.221   2.547  19.324  0.3093 -0.5265  0.3865
 4914TIP3   OH238936   5.888   7.288  17.029  0.1050 -0.1927  0.6640
 4914TIP3    H138937   5.938   7.244  17.099 -0.6191 -3.5396 -0.7214
 4914TIP3    H238938   5.807   7.316  17.071  0.0178 -1.4436  1.3845
 4915TIP3   OH238939   4.864   7.072  17.545 -0.3714 -0.0855 -0.1628
 4915TIP3    H138940   4.950   7.050  17.509 -0.5880  1.3614 -1.6381
 4915TIP3    H238941   4.883   7.130  17.618 -0.0356 -1.3283  0.7753
 4916TIP3   OH238942   7.038   0.159  19.050 -0.2963  0.9191  0.2820
 4916TIP3    H138943   7.005   0.229  18.994  1.1663  1.5559  0.1718
 4916TIP3    H238944   6.990   0.168  19.132 -1.8981  0.4689 -0.5587
 4917TIP3   OH238945   7.028   1.588  17.673 -0.4134 -0.1229 -0.2536
 4917TIP3    H138946   7.105   1.532  17.686 -1.7464 -1.9540  0.2401
 4917TIP3    H238947   7.018   1.634  17.755 -0.3212 -0.5171 -0.0180
 4918TIP3   OH238948   3.668   5.332  17.764  0.0919 -0.7034  0.5152
 4918TIP3    H138949   3.590   5.336  17.820 -1.8823 -0.2707 -2.0828
 4918TIP3    H238950   3.679   5.239  17.747 -0.6222 -0.6894 -0.0713
 4919TIP3   OH238951   4.093   0.279  16.596 -0.0835 -0.1203  0.1286
 4919TIP3    H138952   4.151   0.236  16.533  0.5533 -0.6121  1.0285
 4919TIP3    H238953   4.008   0.279  16.553  0.2435 -0.8328 -0.5615
 4920TIP3   OH238954   1.154   7.498  19.046  0.3370 -0.4771 -0.1426
 4920TIP3    H138955   1.245   7.482  19.069  0.8457  0.3280 -1.5156
 4920TIP3    H238956   1.147   7.594  19.043 -1.0195 -0.4493  1.6558
 4921TIP3   OH238957   3.151   2.423  18.886 -0.0895  0.2359 -0.2614
 4921TIP3    H138958   3.141   2.328  18.889 -0.4105  0.2802  2.0582
 4921TIP3    H238959   3.129   2.447  18.796 -1.9400 -1.6878 -0.4004
 4922TIP3   OH238960   0.360   6.132  17.911  0.4825 -0.0794  0.2565
 4922TIP3    H138961   0.337   6.223  17.893  0.8615  0.0486  0.4129
 4922TIP3    H238962   0.342   6.120  18.004 -1.0606 -0.6175 -0.0912
 4923TIP3   OH238963   0.131   2.762  19.280  0.1677  0.0848  0.1312
 4923TIP3    H138964   0.166   2.832  19.335 -1.7054 -0.2034  1.8016
 4923TIP3    H238965   0.089   2.807  19.207  0.8521  0.5653  0.0207
 4924TIP3   OH238966   6.426   0.531  18.434 -0.1678  0.5232 -0.2567
 4924TIP3    H138967   6.451   0.556  18.523  1.0739  0.9878 -0.7118
 4924TIP3    H238968   6.334   0.556  18.427  0.0068  1.4557  0.5534
 4925TIP3   OH238969   1.795   2.147  19.244 -0.3558  0.5053 -0.0234
 4925TIP3    H138970   1.731   2.076  19.248 -0.9671  1.0538 -0.0068
 4925TIP3    H238971   1.854   2.122  19.173 -0.4816 -0.0885  0.0770
 4926TIP3   OH238972   0.946   0.830  18.911 -0.4588 -0.4762  0.3045
 4926TIP3    H138973   0.902   0.808  18.829  0.2981  1.0887 -0.5763
 4926TIP3    H238974   1.035   0.854  18.884  0.0254 -0.6430  1.6801
 4927TIP3   OH238975   4.844   7.305  18.164  0.2589  0.1833  0.0822
 4927TIP3    H138976   4.787   7.343  18.097 -0.7742 -0.6089  0.4712
 4927TIP3    H238977   4.860   7.376  18.226 -1.4690  0.1042  0.6897
 4928TIP3   OH238978   2.539   0.067  18.120  0.6583 -0.1024 -0.4589
 4928TIP3    H138979   2.627   0.037  18.099  0.6789  1.2955 -2.6262
 4928TIP3    H238980   2.481   0.007  18.073  0.4660 -0.4704  0.2333
 4929TIP3   OH238981   5.053   4.112  17.140  0.3039  0.2877  0.1597
 4929TIP3    H138982   5.059   4.108  17.045  0.5517 -3.3558  0.2225
 4929TIP3    H238983   4.971   4.159  17.157  0.0729  0.6807 -1.8037
 4930TIP3   OH238984   1.939   3.290  18.541  0.0634  0.1613  0.1547
 4930TIP3    H138985   1.957   3.277  18.634 -1.3205  0.6688  0.5246
 4930TIP3    H238986   1.852   3.252  18.527 -0.0082  0.6242 -0.7979
 4931TIP3   OH238987   3.201   6.720  17.039 -0.2531 -0.0331  0.2099
 4931TIP3    H138988   3.155   6.804  17.035 -0.2724 -0.0943 -1.8227
 4931TIP3    H238989   3.155   6.665  16.975  1.5134 -0.6533 -0.5857
 4932TIP3   OH238990   7.233   5.840  19.064  0.0734 -0.1857 -0.2751
 4932TIP3    H138991   7.328   5.849  19.070  0.2819 -1.6428 -0.7492
 4932TIP3    H238992   7.207   5.906  19.001  0.2542  2.6220  2.3895
 4933TIP3   OH238993   6.394   6.713  17.560 -0.1142 -0.2772 -0.5737
 4933TIP3    H138994   6.417   6.624  17.531  2.5777  0.0233  0.3041
 4933TIP3    H238995   6.478   6.760  17.560 -1.0048  1.4918  1.5656
 4934TIP3   OH238996   4.857   6.719  17.520 -0.3252 -0.2853 -0.6193
 4934TIP3    H138997   4.851   6.624  17.523 -0.8425 -0.2347  0.1175
 4934TIP3    H238998   4.938   6.740  17.568 -0.0005 -0.3626 -1.1172
 4935TIP3   OH238999   0.082   1.479  19.633  0.3584  0.7316  0.0453
 4935TIP3    H139000   0.020   1.410  19.608 -2.0843  2.1015  1.8862
 4935TIP3    H239001   0.121   1.447  19.714  0.4059  0.8473  0.0675
 4936TIP3   OH239002   7.100   1.658  18.323  0.0070 -0.3119  0.1317
 4936TIP3    H139003   7.192   1.676  18.304  0.0164 -2.5095 -2.4058
 4936TIP3    H239004   7.102   1.603  18.401  1.1502 -2.4598 -1.3053
 4937TIP3   OH239005   1.158   4.353  19.033 -0.1304  0.6090 -0.6417
 4937TIP3    H139006   1.177   4.437  19.075  0.9079 -0.3738  0.9736
 4937TIP3    H239007   1.152   4.291  19.106 -1.3401 -0.6491 -1.7679
 4938TIP3   OH239008   2.090   6.080  16.905 -0.3199  0.7880  0.8471
 4938TIP3    H139009   2.164   6.087  16.845 -1.2174  0.3930 -0.3534
 4938TIP3    H239010   2.023   6.137  16.867 -1.4750 -0.6885  0.5317
 4939TIP3   OH239011   4.055   0.054  18.451  0.3690 -0.5716 -0.3169
 4939TIP3    H139012   4.026   0.046  18.542 -0.0888 -0.2877 -0.4285
 4939TIP3    H239013   4.085  -0.033  18.427 -0.2030 -0.8294 -0.1172
 4940TIP3   OH239014   2.736   6.693  18.567  0.2666 -0.3223  0.4105
 4940TIP3    H139015   2.727   6.606  18.606 -0.9686 -0.8441 -0.9537
 4940TIP3    H239016   2.827   6.696  18.537 -0.1302 -1.8300 -1.0484
 4941TIP3   OH239017   1.140   6.208  19.172 -0.2377 -0.2058  0.3637
 4941TIP3    H139018   1.197   6.260  19.228  0.6302  0.0500 -0.7204
 4941TIP3    H239019   1.064   6.263  19.156  0.1398  0.2547  0.1666
 4942TIP3   OH239020   0.531   1.871  17.291  0.1334  0.0642 -0.3863
 4942TIP3    H139021   0.493   1.804  17.348 -1.0688  0.8334 -0.2442
 4942TIP3    H239022   0.478   1.867  17.211  0.0656  0.8119 -0.3850
 4943TIP3   OH239023   3.742   2.684  19.175  0.1741 -0.4895  0.7416
 4943TIP3    H139024   3.716   2.614  19.115 -0.3646  0.9421 -0.7645
 4943TIP3    H239025   3.674   2.750  19.166  0.9695  0.4977  1.6810
 4944TIP3   OH239026   6.294   6.997  19.288  0.0346 -0.2444 -0.2493
 4944TIP3    H139027   6.376   6.981  19.334  1.1451  0.0920 -1.9987
 4944TIP3    H239028   6.242   6.917  19.302  0.8084 -0.6180  0.5624
 4945TIP3   OH239029   0.004   2.007  18.706 -0.1672  0.0892 -0.0005
 4945TIP3    H139030  -0.007   1.963  18.790 -0.0308  0.8267  0.4085
 4945TIP3    H239031  -0.079   1.993  18.661  0.0368 -0.9741 -0.0663
 4946TIP3   OH239032   3.910   5.942  18.161  0.2663 -0.0060  0.4017
 4946TIP3    H139033   3.983   5.880  18.149  1.7392  1.5402  0.9233
 4946TIP3    H239034   3.931   6.015  18.103 -1.5632 -0.0568 -0.3817
 4947TIP3   OH239035   1.851   3.489  16.830 -0.4910  0.8030 -0.3717
 4947TIP3    H139036   1.903   3.564  16.859 -1.1631  1.0330  0.2903
 4947TIP3    H239037   1.761   3.511  16.856 -0.6614 -0.3550  0.0765
 4948TIP3   OH239038   4.448   1.801  19.417 -0.5593 -0.2899  0.0973
 4948TIP3    H139039   4.495   1.885  19.416  0.7658 -1.0124 -0.8347
 4948TIP3    H239040   4.502   1.744  19.471 -1.3060 -0.6344  0.4894
 4949TIP3   OH239041   3.294   3.918  18.878 -0.0493 -0.1722  0.4339
 4949TIP3    H139042   3.338   3.896  18.796  1.2538  0.2313  0.9980
 4949TIP3    H239043   3.344   3.873  18.945 -1.4436 -0.9708  0.9911
 4950TIP3   OH239044   5.632   7.425  18.605 -0.7395  0.3811 -0.2197
 4950TIP3    H139045   5.573   7.357  18.638 -1.2333  0.9828  0.1578
 4950TIP3    H239046   5.612   7.502  18.657 -0.7048  1.0294 -1.1311
 4951TIP3   OH239047   3.369   0.434  16.968 -0.0036 -0.0342  0.4998
 4951TIP3    H139048   3.453   0.406  16.932 -0.6911  0.5865 -1.7700
 4951TIP3    H239049   3.306   0.374  16.929 -0.9755  1.7085 -0.7177
 4952TIP3   OH239050   1.308   3.669  17.093 -0.4546 -0.3683  0.1368
 4952TIP3    H139051   1.395   3.649  17.127 -0.6167 -3.5862 -1.0023
 4952TIP3    H239052   1.248   3.618  17.148 -1.5161  0.8062  0.1137
 4953TIP3   OH239053   0.153   2.902  16.961  0.4871  0.0262 -0.5546
 4953TIP3    H139054   0.131   2.862  17.046  2.0217 -0.3907 -0.3151
 4953TIP3    H239055   0.079   2.959  16.941 -0.1968 -0.3617  0.7644
 4954TIP3   OH239056   7.307   0.072  19.161  0.5028 -0.2046  0.2903
 4954TIP3    H139057   7.288   0.014  19.087  1.1435  0.6601 -0.5805
 4954TIP3    H239058   7.222   0.110  19.184 -0.0815 -2.0919  1.4367
 4955TIP3   OH239059   0.045   0.477  17.153 -0.1687 -0.2607  0.1731
 4955TIP3    H139060   0.098   0.405  17.188 -0.3499 -0.2727  0.4184
 4955TIP3    H239061  -0.010   0.436  17.086  0.9515 -0.0568 -0.9263
 4956TIP3   OH239062   7.209   7.587  17.855  0.4069 -0.1244 -0.2142
 4956TIP3    H139063   7.151   7.654  17.819  0.0426  0.1931  0.8929
 4956TIP3    H239064   7.294   7.630  17.863  0.3723 -0.0472 -0.2598
 4957TIP3   OH239065   6.155   2.694  16.703  0.0545 -0.0679  0.7598
 4957TIP3    H139066   6.107   2.612  16.691 -0.0540 -0.2599  2.2575
 4957TIP3    H239067   6.099   2.746  16.762  1.3688 -0.0464  2.0319
 4958TIP3   OH239068   7.560   4.508  18.540 -0.1693 -0.5493 -0.1815
 4958TIP3    H139069   7.469   4.487  18.521  0.1701 -0.5091 -2.0392
 4958TIP3    H239070   7.576   4.589  18.492  0.4502  0.2609  1.3366
 4959TIP3   OH239071   3.651  -0.008  18.191 -0.2533 -1.3666  0.1933
 4959TIP3    H139072   3.591   0.034  18.129 -1.9709 -1.7004  1.5261
 4959TIP3    H239073   3.659  -0.098  18.160 -0.4040 -1.3046 -0.0293
 4960TIP3   OH239074   0.412   1.494  17.425  0.0918 -0.2519  0.5313
 4960TIP3    H139075   0.480   1.537  17.373 -0.2964  2.1761  1.9158
 4960TIP3    H239076   0.342   1.477  17.362  0.9132 -0.4167 -0.3751
 4961TIP3   OH239077   0.030   1.390  18.459 -0.4391  0.3780  0.0211
 4961TIP3    H139078   0.029   1.432  18.545 -1.3786 -2.0842  1.3073
 4961TIP3    H239079   0.093   1.441  18.408  0.2729  1.8128  2.2126
 4962TIP3   OH239080   6.518   5.015  17.615 -0.2750 -0.5860  0.0235
 4962TIP3    H139081   6.495   4.971  17.698 -1.1829  0.0632  0.1366
 4962TIP3    H239082   6.613   5.025  17.619 -0.1281 -1.8934  0.3128
 4963TIP3   OH239083   3.327   1.367  17.492  0.6512 -0.5554  0.2680
 4963TIP3    H139084   3.344   1.334  17.404  0.2518  0.1541 -0.0776
 4963TIP3    H239085   3.414   1.392  17.525  0.7408 -0.3333 -0.1255
 4964TIP3   OH239086   3.348   0.268  17.899  0.1172  0.0668 -0.1228
 4964TIP3    H139087   3.257   0.260  17.870  0.0355  0.1147  0.1187
 4964TIP3    H239088   3.374   0.355  17.870 -0.0224  0.1856  0.1034
 4965TIP3   OH239089   7.322   3.259  18.892 -0.4596  0.1562  0.4819
 4965TIP3    H139090   7.385   3.191  18.916 -0.2703 -0.4219 -1.4465
 4965TIP3    H239091   7.372   3.341  18.895 -0.2623  0.0105  1.2535
 4966TIP3   OH239092   4.986   3.288  19.208  0.7896  0.6070  0.0186
 4966TIP3    H139093   5.044   3.235  19.262 -0.0716 -0.0533  0.3236
 4966TIP3    H239094   5.044   3.350  19.164  1.9970 -1.3183 -1.2678
 4967TIP3   OH239095   1.046   3.670  17.664  0.2263 -0.4575 -0.5329
 4967TIP3    H139096   1.021   3.763  17.669  1.4943 -0.0939 -0.5101
 4967TIP3    H239097   1.109   3.666  17.592 -2.1954 -1.9183 -2.7361
 4968TIP3   OH239098   1.370   3.752  17.515 -0.2562  0.4550  0.1084
 4968TIP3    H139099   1.392   3.799  17.595 -0.0596  0.1116  0.2570
 4968TIP3    H239100   1.350   3.663  17.544  0.1821  0.2328 -0.2615
 4969TIP3   OH239101   0.021   4.241  18.970 -0.3514 -0.2030 -0.3174
 4969TIP3    H139102   0.005   4.189  18.891 -3.7364 -1.3019  0.9494
 4969TIP3    H239103  -0.050   4.304  18.973 -0.6364 -0.5481  2.1136
 4970TIP3   OH239104   2.730   5.001  17.703  0.5737  0.1227  0.7554
 4970TIP3    H139105   2.703   5.054  17.628 -0.3597  2.3030  2.5384
 4970TIP3    H239106   2.728   4.911  17.670 -0.9139  0.8979 -1.5209
 4971TIP3   OH239107   0.219   4.975  19.012 -0.1570 -0.0299 -0.2030
 4971TIP3    H139108   0.160   4.965  19.087  0.6766 -2.7862  0.2010
 4971TIP3    H239109   0.169   4.943  18.938  0.3200 -1.0424 -0.1025
 4972TIP3   OH239110   6.637   2.395  18.712  0.0149 -0.6159 -0.0931
 4972TIP3    H139111   6.611   2.316  18.665 -0.6615 -0.9916  0.8800
 4972TIP3    H239112   6.600   2.384  18.799 -0.2112  0.8504  0.0176
 4973TIP3   OH239113   3.378   5.272  19.028  0.2229 -0.1114  0.4423
 4973TIP3    H139114   3.417   5.190  19.058 -0.3590 -0.3962  0.4357
 4973TIP3    H239115   3.414   5.338  19.087 -1.0531 -0.6924  1.9646
 4974TIP3   OH239116   6.731   3.121  18.407 -0.4246  0.0521 -0.1359
 4974TIP3    H139117   6.697   3.186  18.468 -0.6603 -0.6752  0.5169
 4974TIP3    H239118   6.734   3.040  18.457 -0.1428 -0.4491 -0.9460
 4975TIP3   OH239119   6.179   4.736  18.775  0.6431 -0.3940 -0.9705
 4975TIP3    H139120   6.222   4.728  18.690  1.5647 -0.1362 -0.5489
 4975TIP3    H239121   6.157   4.829  18.782  1.3453 -0.2440 -0.5851
 4976TIP3   OH239122   4.573   4.103  18.617  0.0614 -0.9846  0.0207
 4976TIP3    H139123   4.560   4.162  18.543 -1.2002  0.1395  1.0698
 4976TIP3    H239124   4.508   4.034  18.604 -0.2705 -0.7002  0.1586
 4977TIP3   OH239125   0.265   6.804  18.090 -0.3837 -0.1419 -0.1155
 4977TIP3    H139126   0.274   6.786  18.183  1.0054  0.2088 -0.1580
 4977TIP3    H239127   0.287   6.897  18.081  0.0758 -0.3142 -0.8615
 4978TIP3   OH239128   6.933   3.520  18.872 -0.3975 -1.0120 -0.1742
 4978TIP3    H139129   7.020   3.494  18.840 -0.2633  0.2111 -0.8586
 4978TIP3    H239130   6.872   3.481  18.809 -0.2070  0.0622 -1.0646
 4979TIP3   OH239131   7.501   2.836  19.395  0.2534 -0.1267  0.3448
 4979TIP3    H139132   7.575   2.814  19.451 -1.7794 -0.8490  2.9438
 4979TIP3    H239133   7.502   2.768  19.327  1.0495 -1.0537  1.2581
 4980TIP3   OH239134   7.161   4.340  18.126 -0.1655 -0.1629  0.4485
 4980TIP3    H139135   7.145   4.275  18.194 -0.9774 -0.7706 -0.3043
 4980TIP3    H239136   7.252   4.368  18.140  0.4148 -1.9147  0.4020
 4981TIP3   OH239137   7.526   0.362  18.108  0.8516  0.0168  0.5781
 4981TIP3    H139138   7.609   0.362  18.155  1.0279  1.1952  0.2942
 4981TIP3    H239139   7.536   0.430  18.042  0.7276 -1.8167 -1.4230
 4982TIP3   OH239140   0.631   2.494  18.644 -0.3712  0.1214 -0.1412
 4982TIP3    H139141   0.663   2.508  18.733  0.6632 -1.9340 -0.1419
 4982TIP3    H239142   0.639   2.580  18.602  2.0950  0.4620  0.8490
 4983TIP3   OH239143   3.191   7.131  17.253 -0.1312  0.4837  0.8039
 4983TIP3    H139144   3.122   7.197  17.265 -1.5746 -0.4721 -1.5791
 4983TIP3    H239145   3.266   7.181  17.220 -0.6771  1.1542  0.5504
 4984TIP3   OH239146   5.237   2.322  18.263 -0.6802 -0.6348 -0.2249
 4984TIP3    H139147   5.294   2.375  18.317 -0.2245 -1.8176  0.4990
 4984TIP3    H239148   5.148   2.349  18.288 -0.4612 -0.4440  0.3530
 4985TIP3   OH239149   6.654   1.332  18.327 -0.1635  0.1903 -0.2536
 4985TIP3    H139150   6.600   1.362  18.254 -0.2376 -1.9344 -1.1440
 4985TIP3    H239151   6.651   1.236  18.322  2.1031 -0.0228  0.8402
 4986TIP3   OH239152   6.315   2.222  17.480  0.4089 -0.0948  0.0340
 4986TIP3    H139153   6.393   2.226  17.536 -0.5727  0.2996  1.4370
 4986TIP3    H239154   6.345   2.181  17.399  1.6116 -2.0008  1.3686
 4987TIP3   OH239155   0.075   2.706  17.160 -0.1248  0.2480  0.1672
 4987TIP3    H139156  -0.004   2.679  17.112  0.4807  0.4482 -0.9834
 4987TIP3    H239157   0.130   2.627  17.160 -0.6244 -0.1276  1.6500
 4988TIP3   OH239158   3.012   1.958  18.929  0.7440 -0.0079  0.5287
 4988TIP3    H139159   2.987   2.038  18.882  1.9966 -1.0806 -2.1360
 4988TIP3    H239160   2.939   1.943  18.990  0.0555  2.6409  0.5023
 4989TIP3   OH239161   3.097   7.117  18.830  0.1173 -0.3035 -0.2070
 4989TIP3    H139162   3.006   7.128  18.803 -0.0950 -0.7377  0.3221
 4989TIP3    H239163   3.147   7.117  18.748 -0.4807 -1.2214 -0.5886
 4990TIP3   OH239164   3.398   1.498  17.012  0.0116  0.1862 -0.2947
 4990TIP3    H139165   3.318   1.454  16.985 -1.1910  2.2155 -0.2479
 4990TIP3    H239166   3.428   1.545  16.935  1.4520 -0.8672 -0.4354
 4991TIP3   OH239167   0.927   0.341  19.344 -0.0138 -0.1831 -0.1479
 4991TIP3    H139168   0.983   0.301  19.411  2.4625  1.0901 -1.3072
 4991TIP3    H239169   0.867   0.396  19.394  3.0971  2.3963  1.1833
 4992TIP3   OH239170   4.848   4.818  18.563 -0.0644  0.2246 -0.0571
 4992TIP3    H139171   4.770   4.764  18.572 -0.4428  0.7061 -0.3650
 4992TIP3    H239172   4.817   4.897  18.518  0.0340  1.6344  2.2148
 4993TIP3   OH239173   1.904   1.205  17.988  1.0497 -0.5694  0.0255
 4993TIP3    H139174   1.880   1.297  17.977  2.6872 -0.1655 -0.4534
 4993TIP3    H239175   1.988   1.208  18.035  2.4184 -1.6575 -2.1540
 4994TIP3   OH239176   2.753   2.959  16.845  0.2396 -0.2914  0.1869
 4994TIP3    H139177   2.807   2.964  16.924 -2.5214  0.4210  2.1922
 4994TIP3    H239178   2.680   3.019  16.862 -1.7809 -2.0072 -1.7995
 4995TIP3   OH239179   5.657   3.368  18.569 -0.0891 -0.1862 -0.3672
 4995TIP3    H139180   5.664   3.361  18.473 -1.5740  0.7902 -0.5824
 4995TIP3    H239181   5.597   3.297  18.593 -1.7119  1.0776 -0.5048
 4996TIP3   OH239182   2.520   0.925  17.782  0.2753 -0.0769 -0.0005
 4996TIP3    H139183   2.527   1.005  17.835 -1.5965  0.0093  0.1808
 4996TIP3    H239184   2.475   0.952  17.703  1.2806 -0.6114 -0.7760
 4997TIP3   OH239185   0.693   2.822  17.476  0.3888  0.2467  0.1169
 4997TIP3    H139186   0.656   2.769  17.406  0.7910 -0.6058  0.5354
 4997TIP3    H239187   0.784   2.836  17.451  0.7770 -0.8096  0.8770
 4998TIP3   OH239188   4.827   2.367  19.704 -0.2823  0.1327  0.7162
 4998TIP3    H139189   4.888   2.340  19.635 -1.7892  0.3795 -0.7690
 4998TIP3    H239190   4.837   2.462  19.709 -0.0793  0.1010  0.9497
 4999TIP3   OH239191   7.448   4.854  19.175 -0.3507 -0.1285  0.2388
 4999TIP3    H139192   7.375   4.828  19.232  1.0491 -0.9398  1.7391
 4999TIP3    H239193   7.423   4.822  19.088 -0.8054 -2.4543  1.1434
 5000TIP3   OH239194   3.403   7.030  18.140 -0.2097  0.3554 -0.6467
 5000TIP3    H139195   3.325   7.052  18.090  0.4461 -0.2399 -1.9886
 5000TIP3    H239196   3.475   7.034  18.076  0.3891 -2.3557 -0.2951
 5001TIP3   OH239197   4.808   1.830  19.678  0.0109 -0.1619 -0.4491
 5001TIP3    H139198   4.729   1.775  19.676 -0.9102  1.0897  0.2028
 5001TIP3    H239199   4.777   1.917  19.654  1.3872  0.1571 -1.1327
 5002TIP3   OH239200   1.695   3.581  17.151  0.0675 -0.2540 -0.0915
 5002TIP3    H139201   1.630   3.632  17.199  0.2864  1.2356 -1.2885
 5002TIP3    H239202   1.779   3.612  17.183  0.2017  0.0493 -0.7156
 5003TIP3   OH239203   3.282   5.910  17.677  0.3195 -0.0455  0.0652
 5003TIP3    H139204   3.363   5.957  17.657 -0.2957  0.5003 -1.2624
 5003TIP3    H239205   3.299   5.821  17.649  0.2784  0.1923 -0.7358
 5004TIP3   OH239206   2.826   4.758  17.503  0.8850  0.0040  0.4424
 5004TIP3    H139207   2.818   4.663  17.511  0.4188 -0.0084 -0.1187
 5004TIP3    H239208   2.848   4.773  17.411 -1.9459  0.5838 -0.2314
 5005TIP3   OH239209   2.730   2.141  18.566  0.4236 -0.3881  0.1135
 5005TIP3    H139210   2.778   2.207  18.614  1.3130 -1.2028  0.3748
 5005TIP3    H239211   2.746   2.161  18.473  1.6943 -0.9328  0.1943
 5006TIP3   OH239212   7.509   7.278  18.597  0.3287 -0.3072  0.2271
 5006TIP3    H139213   7.545   7.198  18.636 -0.8401 -1.9169 -1.8182
 5006TIP3    H239214   7.519   7.265  18.502 -3.5843  0.0389 -0.4047
 5007TIP3   OH239215   7.005   4.403  19.203  0.1791  0.2165 -0.2666
 5007TIP3    H139216   6.961   4.330  19.160 -0.5697  0.3704  0.2178
 5007TIP3    H239217   6.941   4.436  19.266  1.7930 -1.0494  2.1779
 5008TIP3   OH239218   0.921   5.600  19.196  0.0037 -0.4774 -0.4163
 5008TIP3    H139219   0.847   5.607  19.136  0.5454  0.0535 -1.0360
 5008TIP3    H239220   0.949   5.690  19.210  0.8010 -0.7044 -0.5257
 5009TIP3   OH239221   6.641   3.747  17.269 -0.0404 -0.1438 -0.1316
 5009TIP3    H139222   6.662   3.837  17.246 -0.1696 -0.4962 -1.7652
 5009TIP3    H239223   6.666   3.739  17.361  1.2157  1.1752 -0.3177
 5010TIP3   OH239224   4.228   7.125  18.972  0.0057  0.1576  0.0843
 5010TIP3    H139225   4.243   7.032  18.989  0.8111  0.2287 -0.1986
 5010TIP3    H239226   4.247   7.136  18.879  0.6240  0.7402  0.2695
 5011TIP3   OH239227   4.058   4.935  18.088  0.3680  0.5694  0.0595
 5011TIP3    H139228   4.012   4.949  18.171  1.2132 -0.9335  0.8190
 5011TIP3    H239229   3.991   4.950  18.021 -0.4761  1.2403  1.0188
 5012TIP3   OH239230   5.366   3.650  18.295  0.3194 -0.2996 -0.2658
 5012TIP3    H139231   5.392   3.742  18.291 -0.2985 -0.1576 -1.0928
 5012TIP3    H239232   5.286   3.650  18.348  1.4802 -0.6388  1.5736
 5013TIP3   OH239233   6.233   1.229  19.276  0.3187  0.2363  0.4859
 5013TIP3    H139234   6.157   1.286  19.290  0.8418  1.1618 -0.2772
 5013TIP3    H239235   6.297   1.260  19.341  0.1178 -0.4341  1.0187
 5014TIP3   OH239236   1.585   2.041  18.202 -0.0053 -0.1808  0.2091
 5014TIP3    H139237   1.604   2.128  18.236 -1.2474  0.1503  0.1123
 5014TIP3    H239238   1.506   2.053  18.148  1.0963 -0.9291 -1.6925
 5015TIP3   OH239239   0.629   1.713  19.151 -0.1819  0.1224 -0.7246
 5015TIP3    H139240   0.687   1.789  19.145  0.0861  0.0090  0.2252
 5015TIP3    H239241   0.603   1.695  19.061  0.8177  0.5198 -1.1054
 5016TIP3   OH239242   4.872   3.967  18.876 -0.7039  0.3857  0.6084
 5016TIP3    H139243   4.780   3.983  18.898 -1.2896 -1.5652 -0.2240
 5016TIP3    H239244   4.916   3.958  18.961 -0.9629  2.6084  1.0475
 5017TIP3   OH239245   2.156   5.171  17.111 -0.3994  0.3685 -0.1888
 5017TIP3    H139246   2.095   5.245  17.102 -0.8455  0.2637  1.6434
 5017TIP3    H239247   2.121   5.119  17.183  1.5240 -0.0239  0.5239
 5018TIP3   OH239248   5.992   0.736  19.400 -0.2238 -0.7160 -0.0113
 5018TIP3    H139249   6.007   0.661  19.342 -0.2472  2.5809 -4.9049
 5018TIP3    H239250   6.080   0.762  19.429  0.2769 -0.3768 -1.6924
 5019TIP3   OH239251   7.534   6.736  17.909 -0.3642  0.0861 -0.5365
 5019TIP3    H139252   7.453   6.687  17.923 -1.0002  1.3216  0.3332
 5019TIP3    H239253   7.541   6.793  17.986  1.7802 -0.5734 -0.1750
 5020TIP3   OH239254   2.814   2.404  18.696 -0.0943  0.4299  0.4738
 5020TIP3    H139255   2.784   2.474  18.754 -2.1446  1.1583 -1.3120
 5020TIP3    H239256   2.866   2.449  18.629  1.5737 -0.2841  1.2566
 5021TIP3   OH239257   5.607   7.607  19.345 -0.3607 -0.2610  0.3603
 5021TIP3    H139258   5.602   7.694  19.303 -2.3589 -1.5362 -2.3781
 5021TIP3    H239259   5.626   7.626  19.437 -2.0795  3.1830  0.1811
 5022TIP3   OH239260   5.404   4.869  18.275 -0.3878 -0.5554 -0.5040
 5022TIP3    H139261   5.432   4.943  18.220 -0.1317 -0.7050 -0.5765
 5022TIP3    H239262   5.316   4.893  18.304  0.4977  0.7984  1.2438
 5023TIP3   OH239263   5.736  -0.016  17.869  0.8262 -0.2763  0.3964
 5023TIP3    H139264   5.692   0.019  17.791  1.4112  0.0516  0.2068
 5023TIP3    H239265   5.700   0.034  17.942  1.2710  0.3526  0.1847
 5024TIP3   OH239266   3.987   4.298  17.586 -0.1784  0.1178  0.5492
 5024TIP3    H139267   3.950   4.226  17.534 -0.2984  1.6738 -1.6480
 5024TIP3    H239268   3.912   4.353  17.607  0.5050  3.4248 -4.1308
 5025TIP3   OH239269   4.373   2.786  18.293 -0.0594  0.2777  0.1802
 5025TIP3    H139270   4.436   2.832  18.236  0.8454  0.2197  1.1071
 5025TIP3    H239271   4.293   2.837  18.285 -0.2160 -0.2038 -1.7882
 5026TIP3   OH239272   3.859   0.634  18.096 -0.2359 -0.1495  0.1625
 5026TIP3    H139273   3.857   0.692  18.171 -1.3510  0.7904 -0.5545
 5026TIP3    H239274   3.766   0.616  18.077  0.0600 -1.5672 -0.0894
 5027TIP3   OH239275   1.257   4.574  19.161  0.0200  0.3576 -0.7091
 5027TIP3    H139276   1.291   4.633  19.228 -1.1065  0.6649 -0.3809
 5027TIP3    H239277   1.240   4.630  19.086 -0.0760  0.2758 -0.7500
 5028TIP3   OH239278   0.470   1.974  18.897  0.1733  0.0269 -0.3619
 5028TIP3    H139279   0.532   1.908  18.867  1.2011  0.9415 -0.3094
 5028TIP3    H239280   0.489   1.986  18.990  1.3741  1.7748 -0.7689
 5029TIP3   OH239281   2.483   3.504  17.608 -0.6157  0.3439 -0.3788
 5029TIP3    H139282   2.470   3.598  17.624  1.1619  0.5672 -0.1245
 5029TIP3    H239283   2.578   3.492  17.610 -0.7373 -1.1838 -2.0593
 5030TIP3   OH239284   5.888   6.772  18.241  1.1133  0.2639 -0.0441
 5030TIP3    H139285   5.811   6.741  18.193  0.6556  1.6774 -0.2911
 5030TIP3    H239286   5.956   6.707  18.225 -0.0668 -1.0973  0.2998
 5031TIP3   OH239287   6.568   5.320  16.931 -0.2632  0.1249  0.5954
 5031TIP3    H139288   6.504   5.285  16.994 -0.7222  1.8644  1.1362
 5031TIP3    H239289   6.630   5.369  16.985 -0.2332  1.0210 -0.2306
 5032TIP3   OH239290   4.141   3.287  17.114 -0.2875  0.0505 -0.0031
 5032TIP3    H139291   4.052   3.272  17.082 -0.1045 -0.0521 -0.4791
 5032TIP3    H239292   4.183   3.337  17.043 -0.0275  0.2703  0.3039
 5033TIP3   OH239293   4.313   2.990  19.445  0.0050 -0.2857  0.1531
 5033TIP3    H139294   4.268   3.074  19.455 -1.8792 -1.4753  2.7175
 5033TIP3    H239295   4.260   2.942  19.382  1.6415  0.6983 -2.0982
 5034TIP3   OH239296   7.640   4.509  18.798 -0.2496 -0.1846 -0.4102
 5034TIP3    H139297   7.630   4.555  18.714 -0.0710  1.1624  0.2780
 5034TIP3    H239298   7.550   4.492  18.826 -0.4003  1.4963  0.2307
 5035TIP3   OH239299   2.550   3.172  16.842 -0.1811 -0.5604 -0.1589
 5035TIP3    H139300   2.541   3.194  16.749 -1.4648  0.6915  0.2148
 5035TIP3    H239301   2.478   3.110  16.859 -0.0081 -0.7137  0.0213
 5036TIP3   OH239302   4.468   0.508  17.914  0.3243 -0.1483 -0.3387
 5036TIP3    H139303   4.384   0.465  17.933  0.2961  0.4552  1.0341
 5036TIP3    H239304   4.446   0.601  17.909  0.9335  0.0327  0.2482
 5037TIP3   OH239305   4.065   1.277  18.606  0.0943 -0.5275 -0.3141
 5037TIP3    H139306   4.093   1.287  18.515  1.2134 -1.9591 -0.1664
 5037TIP3    H239307   3.970   1.261  18.601  0.2382 -1.1356 -1.2804
 5038TIP3   OH239308   1.469   3.183  16.552 -0.4846  0.0068  0.1150
 5038TIP3    H139309   1.435   3.217  16.470  1.2540  0.4303 -0.4867
 5038TIP3    H239310   1.396   3.135  16.591 -1.6718  0.7459 -1.1291
 5039TIP3   OH239311   3.702   0.237  18.014  0.2558  0.1604 -0.3840
 5039TIP3    H139312   3.647   0.311  18.039 -1.1613  0.3419 -3.5697
 5039TIP3    H239313   3.640   0.167  17.995  1.3898 -0.8344 -0.5222
 5040TIP3   OH239314   6.220   5.433  17.756 -0.2439 -0.4912 -0.1692
 5040TIP3    H139315   6.283   5.380  17.806  0.0242 -1.1262 -1.1484
 5040TIP3    H239316   6.254   5.432  17.666 -0.8190  0.4730 -0.4076
 5041TIP3   OH239317   6.976   7.585  19.100 -0.6063  0.6764  0.8489
 5041TIP3    H139318   7.002   7.676  19.085 -0.3397  0.8031  1.9693
 5041TIP3    H239319   6.937   7.557  19.018  2.0681  0.8285 -0.5736
 5042TIP3   OH239320   6.743   1.597  18.891  0.8974 -0.4149  0.1032
 5042TIP3    H139321   6.672   1.540  18.922  1.6898 -2.4838 -1.6180
 5042TIP3    H239322   6.817   1.538  18.878  2.1324  1.2338 -0.7270
 5043TIP3   OH239323   1.871   5.500  17.604  0.1645 -0.5542 -0.0135
 5043TIP3    H139324   1.835   5.462  17.684  0.8896 -0.7706  0.2128
 5043TIP3    H239325   1.845   5.592  17.608  3.1967  0.3344  2.3067
 5044TIP3   OH239326   1.929   2.679  18.456 -0.1201 -0.2460  0.1061
 5044TIP3    H139327   1.872   2.657  18.530 -0.3483  0.8611  0.2800
 5044TIP3    H239328   1.876   2.662  18.379 -0.6253  0.5667  0.2622
 5045TIP3   OH239329   5.528   6.821  17.149 -0.4319 -0.0663 -0.0876
 5045TIP3    H139330   5.442   6.804  17.188 -0.0674  1.8216  1.6693
 5045TIP3    H239331   5.579   6.862  17.219  1.7510 -0.6300 -1.2525
 5046TIP3   OH239332   1.379   0.323  19.408 -0.2759  0.2844  0.4764
 5046TIP3    H139333   1.389   0.377  19.330  0.3370 -2.7208 -1.6911
 5046TIP3    H239334   1.468   0.301  19.434 -0.5311 -0.5266  0.6870
 5047TIP3   OH239335   5.003   3.820  18.249  0.2985  0.2160 -0.5744
 5047TIP3    H139336   5.081   3.778  18.285  0.3170  1.7229  1.2852
 5047TIP3    H239337   4.978   3.765  18.174  1.3316 -2.0445  0.6626
 5048TIP3   OH239338   7.621   5.730  18.441 -0.1622 -0.3178 -0.2058
 5048TIP3    H139339   7.648   5.638  18.436  0.0120 -0.3064  0.4186
 5048TIP3    H239340   7.536   5.728  18.485 -0.9775 -0.3113 -1.7374
 5049TIP3   OH239341   3.730   2.495  17.818 -0.1852  0.5466 -0.0172
 5049TIP3    H139342   3.753   2.440  17.743  0.1069  0.3706  0.2007
 5049TIP3    H239343   3.655   2.451  17.857 -0.7253  0.9678 -0.5597
 5050TIP3   OH239344   5.830   2.843  19.232  0.3302  0.0854 -0.0258
 5050TIP3    H139345   5.863   2.804  19.151  0.0225 -0.5173  0.1361
 5050TIP3    H239346   5.903   2.895  19.265  0.1071  1.2611 -1.2635
 5051TIP3   OH239347   0.758   1.055  19.300 -0.1314  0.4000 -0.4044
 5051TIP3    H139348   0.723   1.036  19.212  1.1205 -1.2479 -0.5940
 5051TIP3    H239349   0.713   1.135  19.326 -0.7592  0.7871 -2.4343
 5052TIP3   OH239350   2.257   2.501  18.288 -0.0256 -0.0270  0.1416
 5052TIP3    H139351   2.339   2.456  18.269 -0.4503 -1.5252  1.6489
 5052TIP3    H239352   2.262   2.583  18.238  1.0647 -1.4084 -2.1404
 5053TIP3   OH239353   0.787   5.815  18.112 -0.4854  0.2649 -0.4868
 5053TIP3    H139354   0.805   5.802  18.019  0.0857  0.2583 -0.3847
 5053TIP3    H239355   0.749   5.903  18.118  1.3818  1.1279 -0.5181
 5054TIP3   OH239356   4.502   7.243  18.791  0.4113  0.3311 -0.5524
 5054TIP3    H139357   4.516   7.240  18.886 -0.1687  2.3892 -0.3471
 5054TIP3    H239358   4.569   7.303  18.759  2.6584 -2.6949 -1.9802
 5055TIP3   OH239359   3.297   6.555  18.345 -0.0399  0.1256  0.4017
 5055TIP3    H139360   3.218   6.590  18.303  0.5974  0.8300 -0.2227
 5055TIP3    H239361   3.312   6.471  18.302  0.8267  1.0114 -1.0841
 5056TIP3   OH239362   2.210   4.096  19.055  0.5960 -0.6577  0.0753
 5056TIP3    H139363   2.233   4.004  19.042 -1.2077 -1.0347 -0.7307
 5056TIP3    H239364   2.188   4.129  18.968  1.7867  0.7379  0.2556
 5057TIP3   OH239365   4.016   7.226  18.273  0.1060  0.2231  0.0695
 5057TIP3    H139366   3.998   7.161  18.206 -1.8245 -2.1132  2.6441
 5057TIP3    H239367   3.949   7.294  18.260 -0.2772 -0.2307 -0.3463
 5058TIP3   OH239368   6.188   3.018  18.208  0.3788  0.6729 -0.4191
 5058TIP3    H139369   6.220   3.016  18.298 -0.5237 -1.5948 -0.0736
 5058TIP3    H239370   6.262   3.051  18.156  1.8137 -0.4702  0.8264
 5059TIP3   OH239371   5.632   2.419  19.151 -0.0245  0.3520  0.2635
 5059TIP3    H139372   5.715   2.383  19.182  0.2237  0.2745 -0.4693
 5059TIP3    H239373   5.621   2.382  19.063  0.4020  2.3091 -0.6683
 5060TIP3   OH239374   1.780   5.085  17.673  0.0284 -0.5323  0.0924
 5060TIP3    H139375   1.728   5.125  17.602  2.2449 -0.4374 -1.5841
 5060TIP3    H239376   1.870   5.110  17.653  0.7121 -0.1175  3.2795
 5061TIP3   OH239377   3.693   0.375  17.173  0.5018  0.1928  0.2635
 5061TIP3    H139378   3.693   0.404  17.081  1.7298  0.7660  0.4188
 5061TIP3    H239379   3.634   0.299  17.175  0.7366 -0.0447 -1.0653
 5062TIP3   OH239380   4.457   6.576  18.902 -0.0305 -0.2413 -0.5636
 5062TIP3    H139381   4.454   6.480  18.911 -1.3559 -0.1428  0.3348
 5062TIP3    H239382   4.535   6.602  18.949  1.7916 -1.0450 -2.9200
 5063TIP3   OH239383   5.106   0.133  17.018 -0.1428  0.2709  0.2605
 5063TIP3    H139384   5.037   0.154  16.954  0.4512  0.4867 -0.3262
 5063TIP3    H239385   5.082   0.047  17.052 -0.3776  0.0717 -0.3900
 5064TIP3   OH239386   7.394   0.481  19.088  0.0713  0.7275  0.3312
 5064TIP3    H139387   7.404   0.574  19.066 -0.0661  0.3970 -1.2832
 5064TIP3    H239388   7.336   0.447  19.020  0.1159 -0.5553  0.9079
 5065TIP3   OH239389   4.018   4.894  17.463 -0.3760  0.8136  0.2573
 5065TIP3    H139390   4.103   4.876  17.423 -0.4319  0.1939  0.3949
 5065TIP3    H239391   4.031   4.974  17.513  0.1435  0.6906  0.3278
 5066TIP3   OH239392   7.583   4.682  18.346 -0.1504 -0.1153 -0.4076
 5066TIP3    H139393   7.543   4.712  18.264 -1.4332 -0.2140  0.1639
 5066TIP3    H239394   7.632   4.603  18.321 -1.5582 -0.8753 -0.8645
 5067TIP3   OH239395   3.384   1.326  18.211  0.6489 -0.0098 -0.3089
 5067TIP3    H139396   3.360   1.381  18.137 -1.1412 -1.6508 -1.0366
 5067TIP3    H239397   3.314   1.260  18.216  1.9462 -1.3640  1.3722
 5068TIP3   OH239398   6.433   4.512  18.470  0.2698 -0.3231  0.8043
 5068TIP3    H139399   6.520   4.513  18.430 -0.7782  0.7433 -1.6786
 5068TIP3    H239400   6.380   4.460  18.410 -0.9558 -0.4287  1.9350
 5069TIP3   OH239401   5.886   5.270  19.071  0.0648 -0.4369 -0.6308
 5069TIP3    H139402   5.912   5.354  19.035 -0.5198  0.9488  1.8885
 5069TIP3    H239403   5.791   5.278  19.085  0.1355 -1.1544  0.4302
 5070TIP3   OH239404   2.195   3.822  17.802 -0.1722 -0.5790 -0.4094
 5070TIP3    H139405   2.131   3.797  17.735  0.8379 -1.2712 -1.1440
 5070TIP3    H239406   2.280   3.807  17.761  0.4705 -0.6213  0.8900
 5071TIP3   OH239407   1.302   1.384  19.373 -0.1093  0.0292 -0.1894
 5071TIP3    H139408   1.268   1.429  19.450  2.2575 -0.7509  1.4299
 5071TIP3    H239409   1.285   1.444  19.301  0.4362  2.2867  1.4517
 5072TIP3   OH239410   0.308   2.734  18.163  0.0696 -0.7040  0.6535
 5072TIP3    H139411   0.326   2.643  18.140  1.8486  0.1264 -1.5535
 5072TIP3    H239412   0.232   2.757  18.110 -2.0621 -1.5317  3.1194
 5073TIP3   OH239413   0.977   1.383  17.352 -0.4154  0.1260 -0.5748
 5073TIP3    H139414   1.057   1.436  17.341 -0.3923  0.3484  0.5563
 5073TIP3    H239415   0.980   1.320  17.280 -0.2641  1.4379 -1.7604
 5074TIP3   OH239416   0.157   4.660  18.921  0.1450  0.5444 -0.2881
 5074TIP3    H139417   0.102   4.707  18.984 -0.7264 -0.1712 -0.4824
 5074TIP3    H239418   0.099   4.593  18.885  1.4561 -0.9791  0.3239
 5075TIP3   OH239419   3.566   6.047  19.443  0.4691  0.6539  0.5792
 5075TIP3    H139420   3.595   6.030  19.532  0.7147 -0.4022  0.3188
 5075TIP3    H239421   3.574   6.142  19.432  0.6006  0.7717  1.6159
 5076TIP3   OH239422   5.843   5.742  16.963 -0.0510  0.0467  0.2863
 5076TIP3    H139423   5.816   5.663  17.008 -0.0328  0.0414  0.2883
 5076TIP3    H239424   5.768   5.767  16.909 -0.2676  0.3505  0.7213
 5077TIP3   OH239425   0.420   5.725  17.496 -0.2748  0.2426  0.8479
 5077TIP3    H139426   0.361   5.793  17.529  0.2093  1.3790 -0.5224
 5077TIP3    H239427   0.363   5.651  17.476 -1.4503  1.6123 -1.2664
 5078TIP3   OH239428   3.367   6.141  18.450  0.0763  0.6756 -0.6114
 5078TIP3    H139429   3.411   6.165  18.532  0.2537  0.4614 -0.6431
 5078TIP3    H239430   3.275   6.160  18.466  0.1250  0.7418 -0.4008
 5079TIP3   OH239431   1.632   0.116  18.482 -0.6464  0.0105 -0.5295
 5079TIP3    H139432   1.540   0.137  18.465 -0.1356  0.5252 -2.9780
 5079TIP3    H239433   1.681   0.172  18.421  1.2929 -0.4608  0.5208
 5080TIP3   OH239434   4.038   4.381  17.850 -0.5584 -0.3721  0.5695
 5080TIP3    H139435   4.025   4.344  17.762  0.9199 -0.8411  0.5269
 5080TIP3    H239436   4.132   4.393  17.858 -0.8679  4.1918  0.2822
 5081TIP3   OH239437   1.186   1.023  17.398 -0.4956  0.2319  0.6098
 5081TIP3    H139438   1.211   0.936  17.369 -2.1205 -0.0627 -0.0366
 5081TIP3    H239439   1.202   1.079  17.322 -1.7348  0.0301  0.1678
 5082TIP3   OH239440   0.020   4.770  19.160 -0.2560  0.3887  0.2323
 5082TIP3    H139441   0.022   4.693  19.218  0.2787 -0.2485 -0.6118
 5082TIP3    H239442  -0.063   4.813  19.181  0.1240  0.4148  1.7746
 5083TIP3   OH239443   3.396   7.501  18.129 -0.0182  0.2682 -0.5485
 5083TIP3    H139444   3.416   7.592  18.110 -1.1087  0.7778  0.5556
 5083TIP3    H239445   3.474   7.452  18.102  0.6248  1.5255 -1.0417
 5084TIP3   OH239446   6.788   4.758  18.960 -0.2734  0.1004  0.1286
 5084TIP3    H139447   6.707   4.794  18.925 -1.3221 -1.7841  0.4919
 5084TIP3    H239448   6.780   4.663  18.948  1.9646 -0.1376  0.0012
 5085TIP3   OH239449   1.919   4.867  19.247  0.4564  0.6304 -0.0654
 5085TIP3    H139450   1.832   4.904  19.232  0.5144  0.6016 -0.4843
 5085TIP3    H239451   1.970   4.893  19.170  0.5155 -0.2595 -0.3427
 5086TIP3   OH239452   0.597   7.470  18.938 -0.5636 -0.8836  0.2422
 5086TIP3    H139453   0.590   7.543  18.876 -0.5225 -0.0730  1.1773
 5086TIP3    H239454   0.691   7.456  18.950 -0.5656 -1.4109 -0.2871
 5087TIP3   OH239455   4.913   0.798  19.519  0.0563 -0.4720  0.1085
 5087TIP3    H139456   5.009   0.792  19.526 -0.1155 -3.0706  1.5446
 5087TIP3    H239457   4.883   0.707  19.525 -2.6692  0.4173  3.2723
 5088TIP3   OH239458   7.670   3.735  18.461 -0.4737 -0.8325  0.1555
 5088TIP3    H139459   7.620   3.655  18.445 -0.9025  0.0334 -3.7492
 5088TIP3    H239460   7.761   3.708  18.459 -0.6402 -1.3733 -0.1512
 5089TIP3   OH239461   2.880   0.450  17.518 -0.7564 -0.0395 -0.2225
 5089TIP3    H139462   2.863   0.412  17.604 -0.6491  1.8421  0.6611
 5089TIP3    H239463   2.807   0.509  17.502 -0.2498  0.4003 -0.9754
 5090TIP3   OH239464   7.350   5.354  19.626 -0.3464 -0.4561  0.1207
 5090TIP3    H139465   7.397   5.283  19.670 -0.9924 -0.9034  0.1163
 5090TIP3    H239466   7.415   5.396  19.570  0.3613 -0.1965  1.1218
 5091TIP3   OH239467   7.131   2.137  18.911 -0.1945  1.1950 -0.8363
 5091TIP3    H139468   7.048   2.093  18.892  0.9086 -0.7887 -1.3608
 5091TIP3    H239469   7.122   2.167  19.002 -0.7335 -0.8375 -0.1793
 5092TIP3   OH239470   3.228   2.108  18.833  0.3567 -0.0048 -0.4515
 5092TIP3    H139471   3.205   2.025  18.873 -0.6975  0.9591  1.0259
 5092TIP3    H239472   3.311   2.091  18.788 -0.5589 -2.1972 -1.4360
 5093TIP3   OH239473   1.889   0.786  17.533 -0.0756  0.2897 -0.0284
 5093TIP3    H139474   1.973   0.826  17.555  0.7920 -1.8795  0.8920
 5093TIP3    H239475   1.876   0.719  17.601 -0.8625 -1.7361 -2.0592
 5094TIP3   OH239476   5.735   5.043  17.889 -0.2310  0.0145 -0.2221
 5094TIP3    H139477   5.655   4.994  17.874 -0.5719  0.9418 -1.6949
 5094TIP3    H239478   5.712   5.108  17.955 -0.0592 -1.0960  0.9674
 5095TIP3   OH239479   6.614   2.321  17.980 -0.0015 -0.3224  0.4783
 5095TIP3    H139480   6.701   2.337  18.016  1.2602 -0.7412 -2.1705
 5095TIP3    H239481   6.592   2.403  17.935 -0.6642 -0.4583  0.5497
 5096TIP3   OH239482   1.615   5.155  19.286  0.1086 -0.0523  0.0905
 5096TIP3    H139483   1.642   5.067  19.312 -0.5803 -0.2356  0.2022
 5096TIP3    H239484   1.586   5.146  19.195  1.9665  0.4759 -0.5998
 5097TIP3   OH239485   5.480   1.284  17.762 -0.3237  0.2549  0.5117
 5097TIP3    H139486   5.534   1.272  17.840 -1.4650  2.4138  1.7705
 5097TIP3    H239487   5.536   1.261  17.689  1.3147 -0.3581  1.9012
 5098TIP3   OH239488   1.758   4.020  17.200  0.1238 -0.1863  0.6582
 5098TIP3    H139489   1.812   3.975  17.135  0.2019  0.0482  0.5603
 5098TIP3    H239490   1.675   4.036  17.155  1.1575  2.7019 -0.4708
 5099TIP3   OH239491   2.382   4.097  17.490  0.2099  0.3580 -0.3700
 5099TIP3    H139492   2.365   4.012  17.450 -1.6598  0.7073 -0.3965
 5099TIP3    H239493   2.365   4.161  17.421 -0.7633  0.8555  0.3002
 5100TIP3   OH239494   5.091   4.209  17.482  0.2572  0.3600 -0.5971
 5100TIP3    H139495   5.158   4.277  17.484 -2.5743  3.4376  1.8176
 5100TIP3    H239496   5.029   4.239  17.415  0.0303 -1.1080 -1.0840
 5101TIP3   OH239497   2.577   2.601  17.873  0.1311  0.3457  0.4708
 5101TIP3    H139498   2.646   2.583  17.937  1.2662 -0.1790 -0.8495
 5101TIP3    H239499   2.555   2.515  17.837 -0.8962  0.5705  0.5578
 5102TIP3   OH239500   3.530   6.276  18.043  0.2040 -0.6024 -0.3584
 5102TIP3    H139501   3.580   6.351  18.010 -1.5343  0.7188 -0.1477
 5102TIP3    H239502   3.584   6.200  18.021  0.7747  0.4576 -3.0517
 5103TIP3   OH239503   7.591   2.292  17.969  0.1080  0.0637  0.2388
 5103TIP3    H139504   7.586   2.378  18.010  0.3567  0.6502 -0.9189
 5103TIP3    H239505   7.627   2.235  18.037  3.1518  1.5657  0.0744
 5104TIP3   OH239506   6.659   6.500  19.156  0.2368  0.1173  0.3221
 5104TIP3    H139507   6.643   6.523  19.247 -0.7619  2.3136 -0.3467
 5104TIP3    H239508   6.604   6.424  19.140 -0.8311  0.6994  1.1327
 5105TIP3   OH239509   4.662   2.705  17.024  0.4699  0.0261 -0.2341
 5105TIP3    H139510   4.650   2.736  16.934 -3.2383 -0.7812 -0.1686
 5105TIP3    H239511   4.679   2.611  17.015  2.1775  0.2739 -0.0685
 5106TIP3   OH239512   4.739   3.943  16.801 -0.0216 -0.4922 -0.3708
 5106TIP3    H139513   4.756   3.897  16.882  0.2915 -2.6987 -1.6137
 5106TIP3    H239514   4.822   3.941  16.754  0.3020  2.2970 -0.0926
 5107TIP3   OH239515   2.778   6.368  17.976 -0.8029 -0.0670  0.1404
 5107TIP3    H139516   2.785   6.432  18.047  1.1548  0.3702 -0.4020
 5107TIP3    H239517   2.683   6.356  17.965 -1.2179  2.0749  0.8448
 5108TIP3   OH239518   0.419   1.426  18.637 -0.0597 -0.2682  0.0762
 5108TIP3    H139519   0.418   1.505  18.583  1.6166  0.2276  0.7089
 5108TIP3    H239520   0.512   1.409  18.653 -0.4522 -1.3925  1.3764
 5109TIP3   OH239521   2.389   5.006  18.159 -0.5009 -0.4632 -0.0070
 5109TIP3    H139522   2.415   4.954  18.082  1.6090  0.4861 -0.0118
 5109TIP3    H239523   2.421   4.956  18.234 -1.0807 -0.5902  0.1544
 5110TIP3   OH239524   5.675   6.649  17.770 -0.2747 -0.2329  0.0558
 5110TIP3    H139525   5.591   6.651  17.725  0.9733 -0.6938 -2.4806
 5110TIP3    H239526   5.727   6.717  17.726  1.4473 -1.6053 -0.1462
 5111TIP3   OH239527   5.677   3.821  19.487  0.2867  0.3087  0.2109
 5111TIP3    H139528   5.599   3.773  19.515  0.4035  0.9509  1.7440
 5111TIP3    H239529   5.724   3.760  19.430 -1.0923 -0.2465 -0.3743
 5112TIP3   OH239530   3.341   3.356  18.094  0.3390  0.1721  0.2105
 5112TIP3    H139531   3.327   3.295  18.021 -0.4687  2.6259 -1.8321
 5112TIP3    H239532   3.314   3.307  18.171 -1.1338 -1.7757 -1.4129
 5113TIP3   OH239533   2.479   7.136  18.194 -0.5208 -0.3703  0.3991
 5113TIP3    H139534   2.458   7.222  18.159 -0.9415 -1.3406 -1.8956
 5113TIP3    H239535   2.575   7.131  18.192 -0.5304 -0.5984 -1.2892
 5114TIP3   OH239536   0.934   4.039  16.994 -0.1859  0.2852 -0.1726
 5114TIP3    H139537   0.846   4.073  17.013 -0.5152 -0.9501  0.6440
 5114TIP3    H239538   0.923   3.944  16.992  1.0949  0.1197 -0.3054
 5115TIP3   OH239539   4.741   2.719  16.598  0.1725  0.7654  0.1675
 5115TIP3    H139540   4.662   2.734  16.649  1.4484 -0.9897  2.8749
 5115TIP3    H239541   4.734   2.628  16.569  1.0253  0.6988  0.1430
 5116TIP3   OH239542   7.162   6.447  18.087 -0.3552  0.3326  0.0974
 5116TIP3    H139543   7.124   6.534  18.096  0.0372  0.8000 -2.1492
 5116TIP3    H239544   7.234   6.445  18.151  0.4758  2.1916 -0.7145
 5117TIP3   OH239545   5.491   3.252  17.788 -0.2663 -0.0615 -0.6696
 5117TIP3    H139546   5.399   3.253  17.766 -0.9011 -0.3504  1.6415
 5117TIP3    H239547   5.508   3.340  17.824 -0.0140 -0.4333  0.1520
 5118TIP3   OH239548   1.563   5.216  17.033  0.3707 -0.0880  0.0909
 5118TIP3    H139549   1.613   5.266  17.096  0.4986  0.1318 -0.1829
 5118TIP3    H239550   1.628   5.168  16.982  0.7404  3.1170 -2.8563
 5119TIP3   OH239551   1.837   0.275  17.802  0.0709  0.6726 -0.1349
 5119TIP3    H139552   1.809   0.275  17.711  1.9952 -2.7710 -0.9057
 5119TIP3    H239553   1.932   0.261  17.798  0.1116 -0.2738  2.3824
 5120TIP3   OH239554   6.933   7.484  17.591 -0.3958  0.7708 -0.3801
 5120TIP3    H139555   6.967   7.561  17.636  0.3453  0.3406 -0.1899
 5120TIP3    H239556   6.863   7.518  17.535 -1.4881  1.2859  1.2347
 5121TIP3   OH239557   5.586   5.225  18.089 -0.0515  0.2897  0.2134
 5121TIP3    H139558   5.557   5.280  18.016  0.4852 -0.2431 -0.4168
 5121TIP3    H239559   5.657   5.275  18.129 -0.9464  1.0032  0.9577
 5122TIP3   OH239560   4.066   2.765  17.533  0.2223  0.7047  0.7154
 5122TIP3    H139561   4.152   2.758  17.576  0.4410  0.6595  0.2717
 5122TIP3    H239562   4.040   2.675  17.517 -0.5567  0.6547  2.1154
 5123TIP3   OH239563   1.015   7.107  19.427  0.4344  0.5142 -0.2369
 5123TIP3    H139564   0.943   7.055  19.390  1.5795 -1.4788  0.2020
 5123TIP3    H239565   1.024   7.181  19.367  0.2286 -1.0057 -2.2336
 5124TIP3   OH239566   7.214   0.366  18.869  0.2942  0.4521  0.2043
 5124TIP3    H139567   7.217   0.364  18.773  0.0681 -0.4242  0.2067
 5124TIP3    H239568   7.125   0.395  18.889  0.0578 -0.2080  0.1415
 5125TIP3   OH239569   2.382   2.594  18.778  0.9825 -0.0263  0.3606
 5125TIP3    H139570   2.401   2.506  18.812 -0.1214 -0.3477  0.1695
 5125TIP3    H239571   2.311   2.581  18.716  0.6094  1.0429  0.5429
 5126TIP3   OH239572   2.022   7.340  17.986  0.4497  0.4559 -0.6226
 5126TIP3    H139573   2.090   7.366  17.924 -0.0984  0.8749 -1.0635
 5126TIP3    H239574   2.012   7.245  17.973  1.5587  0.2286  0.0774
 5127TIP3   OH239575   0.829   6.407  18.249  0.2764 -0.2919  0.7718
 5127TIP3    H139576   0.898   6.426  18.185  0.4277 -2.1064  0.3489
 5127TIP3    H239577   0.861   6.330  18.296 -0.8385 -0.2972  1.5403
 5128TIP3   OH239578   2.367   5.753  16.993 -0.7375  0.2201 -0.6059
 5128TIP3    H139579   2.378   5.781  17.084  3.3005 -0.9436 -0.5707
 5128TIP3    H239580   2.384   5.832  16.942 -3.0345  0.8813 -0.4786
 5129TIP3   OH239581   0.899   1.345  18.911  0.1931 -0.5680  0.5119
 5129TIP3    H139582   0.880   1.354  19.004 -0.7787  2.1847  0.1412
 5129TIP3    H239583   0.969   1.280  18.907 -0.0994 -1.1546  3.0865
 5130TIP3   OH239584   5.415   6.075  19.833 -0.1049  0.0495  0.3169
 5130TIP3    H139585   5.392   6.136  19.902 -1.0373  0.1464 -0.0620
 5130TIP3    H239586   5.332   6.057  19.788  0.6199  0.8866 -1.4984
 5131TIP3   OH239587   3.747   0.571  19.222  0.2414  0.4403 -0.6223
 5131TIP3    H139588   3.708   0.659  19.224  0.3024  0.4745 -0.8903
 5131TIP3    H239589   3.779   0.562  19.132  1.6723  0.7772 -0.1724
 5132TIP3   OH239590   5.088   0.616  18.830 -0.6600  0.6352 -0.0607
 5132TIP3    H139591   5.002   0.602  18.790 -0.7307  1.0058 -0.0481
 5132TIP3    H239592   5.090   0.556  18.905 -1.7880  2.1264  1.2369
 5133TIP3   OH239593   1.676   6.434  19.217  0.8422 -0.1492  0.0128
 5133TIP3    H139594   1.645   6.344  19.205 -0.6520  0.2565  0.6411
 5133TIP3    H239595   1.739   6.428  19.289 -2.4541 -0.1417  3.1768
 5134TIP3   OH239596   6.918   2.497  18.791 -0.0522  0.4021  0.1900
 5134TIP3    H139597   6.926   2.522  18.883  0.2068 -0.8202  0.5161
 5134TIP3    H239598   6.864   2.418  18.793  0.9515 -0.3225 -0.5865
 5135TIP3   OH239599   2.166   1.049  19.228 -0.4473 -0.2867  0.1248
 5135TIP3    H139600   2.149   1.137  19.261 -0.1932 -0.2196  0.0735
 5135TIP3    H239601   2.258   1.049  19.203 -0.2893 -0.7430  0.6790
 5136TIP3   OH239602   5.279   5.930  18.156  0.2903 -0.0160 -0.0031
 5136TIP3    H139603   5.361   5.972  18.182  0.3845 -2.0270  3.5838
 5136TIP3    H239604   5.291   5.838  18.178 -3.1842 -0.2685  1.4644
 5137TIP3   OH239605   3.407   3.505  17.722  0.1805 -0.4642 -0.7614
 5137TIP3    H139606   3.368   3.431  17.676  0.2214  1.5055 -4.2955
 5137TIP3    H239607   3.497   3.477  17.740 -0.7529 -2.4767  1.2123
 5138TIP3   OH239608   0.083   0.446  17.570 -0.2365 -0.5806 -0.3730
 5138TIP3    H139609   0.085   0.536  17.536 -0.5506  0.2679  1.7177
 5138TIP3    H239610   0.137   0.449  17.649 -1.6713 -1.8091  0.7021
 5139TIP3   OH239611   5.612   4.015  18.856 -0.2430 -0.0221 -0.5799
 5139TIP3    H139612   5.639   4.046  18.942 -0.9551 -3.0537  0.8926
 5139TIP3    H239613   5.662   4.068  18.794 -0.1348  2.6716  1.6231
 5140TIP3   OH239614   3.322   2.260  17.573 -0.9063 -0.3072  0.8506
 5140TIP3    H139615   3.371   2.198  17.627  0.8439  0.5657  0.3215
 5140TIP3    H239616   3.384   2.329  17.553 -2.0581  0.3296 -0.7492
 5141TIP3   OH239617   7.562   6.898  18.140  0.0654 -0.6116  0.1879
 5141TIP3    H139618   7.490   6.959  18.156  0.4936 -0.2547  0.8048
 5141TIP3    H239619   7.636   6.954  18.115  0.0048 -1.0074 -0.9190
 5142TIP3   OH239620   6.450   7.497  16.846 -0.1759 -0.0424  0.3543
 5142TIP3    H139621   6.463   7.592  16.854 -0.8902 -0.0259  1.5554
 5142TIP3    H239622   6.538   7.460  16.858  0.0030  0.4428  0.5794
 5143TIP3   OH239623   5.943   5.418  18.826 -0.3435  0.4283  0.7406
 5143TIP3    H139624   5.895   5.373  18.756  0.9732  1.8624 -1.1948
 5143TIP3    H239625   5.973   5.499  18.785  2.0142  0.5031  2.4571
 5144TIP3   OH239626   2.784   3.478  17.609 -0.0658  0.0284  0.1366
 5144TIP3    H139627   2.836   3.418  17.556 -1.1532  0.5169 -1.5635
 5144TIP3    H239628   2.800   3.564  17.571 -0.3982  0.5046  1.0273
 5145TIP3   OH239629   7.641   5.019  18.151  0.7853  0.1142 -0.1863
 5145TIP3    H139630   7.569   4.961  18.177 -0.6272  1.8848  0.0660
 5145TIP3    H239631   7.652   5.003  18.058 -1.6361  1.4777 -0.7902
 5146TIP3   OH239632   2.741   1.232  18.005 -1.0214 -0.5427  0.1961
 5146TIP3    H139633   2.677   1.195  17.944 -0.2033 -1.3614 -0.1980
 5146TIP3    H239634   2.761   1.160  18.065 -0.5784 -0.2564  0.3974
 5147TIP3   OH239635   0.314   2.069  18.079 -0.1183  0.7641 -0.4302
 5147TIP3    H139636   0.241   2.090  18.021  1.0253 -0.6898 -2.5181
 5147TIP3    H239637   0.386   2.123  18.048  0.0255  1.3795  0.9137
 5148TIP3   OH239638   5.815   6.333  17.694  0.5660 -0.6543 -0.6433
 5148TIP3    H139639   5.797   6.422  17.725 -0.7550 -0.9303 -0.5660
 5148TIP3    H239640   5.823   6.341  17.599  0.8559 -0.3979 -0.5979
 5149TIP3   OH239641   4.045   0.112  18.720 -0.4781 -0.0253 -0.3663
 5149TIP3    H139642   4.015   0.164  18.795  0.1766 -0.3348  0.1319
 5149TIP3    H239643   4.140   0.128  18.717 -0.4455 -0.2985 -0.9117
 5150TIP3   OH239644   5.573   6.023  17.120 -0.8665  0.5692 -0.7902
 5150TIP3    H139645   5.496   6.061  17.162  0.6261  0.9731  1.8059
 5150TIP3    H239646   5.616   6.097  17.079 -1.2009  0.5660 -1.1503
 5151TIP3   OH239647   6.448   2.005  17.706 -0.0354 -0.0171 -0.0992
 5151TIP3    H139648   6.516   1.981  17.769  0.0192  0.6653  0.1199
 5151TIP3    H239649   6.477   2.090  17.672 -0.1959 -0.2664 -0.8568
 5152TIP3   OH239650   5.371   3.450  18.684  0.0474 -0.6045 -0.3860
 5152TIP3    H139651   5.391   3.526  18.631  2.7989 -0.9250  0.0254
 5152TIP3    H239652   5.362   3.484  18.773  0.6133 -0.6569 -0.3039
 5153TIP3   OH239653   0.031   0.743  18.379  0.7925 -0.2369  0.4030
 5153TIP3    H139654   0.081   0.666  18.354 -0.6847 -0.7038 -1.2988
 5153TIP3    H239655  -0.054   0.709  18.407  0.2122  0.7468 -0.1103
 5154TIP3   OH239656   4.059   0.435  18.674 -0.5492 -0.2845  0.2552
 5154TIP3    H139657   4.031   0.387  18.596  0.6801 -0.4343 -0.1245
 5154TIP3    H239658   4.150   0.407  18.687 -0.1809  1.0675  0.7168
 5155TIP3   OH239659   4.407   5.944  19.040 -0.0164 -0.8555 -0.6755
 5155TIP3    H139660   4.379   5.890  19.113  1.6848 -0.9548 -0.0535
 5155TIP3    H239661   4.448   5.882  18.979 -1.1513 -0.7327 -1.6031
 5156TIP3   OH239662   5.219   6.780  17.844  0.2633  0.3684  0.0768
 5156TIP3    H139663   5.249   6.722  17.914  0.2385  0.5430  0.2332
 5156TIP3    H239664   5.268   6.752  17.767 -0.6435 -0.6853 -0.1423
 5157TIP3   OH239665   5.085   3.693  19.362  0.7030 -0.1172  0.0931
 5157TIP3    H139666   5.122   3.636  19.294  3.4184  2.1500 -0.5258
 5157TIP3    H239667   5.008   3.732  19.321 -0.4872 -2.2830  0.1075
 5158TIP3   OH239668   2.619   0.935  16.975 -0.6701  0.4067  0.1563
 5158TIP3    H139669   2.650   1.012  16.927  0.4581  0.1830  0.4961
 5158TIP3    H239670   2.527   0.926  16.950 -1.3173  2.8311  1.3348
 5159TIP3   OH239671   3.935   5.588  18.312 -0.3940 -0.2389 -0.2134
 5159TIP3    H139672   3.849   5.627  18.326  0.6077  2.4576 -0.9532
 5159TIP3    H239673   3.945   5.582  18.217  0.6394  0.5388 -0.1746
 5160TIP3   OH239674   3.074   3.712  17.636  0.2822  0.0960 -0.4245
 5160TIP3    H139675   3.074   3.793  17.686  0.1950 -0.9197  1.2940
 5160TIP3    H239676   3.117   3.648  17.693  1.7027 -0.7446 -2.3260
 5161TIP3   OH239677   5.745   0.761  17.936  0.2494  0.0282  0.9330
 5161TIP3    H139678   5.823   0.812  17.958 -0.1896  0.0978  2.4402
 5161TIP3    H239679   5.691   0.822  17.885  0.0214  0.8766  2.1519
 5162TIP3   OH239680   1.562   2.234  17.313 -0.3532 -0.6879 -0.0960
 5162TIP3    H139681   1.600   2.322  17.317 -0.9437 -0.4869  1.7539
 5162TIP3    H239682   1.544   2.220  17.220  1.5561  0.3489 -0.6767
 5163TIP3   OH239683   0.338   4.545  17.543  0.0280 -0.4808 -0.5841
 5163TIP3    H139684   0.336   4.461  17.497  1.9244  0.1202 -1.9003
 5163TIP3    H239685   0.320   4.523  17.634  0.6218 -2.3446 -0.8784
 5164TIP3   OH239686   1.360   4.042  18.172 -0.0920  0.0700  0.3063
 5164TIP3    H139687   1.450   4.040  18.205 -0.0338  2.6439  0.5606
 5164TIP3    H239688   1.369   4.063  18.079 -0.4010 -2.3645 -0.3199
 5165TIP3   OH239689   7.297   1.852  18.981  0.2173 -0.0041 -0.2559
 5165TIP3    H139690   7.237   1.778  18.975  0.9480 -0.5425 -1.0869
 5165TIP3    H239691   7.242   1.925  19.010 -0.3625 -1.0357  1.4100
 5166TIP3   OH239692   3.598   5.511  18.572  0.3195  0.2512 -0.1561
 5166TIP3    H139693   3.616   5.596  18.614  0.6311  0.2209 -0.2246
 5166TIP3    H239694   3.511   5.488  18.602  1.6135 -1.1885  2.8869
 5167TIP3   OH239695   1.674  -0.019  17.366  0.6140 -0.6904  0.5402
 5167TIP3    H139696   1.597   0.030  17.335  0.1688  0.1265  2.7521
 5167TIP3    H239697   1.637  -0.097  17.409  0.7831  0.6470  3.3309
 5168TIP3   OH239698   4.942   6.444  18.077  0.1438  0.2082 -0.6129
 5168TIP3    H139699   4.967   6.446  18.169 -0.8477  0.1942 -0.3370
 5168TIP3    H239700   4.873   6.509  18.069  0.8900  0.9179 -1.5593
 5169TIP3   OH239701   4.381   3.450  18.855  0.3627  0.1283 -0.2356
 5169TIP3    H139702   4.362   3.530  18.903  1.0634  1.1703 -1.6179
 5169TIP3    H239703   4.296   3.422  18.821  0.0294 -0.0314  0.7095
 5170TIP3   OH239704   4.967   6.698  17.823  0.2375 -0.7385  0.3174
 5170TIP3    H139705   4.929   6.766  17.879  0.6170 -0.7474  0.5860
 5170TIP3    H239706   5.059   6.695  17.847  0.0506 -1.9867  0.9790
 5171TIP3   OH239707   4.520   3.250  18.425 -0.4169 -0.4423  0.6208
 5171TIP3    H139708   4.506   3.262  18.332  0.8173 -1.2255  0.3067
 5171TIP3    H239709   4.572   3.326  18.451  0.7179 -1.0767  0.2823
 5172TIP3   OH239710   1.109   1.066  17.671  0.1355  0.8612  0.1604
 5172TIP3    H139711   1.147   1.041  17.587  2.1913  0.8637  1.0087
 5172TIP3    H239712   1.037   1.004  17.685  2.1739 -1.7072  0.1072
 5173TIP3   OH239713   0.504   4.794  17.130 -0.1658 -0.5922  0.0045
 5173TIP3    H139714   0.463   4.745  17.058 -1.8498  0.2624  0.3345
 5173TIP3    H239715   0.513   4.883  17.096  0.1583 -0.4557  0.4356
 5174TIP3   OH239716   6.595   5.008  17.137 -0.3312  0.4908 -0.4224
 5174TIP3    H139717   6.522   5.064  17.109 -1.5313 -1.0042 -0.3836
 5174TIP3    H239718   6.622   5.045  17.221 -1.1902  0.9153 -0.3232
 5175TIP3   OH239719   1.944   2.136  16.356  0.0357 -0.3286 -0.4170
 5175TIP3    H139720   2.011   2.069  16.369  0.4501  0.5598  3.0897
 5175TIP3    H239721   1.876   2.115  16.421  0.0375  2.3640  0.5932
 5176TIP3   OH239722   4.514   4.064  18.106 -0.2294 -0.4096  0.0979
 5176TIP3    H139723   4.460   3.988  18.128 -1.0585  0.2593  0.4213
 5176TIP3    H239724   4.456   4.139  18.118 -0.0865  0.1664 -2.2686
 5177TIP3   OH239725   4.767   7.684  18.467 -0.1686 -0.4192 -0.8844
 5177TIP3    H139726   4.813   7.768  18.468 -0.8560 -0.0368 -0.5078
 5177TIP3    H239727   4.812   7.631  18.532 -0.3228 -0.0095 -0.4373
 5178TIP3   OH239728   5.117   7.237  18.088 -0.1713  0.6343 -0.4363
 5178TIP3    H139729   5.031   7.242  18.129  0.0805 -0.6885  0.3184
 5178TIP3    H239730   5.176   7.280  18.150 -0.4006  2.5603 -1.4601
 5179TIP3   OH239731   5.823   4.646  17.015 -0.6100  0.0711  0.0453
 5179TIP3    H139732   5.799   4.605  17.098 -1.3735 -1.6701 -0.9626
 5179TIP3    H239733   5.846   4.572  16.958 -2.5642  0.9444 -2.0448
 5180TIP3   OH239734   4.758   3.977  18.305  0.2254  0.1909 -0.1318
 5180TIP3    H139735   4.710   4.042  18.253  0.3355 -0.1378 -0.6436
 5180TIP3    H239736   4.820   3.938  18.244 -0.2985 -0.8716 -0.0024
 5181TIP3   OH239737   5.966   6.705  17.573 -0.1214 -0.3687 -0.2636
 5181TIP3    H139738   6.026   6.774  17.600  2.1894 -1.5987 -1.8213
 5181TIP3    H239739   5.965   6.644  17.647  0.2145 -0.1185 -0.0515
 5182TIP3   OH239740   3.605   5.581  19.409 -0.3950 -0.0213 -0.0808
 5182TIP3    H139741   3.659   5.643  19.360 -0.5917  2.7677  2.8700
 5182TIP3    H239742   3.667   5.526  19.455 -0.1880 -0.5206 -0.9376
 5183TIP3   OH239743   3.721   1.857  18.346  0.2399 -0.3419  0.4451
 5183TIP3    H139744   3.783   1.925  18.321 -0.6156 -0.7515 -3.3880
 5183TIP3    H239745   3.775   1.787  18.382  1.6243  0.4935  0.0532
 5184TIP3   OH239746   7.591   0.564  17.792  0.4418 -0.1538 -0.2949
 5184TIP3    H139747   7.604   0.615  17.871 -0.8685  0.0882 -0.2151
 5184TIP3    H239748   7.664   0.587  17.735  0.3706  1.1006  0.1070
 5185TIP3   OH239749   3.237   7.445  16.503  0.1197 -0.0845 -0.4008
 5185TIP3    H139750   3.329   7.456  16.527  0.0802 -0.7432  0.0573
 5185TIP3    H239751   3.221   7.516  16.440  0.4932  1.0427  0.7322
 5186TIP3   OH239752   0.623   3.199  17.462 -0.8293  0.2895 -0.4542
 5186TIP3    H139753   0.620   3.107  17.435 -0.9403  0.1184  0.1259
 5186TIP3    H239754   0.546   3.238  17.422 -1.4080 -0.1348  0.2182
 5187TIP3   OH239755   0.591   2.142  17.386  0.7301 -0.3798  0.6028
 5187TIP3    H139756   0.643   2.168  17.309  2.0959 -0.3146  1.5087
 5187TIP3    H239757   0.558   2.055  17.365  1.0364 -0.3331 -0.0954
 5188TIP3   OH239758   2.880   3.934  18.298  0.5718  0.3081 -0.1920
 5188TIP3    H139759   2.933   4.000  18.343  1.3000 -0.4844  0.1373
 5188TIP3    H239760   2.903   3.944  18.205  1.1115  0.1442 -0.0798
 5189TIP3   OH239761   5.456   1.135  19.106  0.1070  0.2070 -0.7603
 5189TIP3    H139762   5.552   1.134  19.096  0.2491  0.7190  0.4017
 5189TIP3    H239763   5.433   1.043  19.119  0.4867  0.1126 -0.7212
 5190TIP3   OH239764   3.631   4.211  17.336  0.0950  0.7350 -0.1832
 5190TIP3    H139765   3.648   4.297  17.375 -0.5600  1.2115 -0.9347
 5190TIP3    H239766   3.709   4.159  17.359  0.5626  1.5618  0.1569
 5191TIP3   OH239767   0.513   3.152  18.106  0.1386  0.2182 -0.2905
 5191TIP3    H139768   0.563   3.138  18.025  0.9860 -1.9135  0.5189
 5191TIP3    H239769   0.566   3.110  18.174 -1.0760  1.0162  1.2105
 5192TIP3   OH239770   5.273   6.584  18.065  0.7556  0.4837  0.2249
 5192TIP3    H139771   5.258   6.496  18.098  1.9863  0.4467  0.7368
 5192TIP3    H239772   5.224   6.641  18.124 -0.3888  0.1347 -0.3565
 5193TIP3   OH239773   1.380   2.941  17.111  0.2410  0.0972  0.4503
 5193TIP3    H139774   1.461   2.989  17.129 -1.0765  2.2087  1.2047
 5193TIP3    H239775   1.396   2.897  17.027  2.5812 -0.6493  1.1944
 5194TIP3   OH239776   7.090   1.110  18.231  0.4169 -0.4109  0.3049
 5194TIP3    H139777   7.090   1.034  18.173  1.5091 -0.1715 -0.0200
 5194TIP3    H239778   7.070   1.184  18.174 -0.9768 -0.4666  0.6781
 5195TIP3   OH239779   0.145   7.014  17.281 -0.2134  0.0782  0.2964
 5195TIP3    H139780   0.209   6.967  17.334  0.5127  0.2669 -0.3968
 5195TIP3    H239781   0.099   6.945  17.233  0.6318  0.0450 -0.4793
 5196TIP3   OH239782   3.297   4.720  17.297  0.5525 -0.6115 -0.8448
 5196TIP3    H139783   3.321   4.675  17.217  0.8208  0.8941 -1.6499
 5196TIP3    H239784   3.235   4.788  17.269 -0.0098 -0.5918  0.3472
 5197TIP3   OH239785   7.461   1.833  16.703  0.3550 -0.5182 -0.4340
 5197TIP3    H139786   7.393   1.773  16.732  0.3125 -0.3085 -0.0864
 5197TIP3    H239787   7.415   1.915  16.685  0.7947  0.3885  2.1524
 5198TIP3   OH239788   0.911   3.484  18.341  0.0815 -0.0048 -0.1440
 5198TIP3    H139789   0.817   3.479  18.321 -0.0547 -1.2975  0.6803
 5198TIP3    H239790   0.917   3.457  18.433  1.4075 -1.4267 -0.6086
 5199TIP3   OH239791   1.079   4.099  18.549 -0.2556  0.0783  0.8164
 5199TIP3    H139792   1.101   4.101  18.456  3.0914 -0.0784  1.4837
 5199TIP3    H239793   1.025   4.177  18.563 -0.0538  0.6019 -1.0771
 5200TIP3   OH239794   4.417   0.883  18.278 -0.6082 -0.3488  0.7881
 5200TIP3    H139795   4.361   0.816  18.317  0.5720 -1.7592  0.1768
 5200TIP3    H239796   4.450   0.933  18.353 -1.3924 -0.5405  1.2739
 5201TIP3   OH239797   1.196   4.927  17.838 -0.2003 -0.1246  0.0858
 5201TIP3    H139798   1.264   4.994  17.841 -0.8274  0.4946  0.7580
 5201TIP3    H239799   1.200   4.893  17.748 -0.0385  0.9974 -0.3516
 5202TIP3   OH239800   4.122   1.756  18.867  0.6359 -0.0790 -0.0600
 5202TIP3    H139801   4.117   1.765  18.772 -1.0448 -0.8817 -0.0925
 5202TIP3    H239802   4.146   1.664  18.881 -0.7854 -0.4230  0.2692
 5203TIP3   OH239803   0.678   4.678  17.690 -0.3291 -0.4344 -0.3525
 5203TIP3    H139804   0.658   4.652  17.780 -0.0932  0.9383  0.1227
 5203TIP3    H239805   0.714   4.766  17.698 -1.5180  0.2386 -1.9186
 5204TIP3   OH239806   1.915   1.247  18.717 -0.6458 -0.6032 -0.4091
 5204TIP3    H139807   1.875   1.309  18.779 -0.0640 -1.1007  0.4844
 5204TIP3    H239808   1.984   1.298  18.674  1.6844 -1.2587  2.2684
 5205TIP3   OH239809   5.988   1.851  16.906  0.3996 -0.4212  0.7226
 5205TIP3    H139810   5.942   1.935  16.896  0.9699 -0.0596  1.0919
 5205TIP3    H239811   5.961   1.800  16.830  0.0922  0.1203  0.4587
 5206TIP3   OH239812   5.250   4.284  19.930  0.5901 -0.3005  0.1285
 5206TIP3    H139813   5.277   4.222  19.862 -1.3499 -0.4051 -0.6178
 5206TIP3    H239814   5.221   4.229  20.003  1.2569 -0.2134  0.4624
 5207TIP3   OH239815   6.504   6.533  19.394 -0.0366  0.4008 -0.2032
 5207TIP3    H139816   6.449   6.459  19.418  2.9371 -2.0009 -0.1125
 5207TIP3    H239817   6.531   6.572  19.477  1.0313 -0.6113 -0.0395
 5208TIP3   OH239818   7.667   2.344  19.479 -0.2199 -0.1731  0.0216
 5208TIP3    H139819   7.707   2.431  19.468 -2.4409  0.7048 -1.9722
 5208TIP3    H239820   7.675   2.304  19.392 -1.5964 -0.8733  0.2089
 5209TIP3   OH239821   2.685   5.832  19.455  0.9292  0.4549  0.0935
 5209TIP3    H139822   2.647   5.790  19.532 -1.2295  3.2675  0.7400
 5209TIP3    H239823   2.648   5.784  19.381 -1.1990  0.8972  0.7942
 5210TIP3   OH239824   4.971  -0.072  18.647 -0.3884 -0.8846 -0.1761
 5210TIP3    H139825   4.986  -0.159  18.684  1.0294 -1.6981 -2.4341
 5210TIP3    H239826   5.044  -0.019  18.679  0.5315 -1.4398 -1.2638
 5211TIP3   OH239827   7.331   5.152  17.105 -0.1362 -0.0027  0.1032
 5211TIP3    H139828   7.327   5.185  17.015 -2.7721  0.4084  0.3067
 5211TIP3    H239829   7.328   5.230  17.160 -1.7834 -0.3446  0.5450
 5212TIP3   OH239830   0.597   4.126  16.992  0.4634 -0.6000 -0.4192
 5212TIP3    H139831   0.596   4.110  16.897  1.8115 -1.4385 -0.3283
 5212TIP3    H239832   0.543   4.056  17.029  1.8366 -1.7385 -0.4384
 5213TIP3   OH239833   1.523   0.932  18.100  0.6254  0.1438  0.3019
 5213TIP3    H139834   1.607   0.948  18.143  0.6775 -0.1394  0.3065
 5213TIP3    H239835   1.527   0.840  18.072  0.6342  0.3471 -0.3885
 5214TIP3   OH239836   0.861   2.269  18.902 -0.3397 -0.7235 -0.0505
 5214TIP3    H139837   0.854   2.285  18.808  0.6665  0.9211  0.1137
 5214TIP3    H239838   0.933   2.207  18.911 -0.0844 -0.4731 -0.3494
 5215TIP3   OH239839   6.738   2.772  18.220 -0.7617 -0.3067  0.1480
 5215TIP3    H139840   6.719   2.864  18.206  0.0921 -0.3080 -1.2260
 5215TIP3    H239841   6.666   2.726  18.176 -1.8175 -0.3425  1.8045
 5216TIP3   OH239842   4.393   5.806  17.623  0.0368 -0.2601  0.2127
 5216TIP3    H139843   4.472   5.751  17.620  0.0139 -0.2876  0.0952
 5216TIP3    H239844   4.344   5.773  17.698 -0.7359 -1.4524 -0.7793
 5217TIP3   OH239845   1.738   4.629  19.538  0.3568 -0.2044  0.5447
 5217TIP3    H139846   1.821   4.601  19.578 -0.2541 -1.9554  0.6558
 5217TIP3    H239847   1.701   4.549  19.501 -0.8631  0.7226 -0.3107
 5218TIP3   OH239848   1.633   0.303  17.004 -0.0164  0.4194 -0.2724
 5218TIP3    H139849   1.542   0.275  16.999 -0.0551  0.3646  0.5838
 5218TIP3    H239850   1.640   0.347  17.089  1.2348 -1.3746  0.6297
 5219TIP3   OH239851   3.683   3.707  17.664  0.1610  0.1380 -0.2707
 5219TIP3    H139852   3.620   3.778  17.655 -1.0600 -1.0130 -1.1256
 5219TIP3    H239853   3.680   3.661  17.580  2.3429  0.1775 -0.4362
 5220TIP3   OH239854   5.817   3.625  19.355  0.6135 -0.0134 -0.0582
 5220TIP3    H139855   5.804   3.584  19.270  2.1129 -1.1803  0.2327
 5220TIP3    H239856   5.801   3.554  19.418  3.2037 -0.2379  0.4610
 5221TIP3   OH239857   6.533   7.530  17.615  0.1610 -0.3201  0.0945
 5221TIP3    H139858   6.547   7.610  17.666 -0.1287  0.9338 -1.7061
 5221TIP3    H239859   6.594   7.537  17.542  0.4540 -2.0045  0.1341
 5222TIP3   OH239860   6.649   2.740  16.885 -0.1834 -0.3385 -0.2881
 5222TIP3    H139861   6.559   2.746  16.853  0.2667  1.8025 -1.3150
 5222TIP3    H239862   6.676   2.651  16.862 -2.0443 -1.0569  0.1394
 5223TIP3   OH239863   0.415   6.034  18.522  0.6894 -0.1442  0.3463
 5223TIP3    H139864   0.451   6.061  18.606 -0.7129  0.2489  0.8447
 5223TIP3    H239865   0.375   5.948  18.539  0.7111 -0.2270 -0.0070
 5224TIP3   OH239866   5.475   0.258  18.697 -0.2220  0.2343  0.1178
 5224TIP3    H139867   5.489   0.205  18.618  0.8534 -0.0723  0.4957
 5224TIP3    H239868   5.467   0.194  18.768  0.9510  0.5390  0.5577
 5225TIP3   OH239869   5.961   3.729  17.589 -0.1517 -0.1352  0.3140
 5225TIP3    H139870   6.040   3.783  17.595 -1.1747  1.6419 -1.0544
 5225TIP3    H239871   5.903   3.778  17.530 -1.5412 -2.2983 -0.2444
 5226TIP3   OH239872   6.394   5.615  18.750 -0.1747 -0.0273  0.0100
 5226TIP3    H139873   6.463   5.680  18.732 -1.6469  1.8056  0.6647
 5226TIP3    H239874   6.439   5.546  18.799  0.9670  1.7327  1.5577
 5227TIP3   OH239875   1.718   0.826  18.525 -0.2191 -0.7124  0.0953
 5227TIP3    H139876   1.709   0.735  18.552 -1.7340 -0.5835  0.1305
 5227TIP3    H239877   1.807   0.850  18.550  0.7814 -2.6349 -1.4081
 5228TIP3   OH239878   5.408   1.834  19.475  0.0134 -0.1743 -0.3217
 5228TIP3    H139879   5.385   1.925  19.453 -1.5631 -0.3808  0.3642
 5228TIP3    H239880   5.490   1.842  19.524 -0.9525  1.0719  1.2042
 5229TIP3   OH239881   7.518   7.317  17.801 -0.4029 -0.2955 -0.5346
 5229TIP3    H139882   7.483   7.355  17.720  1.9068 -3.0685 -3.1311
 5229TIP3    H239883   7.458   7.245  17.821 -0.3973 -0.2781 -0.4571
 5230TIP3   OH239884   6.864   4.233  17.432  0.3192 -0.2597  0.0830
 5230TIP3    H139885   6.812   4.313  17.428 -0.0439 -0.5122 -0.3880
 5230TIP3    H239886   6.892   4.227  17.523  0.2064  0.3132  0.1586
 5231TIP3   OH239887   2.175   3.123  18.073  0.5087  0.3174 -0.6303
 5231TIP3    H139888   2.204   3.090  17.988 -1.3034  0.1621 -1.2397
 5231TIP3    H239889   2.099   3.178  18.052  1.0618  1.6643  0.7437
 5232TIP3   OH239890   6.915   3.892  17.845  0.2931 -0.5344 -0.3620
 5232TIP3    H139891   6.865   3.897  17.763 -0.6593 -2.7818  0.0255
 5232TIP3    H239892   6.904   3.802  17.874  1.4295 -0.0343  1.7616
 5233TIP3   OH239893   4.460   6.018  17.235  0.0881  0.3129 -0.2747
 5233TIP3    H139894   4.459   5.946  17.172  2.1698  0.1114 -0.1570
 5233TIP3    H239895   4.477   6.096  17.182 -1.7302  0.7126 -0.3484
 5234TIP3   OH239896   7.609   6.337  18.101  0.1883  0.0776  0.0475
 5234TIP3    H139897   7.541   6.332  18.034  1.4343  0.7082 -1.3305
 5234TIP3    H239898   7.691   6.344  18.052  1.3733 -1.5601  1.6300
 5235TIP3   OH239899   7.374   2.272  18.834  0.0794  0.9158 -0.3457
 5235TIP3    H139900   7.362   2.304  18.744 -0.5417 -0.5660 -0.8090
 5235TIP3    H239901   7.286   2.249  18.863  0.3586  0.8150  0.4369
 5236TIP3   OH239902   5.484   1.283  18.815  0.6711 -0.1568  0.2939
 5236TIP3    H139903   5.493   1.348  18.884  0.1293  1.2064 -0.8810
 5236TIP3    H239904   5.414   1.225  18.845 -1.5614  2.0827 -0.3064
 5237TIP3   OH239905   4.767   6.310  16.974 -0.5655 -0.2807 -0.6090
 5237TIP3    H139906   4.841   6.360  17.008 -0.9382 -0.3766  0.3787
 5237TIP3    H239907   4.773   6.225  17.018 -2.9189  0.6710  1.8894
 5238TIP3   OH239908   6.010   6.811  17.916  0.0795 -0.3570  0.0502
 5238TIP3    H139909   5.957   6.882  17.879  0.5867 -0.3981 -0.7667
 5238TIP3    H239910   6.083   6.855  17.959 -0.4378 -0.3170  0.9200
 5239TIP3   OH239911   1.317   6.477  17.004 -0.1069 -0.5811  0.3633
 5239TIP3    H139912   1.315   6.514  16.916  0.3425  0.0032  0.5858
 5239TIP3    H239913   1.305   6.553  17.062 -0.9028 -1.0243  0.7940
 5240TIP3   OH239914   7.096   6.591  16.943 -0.5552  0.2090 -0.1135
 5240TIP3    H139915   7.115   6.499  16.961  1.0712  0.5075 -0.0969
 5240TIP3    H239916   7.028   6.614  17.006  1.7644  0.0004  2.7112
 5241TIP3   OH239917   6.528   2.334  19.506 -0.2698 -0.1372  0.2530
 5241TIP3    H139918   6.531   2.375  19.420  0.6746  0.5543  0.5975
 5241TIP3    H239919   6.437   2.309  19.518 -1.3972  3.6121  0.8267
 5242TIP3   OH239920   6.670   6.649  17.789 -0.2594  0.6204 -0.7158
 5242TIP3    H139921   6.738   6.696  17.740 -0.8127  1.1239 -1.0044
 5242TIP3    H239922   6.621   6.718  17.834  0.4189  0.1664  0.8156
 5243TIP3   OH239923   7.145   2.022  17.769  0.4389 -0.1340 -0.3700
 5243TIP3    H139924   7.099   1.968  17.704 -0.0331 -0.6083  0.3461
 5243TIP3    H239925   7.186   1.958  17.828  1.6473  0.2832 -0.7334
 5244TIP3   OH239926   2.179   0.290  18.445  0.2905 -0.1613 -0.5018
 5244TIP3    H139927   2.219   0.281  18.359  0.9372 -0.6783 -0.1584
 5244TIP3    H239928   2.090   0.322  18.428  1.0101  1.4992 -1.2429
 5245TIP3   OH239929   3.686   7.284  17.076 -0.4141 -0.2395  0.2382
 5245TIP3    H139930   3.760   7.327  17.034 -0.1582  0.3243  1.2276
 5245TIP3    H239931   3.691   7.193  17.045 -0.6666  0.2894 -1.4719
 5246TIP3   OH239932   4.638   0.051  16.897 -0.0378  0.0549  0.2429
 5246TIP3    H139933   4.580   0.119  16.931  1.0550 -0.0783  2.5647
 5246TIP3    H239934   4.587   0.007  16.830 -2.2264  0.6537  1.4276
 5247TIP3   OH239935   6.867   4.835  16.728  0.3008  0.2107  0.5137
 5247TIP3    H139936   6.958   4.822  16.754 -0.4241 -2.0341  2.2615
 5247TIP3    H239937   6.835   4.904  16.785  0.7076  0.5682  0.3215
 5248TIP3   OH239938   6.541   7.027  18.175  0.2685 -0.3138 -0.1114
 5248TIP3    H139939   6.461   7.062  18.137 -0.8260 -2.7616 -0.2953
 5248TIP3    H239940   6.611   7.083  18.142 -1.3711  2.1465  0.3913
 5249TIP3   OH239941   2.905   5.296  18.469 -0.2229  0.3698 -0.1296
 5249TIP3    H139942   2.843   5.229  18.498  0.7990  0.3756  2.2203
 5249TIP3    H239943   2.856   5.378  18.475 -0.7799  0.1133 -0.8928
 5250TIP3   OH239944   3.003   0.987  17.003 -0.2140  0.0191  0.2796
 5250TIP3    H139945   3.009   0.927  16.928  0.9645  0.7862 -0.2751
 5250TIP3    H239946   2.975   1.070  16.964  5.2916  1.9741 -0.3858
 5251TIP3   OH239947   3.127   2.411  19.302  0.0767 -0.0510 -0.0289
 5251TIP3    H139948   3.124   2.439  19.210 -0.6001 -1.9543 -0.6288
 5251TIP3    H239949   3.041   2.436  19.337  0.3903  0.8128  0.1520
 5252TIP3   OH239950   2.966   6.710  18.368 -0.1420  0.2469  0.1851
 5252TIP3    H139951   2.936   6.778  18.428 -1.3073 -0.9433  1.0023
 5252TIP3    H239952   3.009   6.758  18.297 -0.5643  1.7971  0.9367
 5253TIP3   OH239953   7.379   0.429  16.809  0.3120  0.4854 -0.3641
 5253TIP3    H139954   7.385   0.524  16.798 -0.0099  0.5472 -0.0291
 5253TIP3    H239955   7.308   0.416  16.872  1.1261  0.0890  0.5175
 5254TIP3   OH239956   3.966   7.516  17.458  0.1287 -0.7025 -0.2490
 5254TIP3    H139957   3.978   7.437  17.404  0.4804 -1.4413  0.8565
 5254TIP3    H239958   4.053   7.556  17.460  0.2250 -0.9214  0.1148
 5255TIP3   OH239959  -0.032   3.483  17.715 -0.2179  0.5895 -0.5575
 5255TIP3    H139960  -0.123   3.506  17.699 -0.4266  0.3728  0.2956
 5255TIP3    H239961  -0.033   3.431  17.795  0.7425  1.2257 -0.1088
 5256TIP3   OH239962   7.003   4.396  18.663  0.0866 -0.1370  0.1416
 5256TIP3    H139963   6.935   4.439  18.613 -1.0607  0.6376  2.2416
 5256TIP3    H239964   6.982   4.303  18.658 -1.7558  0.1527  1.5446
 5257TIP3   OH239965   5.749   4.728  18.739  0.0578  0.4312 -0.1609
 5257TIP3    H139966   5.776   4.658  18.798 -0.5528 -0.6807 -1.1754
 5257TIP3    H239967   5.713   4.796  18.797  0.5297 -0.1322  0.8171
 5258TIP3   OH239968   4.288   5.495  19.477  0.1316  0.3125  0.0358
 5258TIP3    H139969   4.197   5.519  19.464  0.4305  0.8460 -1.1979
 5258TIP3    H239970   4.296   5.408  19.438  0.5550  1.0501 -1.6032
 5259TIP3   OH239971   3.877   1.875  19.359  0.2608 -0.0123 -0.0725
 5259TIP3    H139972   3.881   1.780  19.361  2.6294 -0.0022  3.0020
 5259TIP3    H239973   3.932   1.900  19.285  0.5807 -1.0226 -0.1857
 5260TIP3   OH239974   1.003   7.087  18.008  0.1276 -0.4848  0.0391
 5260TIP3    H139975   1.057   7.163  17.989  3.4302 -1.8744  2.7807
 5260TIP3    H239976   0.941   7.117  18.073 -1.5466  0.7657 -2.0169
 5261TIP3   OH239977   5.962   0.441  17.752  0.3641 -0.1125 -0.3241
 5261TIP3    H139978   5.879   0.438  17.799  0.4173  0.4546 -0.1911
 5261TIP3    H239979   6.026   0.471  17.816  0.3443  1.1758 -0.8703
 5262TIP3   OH239980   1.832   1.960  18.700 -0.0146 -0.2479 -0.0219
 5262TIP3    H139981   1.781   2.001  18.770  2.1407  0.8373  1.0345
 5262TIP3    H239982   1.824   2.020  18.626  1.1358  0.9141  0.7359
 5263TIP3   OH239983   3.058   0.351  18.153  0.6004  0.3318 -0.4483
 5263TIP3    H139984   3.016   0.266  18.166 -1.6341  1.1447 -1.6215
 5263TIP3    H239985   3.076   0.355  18.059 -2.0047  2.1650 -0.9884
 5264TIP3   OH239986   4.606   5.932  17.749  0.2133  0.1283  0.0196
 5264TIP3    H139987   4.607   5.946  17.654  0.4353  0.7445  0.1119
 5264TIP3    H239988   4.556   6.005  17.784  0.4013  0.0775  0.4045
 5265TIP3   OH239989   1.664   6.504  19.650  0.0848 -0.1710 -0.4527
 5265TIP3    H139990   1.721   6.573  19.616  0.4825  0.2676  1.0308
 5265TIP3    H239991   1.591   6.551  19.690  1.2010 -0.4840  2.0842
 5266TIP3   OH239992   2.998   0.784  17.433  0.3496 -0.0489  0.0043
 5266TIP3    H139993   2.989   0.815  17.343  0.9576 -0.0077 -0.0492
 5266TIP3    H239994   3.067   0.839  17.470 -0.2254  0.2536  0.6462
 5267TIP3   OH239995   1.181   1.871  18.241  0.0377  0.4937  0.0991
 5267TIP3    H139996   1.264   1.899  18.281  0.5884  1.3387 -1.5526
 5267TIP3    H239997   1.189   1.775  18.233  0.3066  0.4230  1.0951
 5268TIP3   OH239998   7.390   3.498  17.650  0.1925 -0.4495  0.3082
 5268TIP3    H139999   7.379   3.448  17.570  1.6052 -0.6043  0.1718
 5268TIP3    H240000   7.373   3.589  17.625  1.6600 -0.3555 -0.4585
 5269TIP3   OH240001   7.667   3.359  19.431  0.1421  0.0488  0.1872
 5269TIP3    H140002   7.661   3.454  19.427 -0.9915  0.0072  0.4457
 5269TIP3    H240003   7.624   3.336  19.513 -1.7084 -0.8075 -0.9445
 5270TIP3   OH240004   2.123   5.150  17.824 -0.5629  0.3032  0.2436
 5270TIP3    H140005   2.109   5.142  17.918  2.3278  1.5578  0.8642
 5270TIP3    H240006   2.114   5.243  17.806  0.8989  0.3456 -0.3333
 5271TIP3   OH240007   0.330   1.130  19.239 -0.6773 -0.3007  0.0890
 5271TIP3    H140008   0.311   1.042  19.206 -0.4813 -0.0108 -0.8218
 5271TIP3    H240009   0.394   1.116  19.308  0.2566 -0.7956 -0.8445
 5272TIP3   OH240010   4.616   2.387  18.395 -0.6999  0.0383  0.8469
 5272TIP3    H140011   4.572   2.426  18.319  2.1228  0.6311 -0.6231
 5272TIP3    H240012   4.638   2.462  18.450  0.4391  0.0347  0.4225
 5273TIP3   OH240013   5.511   3.595  19.464 -0.4109 -0.6437  0.0352
 5273TIP3    H140014   5.582   3.538  19.492  0.7949  1.6449  2.0276
 5273TIP3    H240015   5.432   3.555  19.499 -0.1412 -2.9137 -1.7086
 5274TIP3   OH240016   5.410   6.555  18.525 -0.1975 -0.5626  0.4907
 5274TIP3    H140017   5.416   6.619  18.596  0.3356 -1.4204  1.2544
 5274TIP3    H240018   5.317   6.550  18.505 -0.1679  1.0547 -0.1786
 5275TIP3   OH240019   4.953   3.074  18.657  0.0457  0.9794 -0.4782
 5275TIP3    H140020   5.020   3.138  18.680  0.7210 -0.1151  0.7817
 5275TIP3    H240021   4.875   3.126  18.638  0.6824  2.1864  0.1341
 5276TIP3   OH240022   0.204   6.181  17.085  0.1394  0.5826  0.4034
 5276TIP3    H140023   0.241   6.141  17.006  0.7266 -0.0704  0.9954
 5276TIP3    H240024   0.279   6.221  17.129  0.3239 -1.3115  1.9532
 5277TIP3   OH240025   2.596   6.117  18.020  0.0045 -0.3379  0.2409
 5277TIP3    H140026   2.528   6.073  17.968  1.5203 -2.6807  0.1343
 5277TIP3    H240027   2.616   6.056  18.091  3.1098 -0.5152 -0.6418
 5278TIP3   OH240028   4.161   6.117  18.989 -0.7016  0.0358  0.6359
 5278TIP3    H140029   4.181   6.042  19.046  2.6769  0.1328 -0.1804
 5278TIP3    H240030   4.147   6.190  19.050  2.2296  0.0046  1.5130
 5279TIP3   OH240031   7.629   2.929  18.113  0.0354 -0.2090  0.5864
 5279TIP3    H140032   7.704   2.891  18.158  0.9773 -0.2574 -0.9586
 5279TIP3    H240033   7.607   3.007  18.163  0.3012 -0.8675  1.7737
 5280TIP3   OH240034   4.889   6.805  17.160  0.0908  0.0046  0.3010
 5280TIP3    H140035   4.846   6.805  17.246  0.2262  1.5970  0.4120
 5280TIP3    H240036   4.960   6.742  17.169  0.4636  0.5629  1.5826
 5281TIP3   OH240037   3.051   5.591  17.379 -0.2431 -0.2501  0.4147
 5281TIP3    H140038   3.006   5.582  17.463 -0.5899 -1.0791  0.1429
 5281TIP3    H240039   3.125   5.530  17.385 -1.1956 -1.5437 -0.4916
 5282TIP3   OH240040   0.082   3.679  18.127  0.0226  0.1938  0.7447
 5282TIP3    H140041   0.140   3.710  18.058 -0.8613 -0.1616 -0.1809
 5282TIP3    H240042   0.113   3.590  18.146  0.3565  0.3450  0.9207
 5283TIP3   OH240043   3.938   2.113  18.587 -0.4207  0.2179 -0.9273
 5283TIP3    H140044   3.996   2.046  18.550  0.2077  0.0899  0.2546
 5283TIP3    H240045   3.983   2.142  18.666 -1.7465  0.4596 -0.2452
 5284TIP3   OH240046   1.672   2.470  19.080  0.1643  0.2704 -0.5616
 5284TIP3    H140047   1.648   2.526  19.154 -0.6422 -0.1080 -0.5292
 5284TIP3    H240048   1.766   2.456  19.091  0.2289  0.9717 -0.1292
 5285TIP3   OH240049   1.257   7.041  19.507 -0.1243  0.4288  0.0705
 5285TIP3    H140050   1.277   7.096  19.583 -1.6713  0.3579  0.5678
 5285TIP3    H240051   1.167   7.064  19.484 -1.1076 -2.3286  0.7310
 5286TIP3   OH240052   1.030   0.422  18.176  0.2495  0.3404 -0.0840
 5286TIP3    H140053   1.076   0.341  18.199  1.3965  1.0045  0.0212
 5286TIP3    H240054   0.979   0.400  18.098 -2.6097 -1.5830  2.1081
 5287TIP3   OH240055   4.266   7.483  19.082 -0.0763  0.2665  0.8651
 5287TIP3    H140056   4.240   7.527  19.001 -0.8228 -1.8726 -0.1352
 5287TIP3    H240057   4.360   7.498  19.088  0.0550  0.2368 -0.5835
 5288TIP3   OH240058   6.051   1.696  16.465 -0.1743  0.2966 -0.9485
 5288TIP3    H140059   6.119   1.629  16.461  0.8446  1.3345 -2.0111
 5288TIP3    H240060   6.097   1.778  16.448 -1.3247  1.3367  0.5943
 5289TIP3   OH240061   0.624   0.361  19.378 -0.2948 -0.0666 -0.2889
 5289TIP3    H140062   0.543   0.401  19.410 -0.1729  1.2106 -1.5015
 5289TIP3    H240063   0.685   0.434  19.368  0.7804 -0.9105 -0.1230
 5290TIP3   OH240064   3.961   6.696  18.051  0.2470  0.1269  0.0517
 5290TIP3    H140065   3.880   6.715  18.003 -0.9445 -1.9354  1.1507
 5290TIP3    H240066   3.933   6.649  18.129  2.5964 -2.0924 -0.3054
 5291TIP3   OH240067   1.683   1.712  18.613 -1.3822 -0.4998 -0.0800
 5291TIP3    H140068   1.709   1.678  18.527 -1.9905 -0.1546 -0.4076
 5291TIP3    H240069   1.758   1.765  18.641 -1.4709 -0.0134 -0.7288
 5292TIP3   OH240070   0.699   3.455  19.639 -0.4317  0.0353  0.2429
 5292TIP3    H140071   0.753   3.401  19.581 -1.0936 -0.5189  0.1310
 5292TIP3    H240072   0.632   3.395  19.672  0.0982  0.2670  1.8124
 5293TIP3   OH240073   2.569   4.670  19.009 -0.2860 -0.6019 -0.1908
 5293TIP3    H140074   2.500   4.660  19.075 -2.0420  2.2958 -1.3795
 5293TIP3    H240075   2.650   4.652  19.057 -1.6096 -0.5479  2.2518
 5294TIP3   OH240076   4.643   3.653  17.207  1.2433 -0.7166  0.3627
 5294TIP3    H140077   4.607   3.576  17.163 -0.9188  1.0625 -1.1983
 5294TIP3    H240078   4.738   3.645  17.195  0.9212 -1.8791 -1.9861
 5295TIP3   OH240079   1.895   4.682  18.618 -0.4506 -0.1873 -0.0526
 5295TIP3    H140080   1.889   4.590  18.594  1.1262 -0.3226  0.0143
 5295TIP3    H240081   1.813   4.720  18.584 -1.2039 -1.6200  0.0799
 5296TIP3   OH240082   5.553   2.322  17.325  0.0900  0.0258  0.1322
 5296TIP3    H140083   5.593   2.359  17.247 -0.8395  0.4455 -0.1680
 5296TIP3    H240084   5.574   2.229  17.322 -0.5796 -0.1096 -1.0485
 5297TIP3   OH240085   1.090   2.835  17.792  0.0156  0.5878 -0.3642
 5297TIP3    H140086   1.007   2.869  17.758  0.6162 -0.6585 -3.3444
 5297TIP3    H240087   1.137   2.913  17.823 -1.6667  1.4664  0.1224
 5298TIP3   OH240088   1.656   3.099  18.373 -0.3257 -0.2487 -0.1849
 5298TIP3    H140089   1.639   3.008  18.395  1.6053 -0.3832  0.9070
 5298TIP3    H240090   1.737   3.098  18.322 -1.1569  0.7351 -1.6309
 5299TIP3   OH240091   7.567   1.521  16.854 -0.0499  0.2627 -0.1559
 5299TIP3    H140092   7.491   1.545  16.908  0.2562  0.5933  0.1292
 5299TIP3    H240093   7.572   1.426  16.862 -0.9961  0.1281 -0.9289
 5300TIP3   OH240094   3.415   6.318  18.266  0.0955 -0.0334 -0.3381
 5300TIP3    H140095   3.440   6.303  18.175 -2.8179  0.1676 -1.2644
 5300TIP3    H240096   3.413   6.231  18.305 -0.8128 -0.3887 -1.1298
 5301TIP3   OH240097   6.642   1.890  18.863 -1.0193  0.1394 -0.5413
 5301TIP3    H140098   6.668   1.801  18.887  0.3689  0.8414  0.7344
 5301TIP3    H240099   6.601   1.880  18.777 -0.5759 -1.6802 -0.5949
 5302TIP3   OH240100   6.388   1.290  18.083  0.4736  0.2328 -0.3792
 5302TIP3    H140101   6.449   1.230  18.041  1.5916  1.8136 -1.1040
 5302TIP3    H240102   6.354   1.344  18.012 -0.0018  0.9027  0.3385
 5303TIP3   OH240103   6.046   6.234  18.694  0.0177 -0.3760 -0.2279
 5303TIP3    H140104   5.993   6.171  18.646 -2.1876  1.8031 -0.8469
 5303TIP3    H240105   6.097   6.279  18.626  0.3675 -0.3748  0.0317
 5304TIP3   OH240106   5.817   4.962  17.524  0.0943  0.4772 -0.2966
 5304TIP3    H140107   5.800   4.869  17.541 -1.7773  1.2431  2.7848
 5304TIP3    H240108   5.912   4.969  17.521  0.2780 -1.5242 -0.6980
 5305TIP3   OH240109   4.673   6.205  18.755  0.0498 -0.1614  0.1484
 5305TIP3    H140110   4.621   6.230  18.832 -1.0250 -1.1282 -0.2206
 5305TIP3    H240111   4.673   6.283  18.700 -1.4080 -0.2377 -0.0211
 5306TIP3   OH240112   3.354   7.083  19.097  0.6273  0.1169 -0.5020
 5306TIP3    H140113   3.298   7.157  19.073  0.5401 -0.3763 -1.8867
 5306TIP3    H240114   3.292   7.013  19.119  0.7040 -0.0144 -0.7030
 5307TIP3   OH240115   0.881   3.295  19.415 -0.7054 -0.0481 -0.8283
 5307TIP3    H140116   0.919   3.372  19.374 -0.8687 -0.2621 -1.3981
 5307TIP3    H240117   0.793   3.288  19.377 -1.1744  0.2291  0.1963
 5308TIP3   OH240118   3.302   5.643  18.916  0.2421 -0.1618  0.0269
 5308TIP3    H140119   3.380   5.651  18.971  0.5540 -0.7998 -0.3158
 5308TIP3    H240120   3.244   5.712  18.947  0.9337  0.3034  0.2990
 5309TIP3   OH240121   6.360   4.447  17.209 -0.0174  0.1285  0.0810
 5309TIP3    H140122   6.305   4.383  17.255 -1.7956  0.9234 -0.8709
 5309TIP3    H240123   6.374   4.408  17.123  0.9286 -0.0620  0.3140
 5310TIP3   OH240124   1.410   3.838  18.491  0.3876 -0.0512 -0.0425
 5310TIP3    H140125   1.347   3.885  18.545  0.2457  0.3070 -0.5146
 5310TIP3    H240126   1.433   3.761  18.542 -0.6765 -0.3522  0.0020
 5311TIP3   OH240127   2.004   6.865  19.527  0.0146  0.0592  0.3366
 5311TIP3    H140128   2.004   6.954  19.491 -0.3879  0.6526  1.7586
 5311TIP3    H240129   2.088   6.828  19.499 -0.3626  0.3994 -1.3647
 5312TIP3   OH240130   5.207   5.557  19.143  0.5373  0.0253 -0.1429
 5312TIP3    H140131   5.223   5.651  19.144 -0.8353  0.3017 -1.0523
 5312TIP3    H240132   5.112   5.549  19.143  0.6336 -1.3668 -0.0615
 5313TIP3   OH240133   7.286   6.800  18.094 -0.0492  0.4365  0.1568
 5313TIP3    H140134   7.198   6.795  18.133 -1.1421  0.8395 -2.0863
 5313TIP3    H240135   7.314   6.890  18.110 -1.0915  1.0242 -1.1319
 5314TIP3   OH240136   0.282   5.130  17.918  0.0914  0.7727  0.5052
 5314TIP3    H140137   0.365   5.089  17.894 -0.9181 -1.0760 -0.0616
 5314TIP3    H240138   0.266   5.101  18.008 -0.7552 -0.3804  0.0125
 5315TIP3   OH240139   2.063   7.534  18.186  0.7007 -0.4980 -0.4231
 5315TIP3    H140140   2.040   7.483  18.108  0.3193  0.1303 -0.7280
 5315TIP3    H240141   1.981   7.574  18.214  0.8578 -0.6307  0.2433
 5316TIP3   OH240142   0.684   6.448  17.472  0.8564 -0.0619  0.2662
 5316TIP3    H140143   0.617   6.510  17.501  0.3790 -0.6531  0.4378
 5316TIP3    H240144   0.702   6.473  17.381  1.1148  0.7076  0.5130
 5317TIP3   OH240145   4.670   2.304  19.463  0.4434 -0.3972 -0.1873
 5317TIP3    H140146   4.717   2.384  19.483 -0.3309  0.4639 -1.6719
 5317TIP3    H240147   4.577   2.328  19.469  0.1925 -1.3242 -0.1340
 5318TIP3   OH240148   5.924   5.510  19.575  0.1703 -0.4752 -0.4657
 5318TIP3    H140149   5.979   5.553  19.640 -2.3269 -2.8112  3.6327
 5318TIP3    H240150   5.849   5.568  19.564  0.3513 -0.3204 -0.9117
 5319TIP3   OH240151   7.315   5.723  18.171 -0.0786  0.3395  0.5276
 5319TIP3    H140152   7.347   5.787  18.108  0.3548  0.7509  1.1537
 5319TIP3    H240153   7.269   5.658  18.118 -0.2320  0.9844 -0.1476
 5320TIP3   OH240154   6.379   3.501  18.033  0.2207 -0.0256 -0.0644
 5320TIP3    H140155   6.351   3.439  17.965  0.4886 -0.7080  0.4334
 5320TIP3    H240156   6.328   3.476  18.110  1.5318 -0.7105  0.6025
 5321TIP3   OH240157   4.128   3.989  17.235  0.0018 -0.3806  0.0115
 5321TIP3    H140158   4.216   3.992  17.271  0.5003 -0.3375 -1.1506
 5321TIP3    H240159   4.141   4.001  17.140 -1.3170  0.5766 -0.0767
 5322TIP3   OH240160   0.221   3.195  17.143 -0.6822 -0.2746 -0.0769
 5322TIP3    H140161   0.241   3.243  17.062 -1.2783 -0.4061 -0.3057
 5322TIP3    H240162   0.283   3.122  17.143 -0.1215  0.1993  0.0076
 5323TIP3   OH240163   6.016   1.786  17.644 -0.1312  0.4882  0.6832
 5323TIP3    H140164   6.099   1.830  17.622 -0.7080  0.4980 -1.7136
 5323TIP3    H240165   6.007   1.718  17.577 -1.5389 -0.2199  1.5665
 5324TIP3   OH240166   3.428   6.475  16.949  0.2596  0.7124 -0.1926
 5324TIP3    H140167   3.448   6.467  16.856 -1.0693 -1.4608 -0.3381
 5324TIP3    H240168   3.335   6.496  16.952 -0.4937 -2.3429  0.6191
 5325TIP3   OH240169   7.197   4.207  17.807 -0.0649 -0.0404 -0.1330
 5325TIP3    H140170   7.187   4.117  17.838 -0.3751  0.7603  2.2254
 5325TIP3    H240171   7.111   4.246  17.816  0.1026  0.5622 -0.9943
 5326TIP3   OH240172   7.595   0.360  16.951  0.5594  0.1675  0.1507
 5326TIP3    H140173   7.582   0.269  16.978  0.1181 -0.2931 -1.5112
 5326TIP3    H240174   7.526   0.376  16.887 -1.0695  2.5445  2.3205
 5327TIP3   OH240175   5.864   1.823  19.337 -0.1732  0.3133 -0.1237
 5327TIP3    H140176   5.859   1.740  19.289 -2.1128 -0.5166  1.4087
 5327TIP3    H240177   5.896   1.799  19.424 -0.0718  1.2860  0.1247
 5328TIP3   OH240178   3.925   3.542  18.285  0.3835 -0.5792 -0.2752
 5328TIP3    H140179   4.015   3.531  18.253  1.3094  0.6297  1.7865
 5328TIP3    H240180   3.872   3.538  18.205  2.2971 -0.7183 -1.6244
 5329TIP3   OH240181   1.477   3.848  19.590 -0.1848  0.4015  0.1686
 5329TIP3    H140182   1.480   3.824  19.497  0.1775 -0.2401  0.3315
 5329TIP3    H240183   1.569   3.859  19.614 -0.2235 -0.2284  0.6368
 5330TIP3   OH240184   2.415   3.869  18.561  0.2691 -0.0435  0.2022
 5330TIP3    H140185   2.446   3.943  18.509  1.4076  0.7806  1.9617
 5330TIP3    H240186   2.451   3.792  18.517  1.1361  0.6134 -0.2809
 5331TIP3   OH240187   1.246   1.572  18.218  0.1496 -0.5673 -0.3310
 5331TIP3    H140188   1.290   1.508  18.274 -1.1934 -1.5975 -0.4098
 5331TIP3    H240189   1.179   1.522  18.172 -1.8516  1.1252  0.5826
 5332TIP3   OH240190   1.106   1.426  17.991  0.3133 -0.0107  0.1166
 5332TIP3    H140191   1.016   1.444  17.967 -0.8967 -2.2870  2.4480
 5332TIP3    H240192   1.141   1.375  17.919 -0.3572  0.6076 -0.6582
 5333TIP3   OH240193   5.530   3.131  18.900 -0.5828  0.2271 -0.0976
 5333TIP3    H140194   5.493   3.160  18.817  1.6147  0.8831 -0.9250
 5333TIP3    H240195   5.561   3.041  18.883  1.1212  0.8438 -0.4828
 5334TIP3   OH240196   5.612   3.915  17.150  0.0135  0.7547 -0.1060
 5334TIP3    H140197   5.639   3.924  17.241  2.0501  0.6298 -0.6605
 5334TIP3    H240198   5.562   3.995  17.131 -0.6206  0.6735  1.1552
 5335TIP3   OH240199   1.027   7.177  18.455 -0.1480  0.0484 -0.1030
 5335TIP3    H140200   1.096   7.118  18.425  0.1982  0.4526 -0.1245
 5335TIP3    H240201   1.057   7.264  18.428 -0.3289  0.3054  0.5107
 5336TIP3   OH240202   1.081   2.198  18.628 -0.0243 -0.1190 -0.1473
 5336TIP3    H140203   1.173   2.224  18.634 -0.6112  2.1150  0.0137
 5336TIP3    H240204   1.034   2.279  18.608 -1.9021 -1.3314 -0.9399
 5337TIP3   OH240205   1.516   5.322  18.573 -0.8522 -0.0535  0.3774
 5337TIP3    H140206   1.612   5.312  18.574 -0.8472 -0.0685  0.0345
 5337TIP3    H240207   1.499   5.376  18.495 -1.1996 -0.8913 -0.1425
 5338TIP3   OH240208   0.391   7.258  18.978 -0.1737  0.7626  0.2482
 5338TIP3    H140209   0.481   7.279  19.003  0.1592  0.1510 -0.4026
 5338TIP3    H240210   0.393   7.165  18.958 -0.6574  0.9814 -0.9456
 5339TIP3   OH240211   7.412   1.106  19.604 -0.3570  0.3548 -0.6212
 5339TIP3    H140212   7.365   1.046  19.546 -0.1255 -0.0767 -0.3705
 5339TIP3    H240213   7.390   1.077  19.692  1.1091 -0.4573 -0.4953
 5340TIP3   OH240214   2.512   1.728  17.649  0.2303  0.5193 -0.1804
 5340TIP3    H140215   2.456   1.803  17.632 -0.1759 -0.0471 -1.4630
 5340TIP3    H240216   2.453   1.652  17.646  0.9438 -0.0306 -0.9428
 5341TIP3   OH240217   2.088   0.403  18.734  0.0804 -0.3756  0.3318
 5341TIP3    H140218   2.114   0.405  18.642 -0.7265 -1.4949  0.0554
 5341TIP3    H240219   2.159   0.355  18.777  1.7497  2.2942  0.8024
 5342TIP3   OH240220   0.428   1.652  18.207 -0.4362 -0.2617  0.2596
 5342TIP3    H140221   0.476   1.660  18.125  1.0203 -1.0328  0.9915
 5342TIP3    H240222   0.383   1.568  18.200  1.7523 -1.5895  1.2196
 5343TIP3   OH240223   5.433   2.456  19.438  0.2450  0.4256 -0.2600
 5343TIP3    H140224   5.467   2.367  19.453 -1.4869 -0.1462  0.6229
 5343TIP3    H240225   5.494   2.496  19.377  0.3418 -1.8481 -1.7531
 5344TIP3   OH240226   3.154   2.064  19.296  0.5908  0.3310 -0.3414
 5344TIP3    H140227   3.115   2.072  19.209 -1.1050 -0.3365  0.3203
 5344TIP3    H240228   3.215   1.990  19.289 -0.4643 -0.5318 -0.6618
 5345TIP3   OH240229   3.407   3.009  19.347 -0.1314  0.1683 -0.0819
 5345TIP3    H140230   3.332   3.063  19.323 -0.5346 -0.1497  0.4482
 5345TIP3    H240231   3.369   2.926  19.377  0.5185 -1.2600 -2.8084
 5346TIP3   OH240232   3.217   6.351  17.141  0.8074  0.1490 -0.0944
 5346TIP3    H140233   3.275   6.275  17.142 -1.6434 -1.8768  0.4231
 5346TIP3    H240234   3.171   6.345  17.057 -1.0808 -0.3849  0.9132
 5347TIP3   OH240235   2.799   5.493  17.658 -0.1980 -0.6645 -0.0250
 5347TIP3    H140236   2.786   5.428  17.727  1.7644  0.4685  1.4958
 5347TIP3    H240237   2.892   5.513  17.660 -0.0721 -0.5048 -2.9892
 5348TIP3   OH240238   5.567   5.198  19.548 -0.0927 -0.2274  0.1666
 5348TIP3    H140239   5.642   5.191  19.488 -0.1294 -1.6437  0.2508
 5348TIP3    H240240   5.533   5.108  19.554 -1.1352  0.2046  0.9817
 5349TIP3   OH240241   4.652   6.951  19.152 -0.0520 -0.5014  0.2142
 5349TIP3    H140242   4.739   6.976  19.183  0.8381 -0.0782 -2.3135
 5349TIP3    H240243   4.668   6.911  19.066 -2.3676 -0.1506 -0.4549
 5350TIP3   OH240244   4.114   7.088  17.688  0.3297  0.1479 -0.1212
 5350TIP3    H140245   4.151   7.170  17.654  0.7238  0.2028  0.4233
 5350TIP3    H240246   4.122   7.095  17.783 -2.3292  0.7443  0.1365
 5351TIP3   OH240247   6.773   1.537  17.566  0.3620 -1.3970  0.4391
 5351TIP3    H140248   6.803   1.522  17.476 -0.7042 -1.3555  0.0572
 5351TIP3    H240249   6.850   1.569  17.612  0.3536  1.1902 -1.1181
 5352TIP3   OH240250   2.589   3.189  19.134 -0.5244  0.2440 -0.6321
 5352TIP3    H140251   2.625   3.192  19.046 -0.4861  0.7828 -0.6050
 5352TIP3    H240252   2.556   3.100  19.144  0.3235 -0.1105 -0.8488
 5353TIP3   OH240253   0.807   1.885  18.329  0.1755  0.1070 -0.2651
 5353TIP3    H140254   0.841   1.936  18.255 -1.2433 -0.4998 -1.3832
 5353TIP3    H240255   0.786   1.799  18.291 -1.0891 -0.0325  0.7073
 5354TIP3   OH240256   0.992   7.560  17.104  0.3924  0.4273  0.3386
 5354TIP3    H140257   1.003   7.594  17.015  0.9563  0.3554  0.3815
 5354TIP3    H240258   1.075   7.518  17.125 -0.2857 -0.9945  0.2908
 5355TIP3   OH240259   2.922   2.664  18.089  0.2893  0.5322  0.6919
 5355TIP3    H140260   2.948   2.732  18.026  0.0041  0.1567  0.1672
 5355TIP3    H240261   2.978   2.681  18.165  1.2265  0.4936  0.0394
 5356TIP3   OH240262   2.599   1.516  17.825  0.0219 -0.5669 -0.0203
 5356TIP3    H140263   2.525   1.531  17.885  1.7246  0.2606  2.0093
 5356TIP3    H240264   2.610   1.600  17.779 -1.5145 -1.3115 -1.8765
 5357TIP3   OH240265   3.423   2.737  18.405 -0.0079  0.7113 -0.1194
 5357TIP3    H140266   3.516   2.733  18.428 -0.5448  0.8722  2.2310
 5357TIP3    H240267   3.399   2.645  18.388  0.3813  0.5721  0.0716
 5358TIP3   OH240268   1.651   6.706  19.056 -0.2122 -0.0401  0.3844
 5358TIP3    H140269   1.673   6.630  19.109  0.7586  0.6453  0.9823
 5358TIP3    H240270   1.573   6.743  19.098 -0.1602 -0.1883  0.6113
 5359TIP3   OH240271   7.589   4.012  19.400 -0.3044 -0.3529 -0.2973
 5359TIP3    H140272   7.598   4.061  19.318  0.7294 -0.0410 -0.0104
 5359TIP3    H240273   7.572   4.079  19.466 -0.4715 -0.5418 -0.1473
 5360TIP3   OH240274   5.607   0.421  18.434  0.1980 -0.1969  0.0996
 5360TIP3    H140275   5.699   0.447  18.428  0.2807 -0.3681  0.6179
 5360TIP3    H240276   5.571   0.440  18.347 -0.0591  2.7824  0.7550
 5361TIP3   OH240277   5.610   0.095  17.646  0.1373 -0.5284  0.6429
 5361TIP3    H140278   5.544   0.146  17.693  0.6482 -1.1381  2.0788
 5361TIP3    H240279   5.564   0.057  17.572  0.0069  3.1105 -1.3711
 5362TIP3   OH240280   4.276   4.901  17.899  0.5546  0.6159 -0.3153
 5362TIP3    H140281   4.187   4.925  17.923 -0.1923 -2.2344  0.0114
 5362TIP3    H240282   4.329   4.930  17.973 -0.2460  1.2464  0.0298
 5363TIP3   OH240283   1.342   1.209  18.775 -0.4157 -0.0892  0.0185
 5363TIP3    H140284   1.409   1.149  18.806  0.8692 -0.1768 -2.6408
 5363TIP3    H240285   1.389   1.290  18.753 -1.6067  0.7774  0.5263
 5364TIP3   OH240286   0.247   1.521  19.396  0.0699  0.2323 -0.3475
 5364TIP3    H140287   0.187   1.520  19.471 -0.4718  1.2028 -0.7433
 5364TIP3    H240288   0.210   1.458  19.335  1.0449 -1.2910  0.5693
 5365TIP3   OH240289   6.791   5.175  19.195  0.2309  0.3184 -0.4825
 5365TIP3    H140290   6.701   5.184  19.226  0.2082  1.0008 -0.7243
 5365TIP3    H240291   6.813   5.084  19.212 -0.0399  0.4702  0.8334
 5366TIP3   OH240292   7.480   3.199  17.959 -0.5244 -0.6415  0.3598
 5366TIP3    H140293   7.454   3.180  18.050  0.0809  0.7595  0.8473
 5366TIP3    H240294   7.572   3.225  17.966 -0.5111 -0.4066 -0.6552
 5367TIP3   OH240295   1.251   0.724  17.741 -0.1113  0.1068  0.1509
 5367TIP3    H140296   1.197   0.691  17.669 -0.1858 -0.9117  0.6687
 5367TIP3    H240297   1.339   0.732  17.703 -0.1171 -0.5724 -0.0138
 5368TIP3   OH240298   3.336   1.225  19.177 -0.3242  0.2507  0.4201
 5368TIP3    H140299   3.356   1.134  19.155  2.5716  0.8070  0.4336
 5368TIP3    H240300   3.385   1.277  19.114 -2.0616  1.8561  0.3123
 5369TIP3   OH240301   2.221   4.652  17.357  0.3264 -0.3897 -0.2974
 5369TIP3    H140302   2.136   4.643  17.400  0.1927  0.9736 -0.2311
 5369TIP3    H240303   2.282   4.602  17.411  0.3312  1.9497  2.0475
 5370TIP3   OH240304   3.614   7.421  18.012  0.1582  0.3957 -0.0597
 5370TIP3    H140305   3.607   7.329  17.985  3.3408 -0.2859  0.9734
 5370TIP3    H240306   3.587   7.471  17.935 -0.6450 -1.4065 -1.0108
 5371TIP3   OH240307   0.360   2.973  18.377  0.1246 -0.1047 -0.4726
 5371TIP3    H140308   0.371   2.909  18.307  1.0030  0.1067 -0.5385
 5371TIP3    H240309   0.285   3.026  18.350 -1.1699 -1.6105 -0.0143
 5372TIP3   OH240310   0.841   2.649  17.162 -0.0076 -0.0746 -0.2321
 5372TIP3    H140311   0.796   2.629  17.080 -1.0117  1.0401  0.0285
 5372TIP3    H240312   0.819   2.740  17.181  1.6046  0.2082  0.4079
 5373TIP3   OH240313   5.314   2.070  19.402 -0.0178  0.2108 -0.0252
 5373TIP3    H140314   5.305   2.161  19.429 -2.4342 -0.2224  0.8258
 5373TIP3    H240315   5.225   2.037  19.395  0.7708 -2.0027 -0.7065
 5374TIP3   OH240316   2.020   0.793  19.280  0.2116 -0.2037  0.3428
 5374TIP3    H140317   1.950   0.857  19.296  0.4935  1.4871 -3.8960
 5374TIP3    H240318   2.099   0.846  19.278  1.2219 -1.5843  1.6535
 5375TIP3   OH240319   3.924   5.631  18.049  0.2817 -0.9421 -0.5070
 5375TIP3    H140320   3.839   5.622  18.007 -0.3399  1.3263  0.1219
 5375TIP3    H240321   3.981   5.668  17.981  0.1939 -0.4897 -0.3370
 5376TIP3   OH240322   2.878   7.407  18.889  0.5578  0.9093  0.6667
 5376TIP3    H140323   2.843   7.325  18.921  0.8673  0.5177  0.0260
 5376TIP3    H240324   2.803   7.467  18.889  0.3665  0.6748  1.2735
 5377TIP3   OH240325   5.359   1.392  19.417 -0.4028  0.2278  0.2220
 5377TIP3    H140326   5.306   1.472  19.405 -0.6064  0.0914  0.2033
 5377TIP3    H240327   5.448   1.424  19.426 -0.4465  0.4433 -0.0698
 5378TIP3   OH240328   5.375   2.311  19.124 -0.7024  0.4555  0.0301
 5378TIP3    H140329   5.314   2.381  19.147 -1.1942 -0.7968  2.9588
 5378TIP3    H240330   5.462   2.347  19.144 -0.8765  0.6087  0.5254
 5379TIP3   OH240331   1.803   6.683  16.698 -0.2767 -0.4136  0.6482
 5379TIP3    H140332   1.784   6.765  16.743 -2.9853  0.1691 -1.3089
 5379TIP3    H240333   1.777   6.614  16.760 -0.9121  0.2776  1.1582
 5380TIP3   OH240334   2.663   0.659  17.027  0.1302  0.8864  0.0555
 5380TIP3    H140335   2.651   0.744  17.069  1.3128  1.3787 -0.5703
 5380TIP3    H240336   2.576   0.637  16.994 -0.0272  2.2670 -0.5228
 5381TIP3   OH240337   7.366   1.309  19.395 -0.6381 -0.0839  0.1237
 5381TIP3    H140338   7.434   1.295  19.460 -0.2458  1.4887  0.0887
 5381TIP3    H240339   7.392   1.254  19.321  0.9375  0.9496 -0.1228
 5382TIP3   OH240340   1.103   2.429  17.714 -0.1875  0.0636  0.0355
 5382TIP3    H140341   1.168   2.499  17.710 -0.4012  0.2607  0.0297
 5382TIP3    H240342   1.021   2.470  17.685 -0.4127 -0.0669  0.4746
 5383TIP3   OH240343   4.420   7.276  19.234 -0.6412 -0.5887  0.4063
 5383TIP3    H140344   4.490   7.275  19.169  1.4538  1.1074  2.4319
 5383TIP3    H240345   4.447   7.212  19.300 -1.0835 -0.0636  1.1148
 5384TIP3   OH240346   3.604   2.339  18.294 -0.4924  0.0685 -0.4099
 5384TIP3    H140347   3.513   2.363  18.309 -1.0897 -1.7923 -0.8231
 5384TIP3    H240348   3.648   2.422  18.275 -2.1830  0.9478 -0.6238
 5385TIP3   OH240349   1.906   6.887  18.826 -0.5244 -0.7296 -0.4044
 5385TIP3    H140350   1.945   6.848  18.904  0.1836 -0.0280 -0.3881
 5385TIP3    H240351   1.975   6.945  18.792 -1.8026  1.1488  0.0666
 5386TIP3   OH240352   3.781   7.138  17.636 -0.1494  0.0005  0.8162
 5386TIP3    H140353   3.839   7.213  17.648 -0.2508  0.4238 -1.0450
 5386TIP3    H240354   3.722   7.141  17.712 -0.7857  2.4033  0.3053
 5387TIP3   OH240355   7.512   0.255  18.963  0.1821  0.0381  0.4315
 5387TIP3    H140356   7.439   0.201  18.994 -1.2351  0.3738 -2.0744
 5387TIP3    H240357   7.504   0.336  19.013 -0.4927 -0.3334  0.9507
 5388TIP3   OH240358   6.807   7.652  19.348 -0.0951  0.1808  0.2026
 5388TIP3    H140359   6.843   7.633  19.261 -0.2749 -1.5789  0.4645
 5388TIP3    H240360   6.790   7.565  19.385  1.0694  0.8640  2.4693
 5389TIP3   OH240361   5.303   1.785  17.601 -0.7184 -0.3438  0.5142
 5389TIP3    H140362   5.254   1.704  17.616 -2.3347  0.8425  2.1722
 5389TIP3    H240363   5.239   1.844  17.562  0.2249  0.3840  0.0306
 5390TIP3   OH240364   2.776   5.791  17.227 -0.0146 -0.0991 -0.4169
 5390TIP3    H140365   2.704   5.855  17.228 -0.8306 -0.9804 -1.0044
 5390TIP3    H240366   2.778   5.759  17.137  1.1475 -0.0721 -0.4160
 5391TIP3   OH240367   0.146   7.614  12.380 -0.5069 -0.4055 -0.1772
 5391TIP3    H140368   0.104   7.643  12.299 -0.9104  0.9358  0.4903
 5391TIP3    H240369   0.080   7.561  12.424  0.2804 -2.5990 -1.4667
 5392TIP3   OH240370   3.250   6.692  10.623  0.1131 -0.0372 -0.4461
 5392TIP3    H140371   3.308   6.659  10.692 -0.9322  0.2623  0.6064
 5392TIP3    H240372   3.305   6.749  10.570  0.8405  0.0526  0.3895
 5393TIP3   OH240373   0.733   4.684  11.224 -0.4904  0.3987 -0.3473
 5393TIP3    H140374   0.741   4.769  11.267 -0.6434 -1.2464  3.3389
 5393TIP3    H240375   0.639   4.675  11.207 -0.5993  0.6339  0.0921
 5394TIP3   OH240376   5.862   6.428  11.428  0.0453 -0.3300  0.2893
 5394TIP3    H140377   5.817   6.507  11.397 -0.5610 -1.3687 -1.5838
 5394TIP3    H240378   5.798   6.386  11.486  1.0999  1.4938  2.9895
 5395TIP3   OH240379   4.669   4.709  11.939  0.2366 -0.1556  0.4086
 5395TIP3    H140380   4.739   4.743  11.994 -0.2110  2.4097 -0.4623
 5395TIP3    H240381   4.590   4.716  11.992 -0.5927  4.3865 -0.9732
 5396TIP3   OH240382   1.645   1.948  11.318 -0.3020  0.0366  0.4189
 5396TIP3    H140383   1.648   1.916  11.408 -0.0584  1.1339  0.8266
 5396TIP3    H240384   1.581   1.893  11.274 -0.1524 -0.7468  1.1711
 5397TIP3   OH240385   1.311   7.429  12.495 -0.2541  0.1587  0.3231
 5397TIP3    H140386   1.268   7.514  12.502 -0.6711 -0.1016  0.9081
 5397TIP3    H240387   1.322   7.399  12.585 -1.4298 -1.0663  0.0842
 5398TIP3   OH240388   6.817   7.253  11.034 -0.1233  0.5842 -0.2769
 5398TIP3    H140389   6.849   7.343  11.036  0.8986  0.2427 -0.8005
 5398TIP3    H240390   6.732   7.259  10.990  0.1823  1.2182 -0.7879
 5399TIP3   OH240391   0.155   4.652  10.904  0.0659 -0.3110 -0.4489
 5399TIP3    H140392   0.112   4.637  10.820 -1.1958 -1.9404  0.4350
 5399TIP3    H240393   0.134   4.743  10.926  0.1579  0.0352 -1.7203
 5400TIP3   OH240394   5.256   1.235  13.299 -0.6224  0.0216 -0.7164
 5400TIP3    H140395   5.177   1.286  13.316 -0.1674  0.6489 -0.4252
 5400TIP3    H240396   5.227   1.163  13.244 -1.1583  1.0065 -1.7644
 5401TIP3   OH240397   1.014   5.342  10.704  0.4380 -0.0152  0.3126
 5401TIP3    H140398   1.022   5.394  10.624 -2.6981 -0.8608 -0.6923
 5401TIP3    H240399   1.021   5.407  10.775  1.1394  1.0738 -0.7141
 5402TIP3   OH240400   5.297   1.661  12.159  0.5959  0.4288 -0.4142
 5402TIP3    H140401   5.282   1.741  12.109  2.5065  0.5421 -0.9084
 5402TIP3    H240402   5.294   1.689  12.251 -0.0503  0.7979 -0.5428
 5403TIP3   OH240403   4.307   2.583  11.652  0.2304 -0.3845 -0.4014
 5403TIP3    H140404   4.391   2.588  11.608 -0.2521  1.3891 -1.2059
 5403TIP3    H240405   4.309   2.655  11.715 -0.4446 -0.7207  0.0127
 5404TIP3   OH240406   0.826   1.635  12.769 -0.2928  0.6150  0.2174
 5404TIP3    H140407   0.915   1.645  12.735 -0.2638  2.1305  0.6958
 5404TIP3    H240408   0.838   1.604  12.859 -0.2102  1.4276  0.4960
 5405TIP3   OH240409   1.371   2.377  11.483 -0.5717 -0.1032 -0.1049
 5405TIP3    H140410   1.319   2.436  11.430  0.9760 -0.2904 -1.9609
 5405TIP3    H240411   1.309   2.311  11.515 -2.3126  2.2955  1.9087
 5406TIP3   OH240412   2.735   0.543  13.105  0.3692  0.2212  0.5172
 5406TIP3    H140413   2.818   0.495  13.112  1.0455  1.3738  0.6010
 5406TIP3    H240414   2.761   0.634  13.097 -0.9167  0.6499  1.0511
 5407TIP3   OH240415   1.491   7.579  12.221 -0.1709 -0.3200  0.6697
 5407TIP3    H140416   1.448   7.607  12.302 -0.0271  2.1768 -0.0294
 5407TIP3    H240417   1.420   7.570  12.158 -0.0162  1.2120  0.2141
 5408TIP3   OH240418   1.269   5.500  10.894  0.1232  0.2978  0.5434
 5408TIP3    H140419   1.221   5.550  10.828  0.8492  0.8607  0.4254
 5408TIP3    H240420   1.357   5.489  10.858  0.9309  1.7359  1.9147
 5409TIP3   OH240421   6.204   3.660  11.898  0.2082  0.2618  0.2288
 5409TIP3    H140422   6.287   3.620  11.874 -0.1372 -0.4500  0.2173
 5409TIP3    H240423   6.163   3.682  11.814  0.4446  0.7499  0.2365
 5410TIP3   OH240424   2.761   6.932  10.624 -0.1213  0.0454 -0.2518
 5410TIP3    H140425   2.805   6.923  10.540  0.7587  1.9588 -0.0548
 5410TIP3    H240426   2.818   6.989  10.675 -0.2752 -1.6508  1.9378
 5411TIP3   OH240427   1.153   5.089  11.273 -0.2557  0.3128  0.0053
 5411TIP3    H140428   1.141   5.152  11.202 -0.0806  0.5630  0.1941
 5411TIP3    H240429   1.230   5.039  11.248 -0.5878 -0.0503 -0.3042
 5412TIP3   OH240430   2.745   0.207  12.908  0.1840  0.3463 -0.1634
 5412TIP3    H140431   2.750   0.121  12.950  0.3245  0.6766  0.5172
 5412TIP3    H240432   2.709   0.264  12.976 -0.8354  0.6336 -0.9195
 5413TIP3   OH240433   2.240   6.768  12.020 -0.0983 -0.0897  0.3122
 5413TIP3    H140434   2.235   6.862  12.003 -1.0155  0.0569  1.2779
 5413TIP3    H240435   2.333   6.746  12.008 -0.2044  0.5041 -1.9877
 5414TIP3   OH240436   0.755   5.933  11.167  0.0385 -0.3290 -0.3371
 5414TIP3    H140437   0.847   5.952  11.150  0.0186 -1.2168 -1.5250
 5414TIP3    H240438   0.716   6.019  11.183  0.9666  0.1033 -0.2990
 5415TIP3   OH240439   1.428   0.606  10.801  0.2495  0.1704  0.4058
 5415TIP3    H140440   1.373   0.528  10.792  0.4205  0.2314 -1.7206
 5415TIP3    H240441   1.373   0.678  10.770  0.7630  0.5958  0.4697
 5416TIP3   OH240442   0.233   3.862  12.975  0.5530 -0.2052  0.2303
 5416TIP3    H140443   0.219   3.914  13.054  0.9351  0.1731  0.0476
 5416TIP3    H240444   0.172   3.788  12.984 -2.2131  1.7675 -0.8799
 5417TIP3   OH240445   7.497   1.717  10.991  0.2904  0.6052  0.8447
 5417TIP3    H140446   7.550   1.723  10.911  0.6891 -1.4197  0.8960
 5417TIP3    H240447   7.549   1.663  11.050 -1.5582 -0.9558  1.1300
 5418TIP3   OH240448   7.347   6.339  10.964 -0.0456 -0.5310 -0.0137
 5418TIP3    H140449   7.264   6.360  10.922 -0.0977 -0.5738  0.0674
 5418TIP3    H240450   7.414   6.359  10.898  0.3190  4.2795  1.4545
 5419TIP3   OH240451   3.131   5.268  12.270  0.3135 -0.1487  0.0892
 5419TIP3    H140452   3.128   5.364  12.263  2.0384 -0.0218  0.5444
 5419TIP3    H240453   3.068   5.247  12.339  0.1911  0.6943  0.2493
 5420TIP3   OH240454   3.647   4.710  12.427 -0.3989 -0.1621 -0.5433
 5420TIP3    H140455   3.635   4.794  12.382 -0.1682  0.3035  0.2492
 5420TIP3    H240456   3.660   4.733  12.518 -0.2367 -1.0655 -0.3273
 5421TIP3   OH240457   4.093   2.569  12.423 -0.1882 -0.1304 -0.3220
 5421TIP3    H140458   4.073   2.476  12.436  1.3493 -0.6070 -1.1287
 5421TIP3    H240459   4.090   2.580  12.328 -0.9835  0.8149 -0.2003
 5422TIP3   OH240460   6.536   2.710  11.442 -0.1577 -0.5543 -0.0880
 5422TIP3    H140461   6.479   2.721  11.518  0.6239 -2.0129  0.7518
 5422TIP3    H240462   6.482   2.736  11.368 -1.0258  0.6626  0.9155
 5423TIP3   OH240463   0.061   5.126  10.855 -0.5134 -0.0278  0.2723
 5423TIP3    H140464   0.027   5.132  10.944 -0.8358  1.5633  0.0719
 5423TIP3    H240465   0.155   5.144  10.863 -0.1554 -1.7717  0.4889
 5424TIP3   OH240466   7.384   3.647  11.931  0.1947 -0.1597 -0.0983
 5424TIP3    H140467   7.356   3.577  11.873  4.2536 -0.0902 -2.5487
 5424TIP3    H240468   7.337   3.724  11.901  0.8944 -0.5056 -2.2275
 5425TIP3   OH240469   3.198  -0.055  12.889 -0.2599 -0.2962  0.3864
 5425TIP3    H140470   3.144  -0.004  12.829  0.0520 -0.6663 -0.2155
 5425TIP3    H240471   3.148  -0.056  12.971 -1.1684 -0.6326 -0.1556
 5426TIP3   OH240472   1.833  -0.023  12.739  0.3395 -0.3105 -0.2587
 5426TIP3    H140473   1.846   0.066  12.770  1.4509 -1.2669  2.2948
 5426TIP3    H240474   1.741  -0.042  12.758  0.0779  0.2998 -0.8876
 5427TIP3   OH240475   0.814   4.031  10.589 -0.2579  0.2939  0.2824
 5427TIP3    H140476   0.769   3.967  10.644 -0.0885 -0.7765 -0.7980
 5427TIP3    H240477   0.780   4.016  10.501  1.8732 -0.2611 -0.5009
 5428TIP3   OH240478   0.730   2.079   9.840 -0.1049 -0.2693  0.0536
 5428TIP3    H140479   0.668   2.116   9.776 -0.3324 -1.0215 -0.1754
 5428TIP3    H240480   0.768   2.155   9.883 -0.1045  0.2527 -0.8326
 5429TIP3   OH240481   1.872   1.856  10.803 -0.2637 -0.0161  0.4165
 5429TIP3    H140482   1.808   1.826  10.739  1.6752 -1.9268 -0.7319
 5429TIP3    H240483   1.914   1.932  10.762 -1.2050  0.7599  0.8459
 5430TIP3   OH240484   3.092   2.758  11.530  0.6775  0.3397 -0.1163
 5430TIP3    H140485   3.053   2.845  11.526  2.6928  1.2913 -3.2558
 5430TIP3    H240486   3.175   2.771  11.575  0.5519 -0.1826  0.2734
 5431TIP3   OH240487   5.277   6.449  11.910  0.5193  0.0950 -0.2594
 5431TIP3    H140488   5.181   6.453  11.911  0.4674 -0.8688 -0.0267
 5431TIP3    H240489   5.297   6.359  11.937  1.4631 -0.0375 -1.3354
 5432TIP3   OH240490   5.354   0.154  11.541  0.0941  0.8360 -0.3016
 5432TIP3    H140491   5.360   0.223  11.475  0.3759 -0.1270 -1.3108
 5432TIP3    H240492   5.441   0.151  11.581  0.1656  0.8775 -0.4528
 5433TIP3   OH240493   1.374   4.670  12.472  0.3160 -0.0753 -0.2007
 5433TIP3    H140494   1.304   4.733  12.456  0.0644 -0.3363 -0.1355
 5433TIP3    H240495   1.340   4.587  12.438  0.5778 -0.2102 -0.1351
 5434TIP3   OH240496   1.792   0.004  11.424  0.0141 -0.4014  0.1575
 5434TIP3    H140497   1.857   0.050  11.477  0.7269  0.0477 -1.0552
 5434TIP3    H240498   1.837  -0.014  11.341 -1.1170 -0.9083 -0.3702
 5435TIP3   OH240499   2.879   5.174  13.670  0.7208 -0.0847  0.3525
 5435TIP3    H140500   2.843   5.144  13.753  1.0000  0.7958  0.8110
 5435TIP3    H240501   2.970   5.145  13.672  0.7894  0.1332  0.4633
 5436TIP3   OH240502   2.343   7.043  13.062  0.3915  0.1424  0.0408
 5436TIP3    H140503   2.341   7.134  13.032  0.3256 -0.2105 -1.0686
 5436TIP3    H240504   2.306   7.046  13.150 -0.5531  1.0488 -0.3686
 5437TIP3   OH240505   6.109   0.295  11.358 -0.6342  0.3490  0.6172
 5437TIP3    H140506   6.175   0.301  11.427  0.4095  0.2129 -0.3536
 5437TIP3    H240507   6.080   0.385  11.344 -0.2579  0.4777  0.6591
 5438TIP3   OH240508   2.591   5.382  11.884  0.0467  0.2266  0.7082
 5438TIP3    H140509   2.684   5.389  11.863 -0.1474 -0.2837 -0.3879
 5438TIP3    H240510   2.589   5.335  11.968  0.7839  0.6313  0.9641
 5439TIP3   OH240511   7.551   4.993  12.363 -0.4477 -0.1527 -0.3630
 5439TIP3    H140512   7.545   4.958  12.452  0.4344  2.2031  0.7040
 5439TIP3    H240513   7.620   5.060  12.368 -0.6654  0.3346 -2.7301
 5440TIP3   OH240514   5.389   2.588  11.161  0.7746 -0.4715  0.1814
 5440TIP3    H140515   5.319   2.523  11.159  0.7917 -0.5178  0.8007
 5440TIP3    H240516   5.400   2.608  11.254 -0.0402  1.2965 -0.0608
 5441TIP3   OH240517   1.201   1.969  12.121 -0.5281 -0.0012 -0.1268
 5441TIP3    H140518   1.264   1.943  12.188 -0.2723  1.9090  0.4371
 5441TIP3    H240519   1.121   1.921  12.143 -0.7835  1.3560  2.2402
 5442TIP3   OH240520   5.927   5.189  12.116  0.2740 -0.0944 -1.0267
 5442TIP3    H140521   5.966   5.103  12.132 -0.7359 -0.2612  0.8493
 5442TIP3    H240522   5.982   5.249  12.166  1.3347  0.5005 -2.8066
 5443TIP3   OH240523   1.623   6.008  10.790  0.3056 -0.0781 -0.6277
 5443TIP3    H140524   1.667   6.083  10.830 -0.7780 -0.3620  1.1922
 5443TIP3    H240525   1.542   6.044  10.754  0.9968  0.0624 -2.1436
 5444TIP3   OH240526   4.125   5.609  12.442  0.0174  0.3799  0.4370
 5444TIP3    H140527   4.081   5.609  12.356  1.7729  0.5248 -0.5057
 5444TIP3    H240528   4.116   5.699  12.473  0.2790  0.5883 -0.0824
 5445TIP3   OH240529   2.724   1.394  11.045  0.1448 -0.1379 -0.0434
 5445TIP3    H140530   2.766   1.457  11.103  0.5455 -1.5358  1.2432
 5445TIP3    H240531   2.632   1.418  11.044  0.4551  1.0867 -0.4222
 5446TIP3   OH240532   5.759   3.574  10.879  0.4710 -0.2213  0.2394
 5446TIP3    H140533   5.771   3.519  10.957  0.2043  1.1752  1.3001
 5446TIP3    H240534   5.848   3.598  10.854  0.7307 -2.4018 -1.2424
 5447TIP3   OH240535   7.238   7.627  11.886  0.0383  0.0583 -0.7335
 5447TIP3    H140536   7.171   7.648  11.951 -0.5146  0.6599 -1.4755
 5447TIP3    H240537   7.321   7.640  11.932 -0.3410  0.7222 -0.2128
 5448TIP3   OH240538   6.500   3.510  10.971  0.0201 -0.2913 -0.4231
 5448TIP3    H140539   6.449   3.429  10.964 -1.1982  0.4091  0.0851
 5448TIP3    H240540   6.590   3.483  10.952 -0.3756 -1.7415 -0.3655
 5449TIP3   OH240541   4.194   6.810  12.472 -0.2766 -0.1447  0.1176
 5449TIP3    H140542   4.258   6.824  12.402  0.9466 -0.3069  1.1652
 5449TIP3    H240543   4.154   6.897  12.486 -1.3300 -0.3282 -1.4781
 5450TIP3   OH240544   0.098   4.152  12.332  0.4535 -0.2576 -0.1651
 5450TIP3    H140545   0.183   4.158  12.375  0.2479  0.7388  0.1144
 5450TIP3    H240546   0.101   4.220  12.264 -0.8548  1.1652  1.1499
 5451TIP3   OH240547   7.138   2.864  12.614  0.1262  0.1331  0.0160
 5451TIP3    H140548   7.044   2.879  12.606  0.0063 -0.8170 -0.5463
 5451TIP3    H240549   7.176   2.951  12.627 -0.7169  0.6424 -0.8284
 5452TIP3   OH240550   6.843   3.711  11.006  0.5761  0.1416  0.3098
 5452TIP3    H140551   6.841   3.806  10.991 -0.0940 -0.0246 -0.7559
 5452TIP3    H240552   6.787   3.698  11.082 -0.3636  0.4788 -0.3126
 5453TIP3   OH240553   4.238   4.990  11.140 -0.1071 -0.4642  0.0251
 5453TIP3    H140554   4.232   5.082  11.163 -1.3649 -0.4543 -0.2994
 5453TIP3    H240555   4.156   4.970  11.094  1.2716 -1.0642 -2.3514
 5454TIP3   OH240556   0.241   6.430  12.286 -0.3086  0.2015  0.5240
 5454TIP3    H140557   0.237   6.335  12.280  0.3607  0.2537 -1.5763
 5454TIP3    H240558   0.156   6.455  12.321 -1.2491 -1.0664 -0.7565
 5455TIP3   OH240559   1.743   1.120  12.775  0.5784  0.3014 -0.3307
 5455TIP3    H140560   1.773   1.208  12.754 -1.5998  0.5769 -2.7784
 5455TIP3    H240561   1.783   1.065  12.708  0.4799 -0.2817  0.0806
 5456TIP3   OH240562   5.150   5.815  12.128 -0.4465 -0.1303  0.0450
 5456TIP3    H140563   5.107   5.796  12.211  0.4853  1.9296  1.0549
 5456TIP3    H240564   5.111   5.896  12.098  1.1618  0.6393 -0.0904
 5457TIP3   OH240565   1.016   2.734  12.651 -0.3071 -0.3388  0.1246
 5457TIP3    H140566   0.927   2.725  12.684 -0.4499  1.8724  0.5061
 5457TIP3    H240567   1.069   2.680  12.709 -1.1460 -0.0536  1.1871
 5458TIP3   OH240568   0.950   7.553  11.071  0.3943 -0.3970  0.0286
 5458TIP3    H140569   0.882   7.485  11.070  0.5778 -0.6054  0.8372
 5458TIP3    H240570   1.017   7.519  11.130  0.6283  0.3489  0.2064
 5459TIP3   OH240571   2.626   0.021  11.475 -0.5524  0.7716  0.3351
 5459TIP3    H140572   2.642  -0.039  11.548 -0.5999  0.9075  0.4578
 5459TIP3    H240573   2.668  -0.021  11.400 -0.7793  0.4784  0.3725
 5460TIP3   OH240574   5.590   7.537  12.328  0.0532 -0.3779  0.1366
 5460TIP3    H140575   5.560   7.628  12.336 -0.3732 -0.1553 -2.7997
 5460TIP3    H240576   5.509   7.485  12.327  0.2259 -0.6549  0.3641
 5461TIP3   OH240577   3.591   5.809  12.499  0.0546  0.1997  0.0644
 5461TIP3    H140578   3.590   5.826  12.593  0.5214 -1.8868  0.4903
 5461TIP3    H240579   3.655   5.739  12.488  0.5747  0.9348 -1.9217
 5462TIP3   OH240580   3.437   5.920  12.005  0.7254  0.1306 -0.2715
 5462TIP3    H140581   3.509   5.923  12.068  0.5650 -0.0086 -0.0799
 5462TIP3    H240582   3.420   6.012  11.983  2.4005  0.0752 -1.9719
 5463TIP3   OH240583   7.286   2.884  12.292  0.4265 -0.0623  0.1076
 5463TIP3    H140584   7.289   2.808  12.349  2.0495  0.6110  1.0063
 5463TIP3    H240585   7.315   2.957  12.348 -0.4185  1.1002 -0.9039
 5464TIP3   OH240586   5.275   6.904  11.864 -0.0506 -0.3806 -0.2239
 5464TIP3    H140587   5.321   6.950  11.934 -0.7877  0.1750 -0.0919
 5464TIP3    H240588   5.182   6.910  11.889 -0.2892 -0.4599 -1.0838
 5465TIP3   OH240589   1.340   6.098  12.463 -0.2072  0.4567 -0.3271
 5465TIP3    H140590   1.267   6.127  12.517  1.3380  0.3351  1.9482
 5465TIP3    H240591   1.339   6.158  12.388 -2.7389  0.2930 -0.5062
 5466TIP3   OH240592   5.922   2.939  11.315 -0.0897  0.3313 -0.2491
 5466TIP3    H140593   5.995   2.881  11.337  0.5696  1.5605  0.9401
 5466TIP3    H240594   5.858   2.925  11.384 -0.4220  0.2152 -0.5764
 5467TIP3   OH240595   7.635   1.099  10.594  0.8545 -0.0669  1.0260
 5467TIP3    H140596   7.633   1.022  10.650  2.1830  1.1264  2.8276
 5467TIP3    H240597   7.728   1.112  10.574  0.7824  1.5316  1.5275
 5468TIP3   OH240598   6.550   7.715  10.465  0.3246  0.8944  0.3677
 5468TIP3    H140599   6.560   7.659  10.388 -1.0497  2.2498 -0.8776
 5468TIP3    H240600   6.455   7.732  10.470  0.5990  2.4303  1.1440
 5469TIP3   OH240601   2.272   6.794  13.366 -0.1908 -0.2558  0.0346
 5469TIP3    H140602   2.326   6.778  13.443  0.2003 -0.7137 -0.3303
 5469TIP3    H240603   2.270   6.889  13.358  0.5145 -0.2328  0.0840
 5470TIP3   OH240604   2.320   7.621  13.284 -0.1333  0.1070 -0.4142
 5470TIP3    H140605   2.352   7.538  13.321 -0.2716 -0.6322 -1.8881
 5470TIP3    H240606   2.264   7.594  13.211 -1.3611  1.4779 -0.0310
 5471TIP3   OH240607   3.113   6.202  12.771  0.5126 -0.3543  0.1679
 5471TIP3    H140608   3.032   6.196  12.721  0.3598 -0.8205  0.4679
 5471TIP3    H240609   3.088   6.180  12.860  0.4768  1.9297  0.8009
 5472TIP3   OH240610   0.913   2.872  11.387  0.2589  0.1192  0.8335
 5472TIP3    H140611   0.889   2.820  11.464  2.5119  0.1912  1.6569
 5472TIP3    H240612   0.997   2.836  11.359  0.2830  1.1994 -0.5687
 5473TIP3   OH240613   7.343   7.492  11.275 -0.3625 -0.7630 -0.0777
 5473TIP3    H140614   7.383   7.578  11.291 -1.0124 -0.4860  0.0698
 5473TIP3    H240615   7.341   7.451  11.362 -0.0511 -0.9312 -0.1489
 5474TIP3   OH240616   5.872   4.082  10.563 -0.1347  0.3790 -0.0293
 5474TIP3    H140617   5.931   4.023  10.516 -0.3960  0.6520 -0.7074
 5474TIP3    H240618   5.796   4.028  10.585 -0.5277  0.5341 -0.9535
 5475TIP3   OH240619   7.018   6.108  12.172  0.1772 -0.0391 -0.0431
 5475TIP3    H140620   7.090   6.052  12.202  0.2409 -0.3211 -0.6922
 5475TIP3    H240621   7.000   6.078  12.082  0.7759  1.5401 -0.7269
 5476TIP3   OH240622   0.615   3.341  13.415 -0.4149  0.3169  0.3997
 5476TIP3    H140623   0.542   3.386  13.458 -1.4906 -1.0075  0.0464
 5476TIP3    H240624   0.576   3.260  13.382  1.1800 -0.3111 -0.0135
 5477TIP3   OH240625   4.047   5.583  12.819 -0.1578  0.1136 -0.7990
 5477TIP3    H140626   4.022   5.675  12.823  0.4996  0.2562  1.5530
 5477TIP3    H240627   3.975   5.537  12.862 -0.7783 -0.5794 -2.5136
 5478TIP3   OH240628   0.272   0.391  12.950  0.6747  0.0136 -0.1734
 5478TIP3    H140629   0.350   0.408  13.002  1.2747 -0.1807 -0.9886
 5478TIP3    H240630   0.242   0.304  12.978 -1.3030  1.4388  2.6372
 5479TIP3   OH240631   5.394   6.912  12.584 -0.0120  0.7449  0.1056
 5479TIP3    H140632   5.478   6.929  12.628 -0.3443  0.0574  1.0448
 5479TIP3    H240633   5.363   6.831  12.623  0.8340 -1.3616 -3.1951
 5480TIP3   OH240634   5.135   3.789  11.460  0.0496  0.3204 -0.1176
 5480TIP3    H140635   5.102   3.774  11.372  0.1199 -1.0854  0.0651
 5480TIP3    H240636   5.110   3.879  11.481 -1.6485  0.0553 -0.8478
 5481TIP3   OH240637   5.853   1.154  11.055  0.2538 -0.3093  0.5076
 5481TIP3    H140638   5.772   1.143  11.007  0.3646 -4.2550  0.9135
 5481TIP3    H240639   5.920   1.169  10.987 -0.4993  1.5064  0.0932
 5482TIP3   OH240640   7.557   1.997  10.396 -0.3494 -0.1592 -0.3053
 5482TIP3    H140641   7.512   2.038  10.323 -1.0660  0.9053  0.6829
 5482TIP3    H240642   7.492   1.997  10.467  1.0864  1.2473  1.1180
 5483TIP3   OH240643   5.537   4.432  11.894  0.2718 -0.1426 -0.2359
 5483TIP3    H140644   5.573   4.425  11.982 -0.7354 -0.0834  0.1929
 5483TIP3    H240645   5.612   4.457  11.839  1.0436 -0.8028  0.4858
 5484TIP3   OH240646   1.917   6.374  11.177  0.0498 -0.1548  0.3592
 5484TIP3    H140647   1.949   6.463  11.190 -0.2071 -0.1801  1.2216
 5484TIP3    H240648   1.893   6.370  11.084 -0.2593  0.7743  0.3945
 5485TIP3   OH240649   7.385   2.085  10.590 -0.2444  0.3696  0.2784
 5485TIP3    H140650   7.365   2.054  10.678 -0.5372  0.7363  0.3434
 5485TIP3    H240651   7.456   2.148  10.603  0.6741 -0.5946  0.0954
 5486TIP3   OH240652   2.061   6.085  10.914 -0.9099 -0.3627 -0.1470
 5486TIP3    H140653   2.096   6.034  10.987 -0.6745 -0.6598 -0.4688
 5486TIP3    H240654   1.998   6.027  10.871  1.9269 -1.7928 -2.7170
 5487TIP3   OH240655   0.254   2.519  10.817  0.7295 -0.7531  0.6263
 5487TIP3    H140656   0.163   2.527  10.788  0.6570 -0.6750  0.8759
 5487TIP3    H240657   0.280   2.430  10.790  0.6188 -0.7299  0.4460
 5488TIP3   OH240658   4.102   7.116  11.819  0.6946  0.2616  0.3728
 5488TIP3    H140659   4.156   7.074  11.885  0.6493  0.2865  0.4253
 5488TIP3    H240660   4.029   7.056  11.805  0.0489  0.8112  1.2402
 5489TIP3   OH240661   4.705   7.480  13.155  0.7843  0.1678 -0.3246
 5489TIP3    H140662   4.653   7.402  13.174 -0.0377  0.8164  0.1657
 5489TIP3    H240663   4.721   7.476  13.060 -2.3671  1.2152 -1.0141
 5490TIP3   OH240664   4.049   5.343  11.691 -0.4630 -0.1868 -0.0835
 5490TIP3    H140665   3.963   5.304  11.677  0.0409 -1.1422 -0.6561
 5490TIP3    H240666   4.078   5.308  11.775 -0.0813 -0.9565 -0.5206
 5491TIP3   OH240667   5.268   3.638  11.947  0.1535  0.0975 -0.5236
 5491TIP3    H140668   5.304   3.711  11.898  0.6574  0.4875  0.4200
 5491TIP3    H240669   5.339   3.573  11.949  0.0858  0.0261 -0.4291
 5492TIP3   OH240670   3.240   4.995  13.470 -0.1213 -0.2267 -0.2139
 5492TIP3    H140671   3.326   4.970  13.504  0.0239 -2.2205 -1.8794
 5492TIP3    H240672   3.237   4.957  13.382 -2.7545 -0.3005 -0.1530
 5493TIP3   OH240673   3.380   0.288  11.843 -0.0593  0.5365 -0.3925
 5493TIP3    H140674   3.309   0.349  11.822 -1.8316 -1.8416 -1.7969
 5493TIP3    H240675   3.405   0.251  11.759  0.4234 -1.2123  0.4930
 5494TIP3   OH240676   7.349   1.205  10.742  0.2776  0.4363  0.2169
 5494TIP3    H140677   7.421   1.267  10.755 -0.6170  1.6441 -0.3701
 5494TIP3    H240678   7.387   1.135  10.688  0.6732  1.7897 -1.3453
 5495TIP3   OH240679   0.450   1.632  12.396  0.5702  0.1235  0.5163
 5495TIP3    H140680   0.479   1.719  12.367 -1.8807  0.7244 -0.3933
 5495TIP3    H240681   0.432   1.643  12.490 -0.2675  0.7782  0.2875
 5496TIP3   OH240682   5.337   1.206  10.929 -0.4891 -0.4979  0.1853
 5496TIP3    H140683   5.297   1.287  10.898 -2.9220 -0.5917  2.6482
 5496TIP3    H240684   5.334   1.147  10.854  0.7272  1.4070 -1.4529
 5497TIP3   OH240685   6.945   2.660  10.415  0.4292 -0.3912 -0.0274
 5497TIP3    H140686   6.879   2.659  10.484  0.6142 -0.1825  0.1573
 5497TIP3    H240687   7.004   2.731  10.440 -0.9641  1.4981 -1.8046
 5498TIP3   OH240688   3.919   4.064  12.047  0.5414  0.7359 -0.4420
 5498TIP3    H140689   3.828   4.048  12.071  0.5448 -0.4809 -1.1881
 5498TIP3    H240690   3.915   4.105  11.961  0.6728  1.5648 -0.0612
 5499TIP3   OH240691   0.963   5.273  11.636  0.0616  0.0313  0.1042
 5499TIP3    H140692   1.017   5.347  11.608  0.9772 -0.1396  1.3707
 5499TIP3    H240693   0.873   5.305  11.626  0.4295  1.1777  0.2358
 5500TIP3   OH240694   7.184   4.748  10.973 -0.0907  0.4745 -0.2763
 5500TIP3    H140695   7.227   4.727  11.056 -0.8075  1.7003  0.4234
 5500TIP3    H240696   7.117   4.680  10.963  1.0743 -0.6660 -0.7225
 5501TIP3   OH240697   3.391   6.270  12.723  0.4162  0.0022  0.1382
 5501TIP3    H140698   3.454   6.199  12.709  0.6530  0.1373  0.4963
 5501TIP3    H240699   3.321   6.231  12.775  0.4456 -0.0274  0.1556
 5502TIP3   OH240700   6.822   5.831  12.507 -0.7061 -0.0501 -0.3753
 5502TIP3    H140701   6.790   5.759  12.453 -0.3845 -0.1938 -0.3789
 5502TIP3    H240702   6.841   5.791  12.592 -1.3563  0.2074 -0.1074
 5503TIP3   OH240703   4.903   0.137  11.825  0.3865 -0.1858 -0.5439
 5503TIP3    H140704   4.977   0.193  11.803 -0.9521  1.5685 -0.8590
 5503TIP3    H240705   4.832   0.168  11.768 -0.8981 -1.0038  0.5495
 5504TIP3   OH240706   2.875   2.183  12.034 -0.3193  0.2017 -0.0834
 5504TIP3    H140707   2.861   2.162  12.127 -0.5027 -0.0403 -0.1655
 5504TIP3    H240708   2.919   2.106  11.998  1.0230  0.8525  0.1142
 5505TIP3   OH240709   5.256   6.458  10.881  0.5519  0.6123  0.5772
 5505TIP3    H140710   5.321   6.390  10.898  2.3666  1.9052 -0.8127
 5505TIP3    H240711   5.279   6.529  10.942  0.7994  1.2791 -0.2684
 5506TIP3   OH240712   3.695   6.926  11.533  0.1738 -0.3370 -0.0890
 5506TIP3    H140713   3.667   6.836  11.550 -0.1838 -0.1895  0.1157
 5506TIP3    H240714   3.648   6.952  11.454 -0.3920 -0.0427  0.3309
 5507TIP3   OH240715   5.331   4.716  12.014  0.6034  0.3295 -0.1310
 5507TIP3    H140716   5.354   4.628  12.045 -0.4762 -0.4382 -1.3613
 5507TIP3    H240717   5.274   4.751  12.083  0.4424 -0.2396  0.0367
 5508TIP3   OH240718   2.307   0.976  12.152 -0.4830 -0.1365  0.6825
 5508TIP3    H140719   2.276   0.915  12.085 -1.3748 -2.3993  3.0261
 5508TIP3    H240720   2.241   0.972  12.221 -0.3791  3.2848  1.1277
 5509TIP3   OH240721   4.216   5.065  11.508  0.5352 -0.0621  0.0551
 5509TIP3    H140722   4.251   4.976  11.501 -1.7674 -0.9175 -1.8967
 5509TIP3    H240723   4.142   5.057  11.568  0.5958  0.6580  0.2361
 5510TIP3   OH240724   7.590   4.869  12.592 -0.6238 -0.2350 -0.1440
 5510TIP3    H140725   7.509   4.821  12.605 -1.5713  1.0333 -1.0859
 5510TIP3    H240726   7.623   4.886  12.680 -1.2318 -1.0058  0.2373
 5511TIP3   OH240727   4.472   3.602  11.539 -0.7044  0.5504  0.1614
 5511TIP3    H140728   4.499   3.603  11.630  0.9034 -0.2417 -0.2692
 5511TIP3    H240729   4.440   3.691  11.522 -0.2578  0.9367  1.2817
 5512TIP3   OH240730   7.220   1.491  11.601 -0.1925 -0.1490 -0.3864
 5512TIP3    H140731   7.234   1.586  11.599  1.4413 -0.3318  0.5565
 5512TIP3    H240732   7.147   1.476  11.541 -0.8180  1.7564 -0.1667
 5513TIP3   OH240733   2.566   5.065  11.364 -0.0345 -0.1023  0.0458
 5513TIP3    H140734   2.615   5.001  11.312  2.0964  1.1917  0.3536
 5513TIP3    H240735   2.620   5.080  11.441 -2.2598 -0.6065  1.7960
 5514TIP3   OH240736   5.454   7.269  11.756  0.3742  0.2893 -0.0707
 5514TIP3    H140737   5.386   7.333  11.732  2.4473  2.3798 -0.7880
 5514TIP3    H240738   5.503   7.313  11.826  2.3611 -0.1343 -1.1456
 5515TIP3   OH240739   0.684   5.188  11.416 -0.7052  0.2333 -0.0155
 5515TIP3    H140740   0.705   5.245  11.490  1.7738  3.5169 -2.9312
 5515TIP3    H240741   0.632   5.243  11.357 -0.9284 -1.5767 -1.6077
 5516TIP3   OH240742   2.415   7.568  12.092 -0.0528 -0.1361 -0.3978
 5516TIP3    H140743   2.411   7.622  12.171  0.2146 -0.3232 -0.2523
 5516TIP3    H240744   2.465   7.621  12.030 -1.4871  0.6232 -0.9454
 5517TIP3   OH240745   0.207   4.833  17.763 -0.2531 -0.4437  0.0161
 5517TIP3    H140746   0.215   4.907  17.702  0.1543 -0.6823 -0.2246
 5517TIP3    H240747   0.270   4.853  17.832  2.9063 -2.4721 -2.0243
 5518TIP3   OH240748   6.582   4.556  11.750 -0.3485  0.0739  0.2368
 5518TIP3    H140749   6.607   4.613  11.678 -0.4548 -0.8020 -0.5048
 5518TIP3    H240750   6.547   4.477  11.708  1.6229 -1.3898  1.1885
 5519TIP3   OH240751   4.599   3.044  11.189 -0.3839 -0.4698 -0.3354
 5519TIP3    H140752   4.640   2.996  11.261 -0.9818  0.3224  0.5492
 5519TIP3    H240753   4.660   3.034  11.116  2.0317  1.6336  1.2287
 5520TIP3   OH240754   2.692   4.515  12.505  0.1972  0.4018  0.1271
 5520TIP3    H140755   2.709   4.512  12.411  0.3416  0.1473  0.1591
 5520TIP3    H240756   2.677   4.423  12.530  2.4206  0.1603  0.7668
 5521TIP3   OH240757   7.131   5.222  11.185  0.0430 -0.2443 -0.5158
 5521TIP3    H140758   7.069   5.219  11.112  0.7655  0.0321 -1.1608
 5521TIP3    H240759   7.194   5.153  11.166  0.9015  0.5914 -0.7837
 5522TIP3   OH240760   3.753   4.638  10.914 -0.6670  0.0770 -0.0363
 5522TIP3    H140761   3.718   4.675  10.995  1.6982 -1.1848  1.6707
 5522TIP3    H240762   3.807   4.708  10.877 -0.2488  0.0402  0.4929
 5523TIP3   OH240763   0.806   3.743  11.495 -0.1099  0.6504  0.1338
 5523TIP3    H140764   0.731   3.774  11.446 -0.6564  0.3381  0.7558
 5523TIP3    H240765   0.769   3.682  11.560  0.6339  0.7341  0.6514
 5524TIP3   OH240766   5.701   5.499  13.434 -0.1482 -0.0647  0.1960
 5524TIP3    H140767   5.667   5.435  13.371 -0.3831  0.6868 -0.4576
 5524TIP3    H240768   5.622   5.534  13.476 -0.0067 -0.3482  0.7066
 5525TIP3   OH240769   2.937   7.072  11.390  0.2139  0.0277  0.5908
 5525TIP3    H140770   2.886   7.088  11.470 -1.4330 -2.5959  0.1749
 5525TIP3    H240771   3.016   7.026  11.421 -0.5071 -1.1508  0.7357
 5526TIP3   OH240772   4.285   0.614  10.553 -0.3531 -0.6496  0.4113
 5526TIP3    H140773   4.264   0.610  10.460  0.8852 -0.8706  0.1252
 5526TIP3    H240774   4.238   0.691  10.585 -0.3264 -0.2385 -0.5173
 5527TIP3   OH240775   0.468   3.540  12.024 -0.0749  0.0013 -0.3622
 5527TIP3    H140776   0.539   3.494  11.980 -0.2717  0.0782 -0.7643
 5527TIP3    H240777   0.449   3.487  12.101 -0.1161 -0.4482 -0.6761
 5528TIP3   OH240778   4.964   2.079  10.957 -0.5024 -0.4713  0.3088
 5528TIP3    H140779   4.916   2.012  11.004 -0.4943 -1.2770 -0.7919
 5528TIP3    H240780   5.055   2.048  10.956 -0.5589 -0.6282 -0.5084
 5529TIP3   OH240781   4.641   3.977  19.546 -0.3580 -0.2711  0.2491
 5529TIP3    H140782   4.718   4.016  19.588 -0.7021  0.8055 -0.0853
 5529TIP3    H240783   4.625   3.897  19.595 -1.7182  1.6707  3.3236
 5530TIP3   OH240784   2.902   6.328  12.054 -0.1148  0.0883 -0.0713
 5530TIP3    H140785   2.909   6.254  11.994  1.6796 -0.8191  1.1483
 5530TIP3    H240786   2.990   6.367  12.054 -1.0894  2.4689 -0.9233
 5531TIP3   OH240787   3.232   7.662  11.839 -0.3202 -0.1454  0.3033
 5531TIP3    H140788   3.209   7.740  11.790 -1.6032 -0.2469  0.7231
 5531TIP3    H240789   3.296   7.617  11.784 -1.0363  0.2106 -0.8496
 5532TIP3   OH240790   6.807   7.054  13.392  0.4209  0.6127 -0.2023
 5532TIP3    H140791   6.801   7.142  13.429  0.3678  0.7976 -0.6554
 5532TIP3    H240792   6.878   7.059  13.329  0.7521  0.1983  0.1379
 5533TIP3   OH240793   4.034   2.262  12.454 -0.4865  0.2753 -0.1204
 5533TIP3    H140794   4.096   2.189  12.460  2.5122  2.5381 -1.3145
 5533TIP3    H240795   4.003   2.259  12.364 -0.9717  0.0594  0.0488
 5534TIP3   OH240796   7.459   6.340  11.682 -0.2031 -0.0004  0.4764
 5534TIP3    H140797   7.447   6.253  11.645  1.6969  0.3223 -1.0713
 5534TIP3    H240798   7.373   6.381  11.678 -0.8243 -1.3088 -0.0455
 5535TIP3   OH240799   1.217   5.261  11.067  0.1404  0.1867  0.2593
 5535TIP3    H140800   1.245   5.348  11.038  2.0046 -0.5476 -0.3106
 5535TIP3    H240801   1.261   5.200  11.007 -1.1922 -1.1651  0.5823
 5536TIP3   OH240802   0.495   2.806  10.699 -0.0644  0.3224 -0.2401
 5536TIP3    H140803   0.533   2.719  10.714  1.5051  1.2363  1.7070
 5536TIP3    H240804   0.412   2.804  10.747 -0.4000 -0.3148 -0.8257
 5537TIP3   OH240805   0.268   0.357  12.211  0.2453 -0.0990 -0.2785
 5537TIP3    H140806   0.314   0.431  12.251  0.1952 -1.1249  1.7952
 5537TIP3    H240807   0.335   0.313  12.158  0.3986  1.0991 -1.1271
 5538TIP3   OH240808   7.248   0.417  11.128  0.0481 -0.0738  0.3436
 5538TIP3    H140809   7.322   0.380  11.081  0.0498 -0.9378  1.0008
 5538TIP3    H240810   7.249   0.510  11.106  0.7589 -0.2516 -0.3964
 5539TIP3   OH240811   4.159   6.398  13.044 -0.4739 -0.4722  0.0343
 5539TIP3    H140812   4.146   6.314  13.089 -1.6801  1.1103  2.9573
 5539TIP3    H240813   4.242   6.431  13.079 -0.0373 -0.3842 -1.0454
 5540TIP3   OH240814   3.805   2.814  12.712 -0.2276  0.8484 -0.3109
 5540TIP3    H140815   3.854   2.887  12.750 -0.9946  1.2013  0.0093
 5540TIP3    H240816   3.787   2.842  12.622  1.7077 -0.0456 -1.0153
 5541TIP3   OH240817   2.570   1.043  12.064 -0.6027  0.0665 -0.0643
 5541TIP3    H140818   2.507   1.067  11.996 -0.9805 -0.4712  0.0824
 5541TIP3    H240819   2.516   1.005  12.134 -0.3010  1.3126  0.8808
 5542TIP3   OH240820   4.527   6.098  11.270  0.1543  0.2272  0.5777
 5542TIP3    H140821   4.539   6.170  11.208 -0.4306 -1.2686 -1.3495
 5542TIP3    H240822   4.438   6.111  11.304  0.6229  1.2814  1.4575
 5543TIP3   OH240823   4.596   6.540  11.128  0.0390 -0.0936 -0.8281
 5543TIP3    H140824   4.594   6.466  11.067 -0.6263 -0.8297  0.0438
 5543TIP3    H240825   4.512   6.535  11.174  0.2893  0.7764 -0.2492
 5544TIP3   OH240826   5.668   5.046  10.727 -0.0578 -0.0394  0.2806
 5544TIP3    H140827   5.753   5.091  10.725  0.2162 -0.4953  1.3074
 5544TIP3    H240828   5.614   5.099  10.786  0.1743 -0.8779  1.2654
 5545TIP3   OH240829   0.297   1.771  11.076 -0.3762 -0.0029 -0.0523
 5545TIP3    H140830   0.307   1.857  11.034  0.1163 -0.4714 -0.9139
 5545TIP3    H240831   0.290   1.709  11.004  0.2117 -0.8003  0.5520
 5546TIP3   OH240832   5.307   7.036  13.069 -0.5547  0.6678  0.1629
 5546TIP3    H140833   5.346   7.101  13.011  0.9236  0.3360  0.7325
 5546TIP3    H240834   5.352   6.954  13.046 -1.6607  0.0445  0.1470
 5547TIP3   OH240835   0.646   3.066  10.671  0.0004  0.1259  0.1321
 5547TIP3    H140836   0.583   3.003  10.637 -1.1937  0.5465  1.4779
 5547TIP3    H240837   0.616   3.151  10.638  0.3942  0.2283  0.0285
 5548TIP3   OH240838   5.252   4.686  10.649  0.5506 -0.0994  0.2200
 5548TIP3    H140839   5.287   4.599  10.628  1.9024  0.3064  0.6496
 5548TIP3    H240840   5.330   4.741  10.657 -0.2704  1.0778  0.2973
 5549TIP3   OH240841   2.392   2.051  10.600  0.2025  0.5551  0.0412
 5549TIP3    H140842   2.355   2.106  10.668 -1.0735 -0.5720  0.3165
 5549TIP3    H240843   2.472   2.096  10.572  0.5527  1.2293  2.0020
 5550TIP3   OH240844   3.515   0.942  12.610  0.3077  0.3167 -0.0890
 5550TIP3    H140845   3.502   0.848  12.598 -1.5160  0.6134 -0.8290
 5550TIP3    H240846   3.426   0.977  12.618  0.9367  2.0391 -0.2778
 5551TIP3   OH240847   6.476   4.944  11.428  0.2552  0.7125 -0.0408
 5551TIP3    H140848   6.523   4.867  11.461 -2.2416 -0.8314  0.1969
 5551TIP3    H240849   6.454   4.921  11.338  0.7145  1.8186 -0.4571
 5552TIP3   OH240850   3.398   7.026  12.054 -0.0025  0.1559 -0.0380
 5552TIP3    H140851   3.473   6.989  12.007 -2.1824 -2.4840 -1.7516
 5552TIP3    H240852   3.407   6.992  12.143  1.0539  0.2940 -0.0718
 5553TIP3   OH240853   3.963   7.141  12.756  0.0327 -0.0100 -0.4990
 5553TIP3    H140854   3.958   7.215  12.817  0.0065 -0.4997  0.0929
 5553TIP3    H240855   4.022   7.079  12.798 -0.2713 -0.5138 -0.8081
 5554TIP3   OH240856   1.295   0.240  10.944  0.1225 -1.0578 -0.3080
 5554TIP3    H140857   1.247   0.293  11.007  1.7470 -0.4713  0.5178
 5554TIP3    H240858   1.293   0.290  10.863 -0.7826 -1.1299 -0.3355
 5555TIP3   OH240859   6.172   2.542  11.068 -0.3225  0.2387 -0.4654
 5555TIP3    H140860   6.202   2.457  11.099 -1.1967  0.7945  2.1909
 5555TIP3    H240861   6.185   2.539  10.973 -0.6547 -2.9613 -0.5267
 5556TIP3   OH240862   2.117   4.468  11.498  0.5672 -0.4736 -0.3301
 5556TIP3    H140863   2.022   4.460  11.491  0.5753 -0.4767 -0.4307
 5556TIP3    H240864   2.135   4.560  11.479  0.6544 -0.6343 -1.0478
 5557TIP3   OH240865   7.648   2.183  12.041  0.3025 -0.5336 -0.1290
 5557TIP3    H140866   7.682   2.269  12.066 -0.6796 -0.5000  1.1623
 5557TIP3    H240867   7.723   2.125  12.048  0.8387  0.1027 -0.4540
 5558TIP3   OH240868   4.061   1.635  11.771 -0.3810  0.0564 -0.5647
 5558TIP3    H140869   4.047   1.722  11.809 -0.3205  0.3418 -1.1848
 5558TIP3    H240870   4.018   1.639  11.686  1.8041  0.3576 -1.7514
 5559TIP3   OH240871   2.896   4.014  11.124  0.2730  0.0011 -0.1903
 5559TIP3    H140872   2.886   3.922  11.099  1.0787 -0.1371 -0.0340
 5559TIP3    H240873   2.812   4.037  11.163 -0.5355 -0.1825 -1.7331
 5560TIP3   OH240874   2.791   5.867  13.258  0.0318  0.4050  0.2648
 5560TIP3    H140875   2.839   5.814  13.322 -2.3748 -0.9328  1.0796
 5560TIP3    H240876   2.727   5.808  13.220  0.8579  1.3649 -2.9447
 5561TIP3   OH240877   4.947   5.050  11.496 -0.2173 -0.0007  0.0287
 5561TIP3    H140878   4.877   5.058  11.431  0.0533  0.3051 -0.2303
 5561TIP3    H240879   4.934   4.963  11.534  0.3572 -0.7017 -1.3013
 5562TIP3   OH240880   0.236   1.071  10.548  0.1015  0.5033 -0.0427
 5562TIP3    H140881   0.308   1.126  10.516  0.4773  0.5141  0.7979
 5562TIP3    H240882   0.256   1.058  10.640  0.4711 -1.7710 -0.4045
 5563TIP3   OH240883   4.587   6.834  11.932 -0.0656  0.1204  0.0123
 5563TIP3    H140884   4.561   6.746  11.904  1.8758  0.1367 -2.1060
 5563TIP3    H240885   4.540   6.893  11.874 -1.2989  0.5414  1.3782
 5564TIP3   OH240886   0.380   3.295  12.484  0.8645  0.0062 -0.5270
 5564TIP3    H140887   0.306   3.237  12.499  0.7619  0.5428  1.2258
 5564TIP3    H240888   0.437   3.282  12.559  0.9593  1.9602 -0.1943
 5565TIP3   OH240889   2.644   2.822  10.677 -0.3008 -0.0216 -0.1693
 5565TIP3    H140890   2.567   2.792  10.629 -0.4561 -1.1361  0.7256
 5565TIP3    H240891   2.707   2.751  10.666  0.8360  1.1010 -1.3397
 5566TIP3   OH240892   5.192   1.006  13.170  0.0492 -0.3677 -0.6514
 5566TIP3    H140893   5.140   0.968  13.100  1.4743 -2.2737 -0.7502
 5566TIP3    H240894   5.259   0.941  13.188  0.7023  0.7849  1.3886
 5567TIP3   OH240895   3.782   3.400  10.977 -0.4980 -0.0109 -0.0557
 5567TIP3    H140896   3.691   3.371  10.987  0.2442 -2.5502 -0.0229
 5567TIP3    H240897   3.807   3.370  10.889 -0.3406  2.7832 -1.0690
 5568TIP3   OH240898   3.003   6.973  12.194  0.6353 -0.0205 -0.5444
 5568TIP3    H140899   2.947   6.972  12.271  0.8648 -0.3836 -0.3768
 5568TIP3    H240900   3.018   7.066  12.176 -1.4806  0.1643 -1.6823
 5569TIP3   OH240901   0.362   2.588  10.492  0.0656  0.8038  0.2710
 5569TIP3    H140902   0.353   2.683  10.497 -0.8222  0.7806 -0.5247
 5569TIP3    H240903   0.277   2.558  10.460  1.1918  0.0160 -2.2629
 5570TIP3   OH240904   1.277   0.584  11.947 -0.1170 -0.5682  0.1195
 5570TIP3    H140905   1.343   0.637  11.903 -0.9838  1.6079  1.3046
 5570TIP3    H240906   1.323   0.543  12.019  0.2857 -0.3529 -0.0109
 5571TIP3   OH240907   2.946   5.700  13.413  0.0114 -0.1911  0.1292
 5571TIP3    H140908   2.894   5.620  13.408 -1.8882  1.0529 -2.1211
 5571TIP3    H240909   3.026   5.680  13.366 -0.7972 -0.5872 -1.1360
 5572TIP3   OH240910   6.548   1.231  10.582  0.2998  0.3812  0.0588
 5572TIP3    H140911   6.611   1.297  10.613 -0.0382 -0.0697  1.8471
 5572TIP3    H240912   6.476   1.282  10.547  0.5500  0.9508  0.3498
 5573TIP3   OH240913   0.073   2.944  11.769  0.3476  0.1958  0.2575
 5573TIP3    H140914   0.109   2.859  11.794 -0.5556 -0.1765  0.3406
 5573TIP3    H240915   0.143   3.007  11.789  0.9429 -0.4984  0.3928
 5574TIP3   OH240916   5.246   2.072  12.393 -0.4128 -0.7362 -0.3076
 5574TIP3    H140917   5.262   1.999  12.334  1.3947  0.1061 -0.9172
 5574TIP3    H240918   5.254   2.150  12.338 -1.1935 -0.0221  0.5508
 5575TIP3   OH240919   0.023   7.240  11.068  0.3301  0.7845 -0.4245
 5575TIP3    H140920   0.073   7.311  11.107  1.6045  0.4203 -1.3471
 5575TIP3    H240921   0.011   7.177  11.139 -0.1770  1.5546  0.2012
 5576TIP3   OH240922   3.024   0.801  12.791  0.0772 -0.1823 -0.0616
 5576TIP3    H140923   3.101   0.857  12.792  0.0283 -0.1050 -0.4037
 5576TIP3    H240924   3.052   0.722  12.744 -0.3086  0.2320 -1.0261
 5577TIP3   OH240925   5.719   6.100  11.395 -0.3972 -0.4756  0.4365
 5577TIP3    H140926   5.673   6.158  11.455  0.0256 -1.4684  1.7654
 5577TIP3    H240927   5.750   6.028  11.450 -1.5762 -2.3983 -1.2682
 5578TIP3   OH240928   0.071   1.817  10.780  0.4080  0.5125  0.0808
 5578TIP3    H140929   0.105   1.858  10.700 -1.4676  0.5416 -0.7576
 5578TIP3    H240930   0.003   1.757  10.748  0.7395 -0.6817  1.5526
 5579TIP3   OH240931   4.233   5.184  10.501 -0.2800 -0.1658  0.3128
 5579TIP3    H140932   4.166   5.208  10.437 -0.2059 -2.9956 -1.0099
 5579TIP3    H240933   4.315   5.188  10.452 -0.0585 -1.0040  0.5888
 5580TIP3   OH240934   3.248   2.967  10.632 -0.4513  0.4990 -0.1316
 5580TIP3    H140935   3.275   3.006  10.715 -0.3193 -0.7894  0.4647
 5580TIP3    H240936   3.153   2.955  10.641 -0.4119  0.2082 -0.1012
 5581TIP3   OH240937   7.066   2.029  12.418  0.1349  0.7272  0.0833
 5581TIP3    H140938   7.105   2.107  12.459  0.4126  0.9393 -0.5642
 5581TIP3    H240939   6.973   2.050  12.411  0.1704  0.9062  0.1285
 5582TIP3   OH240940   4.397   0.282  11.307  0.0093  0.2639 -0.4588
 5582TIP3    H140941   4.337   0.345  11.347 -2.6897 -0.4801 -2.9858
 5582TIP3    H240942   4.391   0.204  11.362 -1.1358  0.3264 -0.4753
 5583TIP3   OH240943   1.639   5.661  11.425  0.0360  0.1011  0.4629
 5583TIP3    H140944   1.559   5.674  11.476 -0.1807 -0.5197  0.2905
 5583TIP3    H240945   1.609   5.633  11.339  0.3005  3.2972 -0.7797
 5584TIP3   OH240946   5.592   1.163  11.050 -0.2764  0.0601  0.0685
 5584TIP3    H140947   5.571   1.176  11.143 -1.1058 -2.7424  0.3479
 5584TIP3    H240948   5.517   1.199  11.003  0.0875  1.3685  0.4410
 5585TIP3   OH240949   1.639   5.094  11.769  0.0568 -0.0686  0.0933
 5585TIP3    H140950   1.646   5.190  11.771  2.4562 -0.1904 -0.2171
 5585TIP3    H240951   1.675   5.066  11.853  1.3355 -0.7531 -0.6555
 5586TIP3   OH240952   2.348   5.952  13.459 -0.2318 -0.2668  0.2925
 5586TIP3    H140953   2.442   5.943  13.477 -0.2471  0.4398  0.7488
 5586TIP3    H240954   2.343   6.006  13.380 -0.2806  2.1974  1.8725
 5587TIP3   OH240955   4.582   6.605  10.688  0.2451  0.1721 -0.5271
 5587TIP3    H140956   4.669   6.582  10.654  0.4018 -1.3656  0.7791
 5587TIP3    H240957   4.601   6.664  10.761  0.1114  0.8662 -1.0530
 5588TIP3   OH240958   3.127   1.052  12.215 -0.1850  0.1138  0.3691
 5588TIP3    H140959   3.184   1.112  12.168  0.7423 -1.2604 -0.3447
 5588TIP3    H240960   3.172   1.037  12.298  0.1088 -0.3627  0.1282
 5589TIP3   OH240961   3.825   2.063  12.610 -0.4567  0.1704 -0.0600
 5589TIP3    H140962   3.766   1.998  12.647 -0.2503 -0.0396 -0.0927
 5589TIP3    H240963   3.894   2.073  12.675 -0.5949  0.5060  0.0330
 5590TIP3   OH240964   3.286   5.985  10.898  0.3791  0.0976 -0.7650
 5590TIP3    H140965   3.222   5.960  10.965 -0.0650  2.3218 -0.2745
 5590TIP3    H240966   3.277   5.918  10.830 -0.9151 -0.8388  0.2789
 5591TIP3   OH240967   5.246   2.516  13.176  0.0658  0.2807 -0.0034
 5591TIP3    H140968   5.300   2.447  13.137  0.9390 -0.1787  1.8844
 5591TIP3    H240969   5.291   2.597  13.154  1.1838 -0.0516  0.9387
 5592TIP3   OH240970   5.442   3.704  10.618 -0.4460 -0.2819 -0.4408
 5592TIP3    H140971   5.395   3.763  10.677 -1.0359  0.1177 -1.2993
 5592TIP3    H240972   5.375   3.643  10.588  0.2019 -1.5982  0.6484
 5593TIP3   OH240973   4.458   2.334  11.551 -0.9224 -0.0586 -0.0876
 5593TIP3    H140974   4.463   2.406  11.488 -1.1134 -0.5887 -0.7164
 5593TIP3    H240975   4.519   2.268  11.518  1.9092  1.1410  2.2800
 5594TIP3   OH240976   1.518   0.600  10.534 -0.1378 -0.2607  0.9228
 5594TIP3    H140977   1.544   0.609  10.625  0.7182  0.1580  0.6477
 5594TIP3    H240978   1.528   0.506  10.516  0.2696 -0.2511  1.0912
 5595TIP3   OH240979   4.383   0.561  12.637 -0.1450  0.0716 -0.3592
 5595TIP3    H140980   4.476   0.581  12.626 -0.1751  0.6552  0.4361
 5595TIP3    H240981   4.372   0.476  12.593  0.4369  0.7074 -1.8015
 5596TIP3   OH240982   2.190   0.549  12.774  0.7042  0.0965 -0.0097
 5596TIP3    H140983   2.184   0.643  12.758 -0.0099 -0.1607 -1.3824
 5596TIP3    H240984   2.099   0.520  12.782  0.9305 -0.3974  1.0204
 5597TIP3   OH240985   4.651   2.085  12.394 -0.6967 -0.0873 -0.3805
 5597TIP3    H140986   4.715   2.134  12.445 -0.7611  0.3057 -0.6756
 5597TIP3    H240987   4.661   1.994  12.424 -0.0641 -0.0156 -0.3590
 5598TIP3   OH240988   4.652   6.553  12.203  0.0946 -0.1364 -0.2996
 5598TIP3    H140989   4.587   6.613  12.240  0.7260 -0.3258  1.2178
 5598TIP3    H240990   4.624   6.466  12.232 -0.7751 -0.6332 -2.4202
 5599TIP3   OH240991   2.517   0.044  11.048  0.4196  0.1615 -0.0590
 5599TIP3    H140992   2.470  -0.025  11.095 -1.0461 -0.1758 -1.9056
 5599TIP3    H240993   2.471   0.053  10.965  0.0101  3.9504  0.3782
 5600TIP3   OH240994   3.917   1.677  11.540 -0.9479 -0.1379  0.3965
 5600TIP3    H140995   3.988   1.742  11.542  0.2376 -1.3886  0.8409
 5600TIP3    H240996   3.837   1.729  11.535  0.0315  1.3137 -1.8925
 5601TIP3   OH240997   5.113   2.116  11.905  1.0161  0.6996  0.3914
 5601TIP3    H140998   5.135   2.057  11.833  0.9623  1.3890 -0.2042
 5601TIP3    H240999   5.054   2.181  11.866  1.0745  1.1477  1.0302
 5602TIP3   OH241000   2.884   7.268  12.446 -0.2249  0.3918  0.2293
 5602TIP3    H141001   2.934   7.316  12.380 -1.8402  0.6970 -0.8408
 5602TIP3    H241002   2.810   7.232  12.397 -0.3325 -1.2134  1.4759
 5603TIP3   OH241003   1.893   3.077  13.555 -0.9988  0.1250 -0.2191
 5603TIP3    H141004   1.827   3.146  13.555  0.5669  1.6930  0.0725
 5603TIP3    H241005   1.875   3.027  13.475 -2.4080  0.6041 -0.2355
 5604TIP3   OH241006   6.502   5.926  12.411  0.7651  0.2531 -0.2091
 5604TIP3    H141007   6.544   5.919  12.497 -0.2360  1.0689  0.3724
 5604TIP3    H241008   6.457   5.842  12.400  2.0838 -0.4253 -0.6125
 5605TIP3   OH241009   5.439   7.240  12.893  0.1799  0.1964  0.1602
 5605TIP3    H141010   5.508   7.303  12.912  1.3025 -0.8130 -0.3846
 5605TIP3    H241011   5.480   7.179  12.832 -0.6408 -1.4016  1.1351
 5606TIP3   OH241012   6.872   1.232  12.240  0.4317 -0.2905 -0.1387
 5606TIP3    H141013   6.967   1.240  12.251  0.4695 -2.3726  1.5530
 5606TIP3    H241014   6.839   1.320  12.260  1.9940  0.5658 -1.0996
 5607TIP3   OH241015   0.972   2.194  10.374  0.0681  0.2662  0.1035
 5607TIP3    H141016   0.922   2.255  10.427  0.3135 -0.3126  1.0181
 5607TIP3    H241017   1.063   2.205  10.402  0.3154  0.4855 -0.7337
 5608TIP3   OH241018   6.791   7.524  12.931  0.4398 -0.4022 -0.2319
 5608TIP3    H141019   6.826   7.464  12.998  0.6196  1.8149  1.8199
 5608TIP3    H241020   6.704   7.547  12.964  0.5107  0.6881 -0.7697
 5609TIP3   OH241021   4.639   4.963  12.769 -0.2574  0.0436 -0.4804
 5609TIP3    H141022   4.685   4.903  12.828 -1.3722 -1.2234 -0.8688
 5609TIP3    H241023   4.574   5.006  12.826 -1.9158 -1.7969 -0.8668
 5610TIP3   OH241024   7.644   5.861  11.674  0.2856  0.6502  0.3957
 5610TIP3    H141025   7.618   5.815  11.753 -0.7213  0.6849  0.0948
 5610TIP3    H241026   7.615   5.805  11.602  3.7049 -0.8354 -0.0397
 5611TIP3   OH241027   6.569   0.866  11.476 -0.4113 -0.2135 -0.0927
 5611TIP3    H141028   6.628   0.819  11.417 -0.0864 -0.6574  0.5801
 5611TIP3    H241029   6.626   0.903  11.543 -0.8908 -0.7046  0.6092
 5612TIP3   OH241030   4.766   4.835  11.484  0.5967  0.0953 -0.6845
 5612TIP3    H141031   4.779   4.779  11.561  1.6680  0.2269 -0.7639
 5612TIP3    H241032   4.837   4.811  11.424 -0.1781  0.0438 -1.6210
 5613TIP3   OH241033   4.371   1.698  12.498  0.0543 -0.3375 -0.0317
 5613TIP3    H141034   4.355   1.622  12.554  1.0798 -1.3159 -1.0072
 5613TIP3    H241035   4.391   1.769  12.559 -0.9267 -0.8408  0.9027
 5614TIP3   OH241036   6.107   4.547  12.642  0.1012 -0.1668 -0.1055
 5614TIP3    H141037   6.167   4.621  12.653 -0.4850 -0.0387  3.5830
 5614TIP3    H241038   6.163   4.470  12.649  0.2031 -0.0674  0.1731
 5615TIP3   OH241039   4.696   5.589  11.517  0.3334 -0.0920 -0.3026
 5615TIP3    H141040   4.624   5.527  11.528  1.2654 -1.0129  0.7693
 5615TIP3    H241041   4.736   5.565  11.433 -0.3971  0.2177 -0.7447
 5616TIP3   OH241042   3.465   1.041  11.686 -0.4935  0.1646  0.4349
 5616TIP3    H141043   3.398   1.073  11.747 -0.2964  1.3130  0.0751
 5616TIP3    H241044   3.542   1.025  11.741 -0.8713 -0.5938  0.7595
 5617TIP3   OH241045   3.425   5.039  12.667  0.0501 -0.0746 -0.3566
 5617TIP3    H141046   3.517   5.059  12.651 -0.4015  1.6728 -1.0383
 5617TIP3    H241047   3.378   5.117  12.637 -1.3787  0.7346  3.3991
 5618TIP3   OH241048   2.040   6.043  12.211 -0.1574  0.6488  0.0020
 5618TIP3    H141049   2.120   6.095  12.219 -0.9433  1.9427 -0.2817
 5618TIP3    H241050   2.066   5.966  12.160  1.2248  0.3010  1.1751
 5619TIP3   OH241051   6.856   7.557  11.438 -0.1809  0.2489  0.5957
 5619TIP3    H141052   6.885   7.478  11.391 -0.5462  0.3005  0.2848
 5619TIP3    H241053   6.917   7.564  11.511 -0.5595 -0.7094  1.0158
 5620TIP3   OH241054   0.215   6.904  11.428  0.2017 -0.1111  0.1871
 5620TIP3    H141055   0.262   6.839  11.480 -1.5199 -0.5481  1.2775
 5620TIP3    H241056   0.230   6.987  11.474  0.1164 -0.2052  0.3841
 5621TIP3   OH241057   2.655   1.637  11.455 -0.6537  0.2591 -0.4186
 5621TIP3    H141058   2.576   1.636  11.400 -0.7249 -0.5212 -0.3167
 5621TIP3    H241059   2.664   1.728  11.483 -0.3434  0.7796 -2.1012
 5622TIP3   OH241060   3.617   1.044  11.251 -0.3053 -0.5363  0.1394
 5622TIP3    H141061   3.659   1.087  11.326  0.7644 -0.7211 -0.3406
 5622TIP3    H241062   3.617   1.111  11.183  1.2949 -1.2470 -0.5879
 5623TIP3   OH241063   6.512   3.694  13.355  0.5067  0.2243  0.6110
 5623TIP3    H141064   6.476   3.724  13.271 -1.1500 -0.9734  0.8502
 5623TIP3    H241065   6.592   3.646  13.331 -0.4128 -0.8631 -0.3974
 5624TIP3   OH241066   4.731   0.965  11.534 -0.0761  0.0545 -0.3649
 5624TIP3    H141067   4.777   1.042  11.501  0.4229 -0.8684 -1.8763
 5624TIP3    H241068   4.641   0.977  11.506  0.2068 -0.3898 -1.4962
 5625TIP3   OH241069   6.242   2.268  11.197  0.0104 -0.2919 -0.1116
 5625TIP3    H141070   6.249   2.257  11.292 -0.6893 -0.1722 -0.0415
 5625TIP3    H241071   6.321   2.316  11.173 -0.0373  0.0940  0.4831
 5626TIP3   OH241072   6.765   0.486  11.499 -0.7652 -0.7038  0.3305
 5626TIP3    H141073   6.850   0.517  11.468 -0.4768 -1.7150  0.0944
 5626TIP3    H241074   6.704   0.511  11.429 -0.6736  0.0136  0.4948
 5627TIP3   OH241075   6.845   0.454  12.581  0.1985  0.3180  0.2825
 5627TIP3    H141076   6.863   0.542  12.547 -0.8778  1.0314  1.4848
 5627TIP3    H241077   6.896   0.448  12.662 -0.3609  0.1455  0.6289
 5628TIP3   OH241078   7.686   2.254  10.407  0.3660 -0.1606  0.0006
 5628TIP3    H141079   7.655   2.166  10.387  1.6506 -0.6471  0.0375
 5628TIP3    H241080   7.708   2.252  10.500  2.1956 -0.4051 -0.3978
 5629TIP3   OH241081   6.329   7.629  11.366  0.3800 -0.3126  0.2130
 5629TIP3    H141082   6.356   7.629  11.274  1.6908  1.2482  0.5498
 5629TIP3    H241083   6.403   7.589  11.412 -0.3271 -1.2088  0.5943
 5630TIP3   OH241084   6.398   1.914  11.933  0.5289 -0.6118 -0.5353
 5630TIP3    H141085   6.333   1.960  11.879  0.7979 -1.5980 -1.7451
 5630TIP3    H241086   6.419   1.975  12.003 -1.7643 -0.2822 -0.0522
 5631TIP3   OH241087   4.648   0.534  10.892 -0.1011  0.6537 -0.4007
 5631TIP3    H141088   4.562   0.572  10.909 -0.1763  0.5714 -0.5944
 5631TIP3    H241089   4.638   0.489  10.808 -0.3873 -0.9061  0.4308
 5632TIP3   OH241090   2.909   1.092  13.415 -0.4748 -0.3608 -0.0597
 5632TIP3    H141091   2.859   1.012  13.429 -1.6039  0.2997 -0.2161
 5632TIP3    H241092   2.844   1.162  13.417  0.2113  0.3932 -1.8149
 5633TIP3   OH241093   2.238   1.925  12.499 -0.5546  0.5646  0.3830
 5633TIP3    H141094   2.163   1.879  12.462  0.3851  0.5627 -1.5955
 5633TIP3    H241095   2.263   1.873  12.576  1.0739 -2.9216 -2.2620
 5634TIP3   OH241096   5.955   5.441  13.328 -0.3075  0.1358 -0.1926
 5634TIP3    H141097   5.961   5.346  13.325  1.8304  0.2187 -0.0425
 5634TIP3    H241098   5.889   5.459  13.396 -1.1657 -1.2123 -0.6318
 5635TIP3   OH241099   2.207   0.389  12.098 -0.6256 -0.0745 -0.1011
 5635TIP3    H141100   2.169   0.385  12.011 -0.3501 -2.2540 -0.1637
 5635TIP3    H241101   2.141   0.349  12.155  0.9503 -2.8667 -0.0553
 5636TIP3   OH241102   4.530   0.919  13.015  0.3652 -0.5627 -0.3577
 5636TIP3    H141103   4.438   0.948  13.015  0.1138 -1.2500  1.0345
 5636TIP3    H241104   4.574   0.981  13.073  0.6184 -0.7099 -0.3930
 5637TIP3   OH241105   5.273   1.337  12.590  0.0704  0.5004  0.0981
 5637TIP3    H141106   5.351   1.309  12.638  0.0922  0.7195  0.1891
 5637TIP3    H241107   5.292   1.314  12.499 -0.2651 -0.5619  0.2853
 5638TIP3   OH241108   3.888   4.165  11.507  0.0558  0.4760  0.2733
 5638TIP3    H141109   3.962   4.224  11.523  0.5093  0.1439 -0.4984
 5638TIP3    H241110   3.929   4.080  11.490 -0.5573  0.0811  0.7258
 5639TIP3   OH241111   7.088   7.494  10.529  0.3541 -0.5055  0.0061
 5639TIP3    H141112   7.084   7.432  10.602 -0.6556  0.5430  0.8767
 5639TIP3    H241113   7.123   7.574  10.568 -1.5050  0.5003 -0.3214
 5640TIP3   OH241114   0.704   4.747  13.140 -0.0582 -0.0722 -0.2316
 5640TIP3    H141115   0.793   4.759  13.107 -0.1681  0.0223 -0.4969
 5640TIP3    H241116   0.686   4.654  13.126  0.1090 -0.1580  0.1045
 5641TIP3   OH241117   2.471   1.656  12.362  0.0725  0.3737  0.2467
 5641TIP3    H141118   2.494   1.737  12.406 -0.7805 -0.0106  1.4349
 5641TIP3    H241119   2.554   1.608  12.356  0.4117  0.9386  0.3361
 5642TIP3   OH241120   6.061   7.006  11.798 -0.3792  0.7666  0.1654
 5642TIP3    H141121   6.058   6.911  11.790 -2.8300  0.8608 -0.8822
 5642TIP3    H241122   6.104   7.022  11.882  0.0131 -1.2474  0.3857
 5643TIP3   OH241123   4.004   1.923  12.979 -0.0469  0.3801  0.2802
 5643TIP3    H141124   4.072   1.931  12.912 -1.3621 -1.3911 -1.3737
 5643TIP3    H241125   4.002   1.829  13.000 -2.6785  0.1782 -0.5575
 5644TIP3   OH241126   4.738   2.815  10.636  0.2220 -0.2396 -0.0441
 5644TIP3    H141127   4.687   2.881  10.683  1.4179  1.4206 -0.9858
 5644TIP3    H241128   4.829   2.844  10.645  0.5792 -0.4754 -2.4338
 5645TIP3   OH241129   5.060   5.445  11.561 -0.3686 -0.5112  0.7192
 5645TIP3    H141130   5.080   5.477  11.473  0.1239 -0.5535  0.8124
 5645TIP3    H241131   5.087   5.353  11.560 -0.1335 -0.4460  0.9887
 5646TIP3   OH241132   4.452   0.836  11.860 -0.1446 -0.6506  0.4080
 5646TIP3    H141133   4.387   0.830  11.790 -0.4689 -1.7731  0.7855
 5646TIP3    H241134   4.415   0.785  11.932  0.6271 -0.3303  1.0448
 5647TIP3   OH241135   1.884   4.246  10.839 -0.6125 -0.6161  0.0136
 5647TIP3    H141136   1.959   4.200  10.876  1.5920  1.3186 -1.7511
 5647TIP3    H241137   1.828   4.176  10.804  0.4309 -2.0970  1.1812
 5648TIP3   OH241138   2.636   2.936  11.191  0.3645  0.3225  0.1596
 5648TIP3    H141139   2.561   2.912  11.137  1.6272  1.0175 -2.0366
 5648TIP3    H241140   2.690   2.857  11.194  0.2118  0.2283  0.6129
 5649TIP3   OH241141   7.437   5.798  10.676  0.4152 -0.6722  0.1651
 5649TIP3    H141142   7.408   5.708  10.659 -0.3419  0.1334 -3.6667
 5649TIP3    H241143   7.363   5.838  10.723 -0.5560 -1.2465 -0.8299
 5650TIP3   OH241144   7.199   4.137  11.802  0.1514  0.1226  0.3595
 5650TIP3    H141145   7.207   4.065  11.865 -0.7893 -0.1301  0.2031
 5650TIP3    H241146   7.280   4.133  11.751  1.1436  0.6016  1.8211
 5651TIP3   OH241147   6.833   3.906  12.945  0.1464 -0.4401 -0.2008
 5651TIP3    H141148   6.780   3.986  12.945  0.9369  0.1206  1.3582
 5651TIP3    H241149   6.769   3.835  12.954 -0.4251  0.1766  0.8387
 5652TIP3   OH241150   5.128   0.065  13.335 -0.3623 -0.7857 -0.4922
 5652TIP3    H141151   5.051   0.010  13.322 -1.1795  0.7501 -2.6684
 5652TIP3    H241152   5.093   0.149  13.367  0.7015 -0.9155  1.1593
 5653TIP3   OH241153   4.418   5.320  12.287  0.2333  0.2888  0.2353
 5653TIP3    H141154   4.407   5.413  12.305  0.0025  0.1820  0.6849
 5653TIP3    H241155   4.505   5.299  12.322  0.3601  0.3706 -0.0277
 5654TIP3   OH241156   3.405   6.963  11.627 -0.0583  0.1992 -0.2458
 5654TIP3    H141157   3.463   6.909  11.574  1.6590  2.3931 -0.7323
 5654TIP3    H241158   3.405   6.921  11.713 -0.2594 -1.5496 -1.0581
 5655TIP3   OH241159   3.560   2.195  11.760 -0.3149 -0.0960  0.0180
 5655TIP3    H141160   3.491   2.169  11.820  0.4788 -1.2510  0.4733
 5655TIP3    H241161   3.560   2.291  11.763 -1.6953 -0.0796  0.2057
 5656TIP3   OH241162   6.108   4.942  11.818 -0.1752 -0.1484 -0.4194
 5656TIP3    H141163   6.135   5.024  11.776  1.7298 -0.1696  0.6224
 5656TIP3    H241164   6.072   4.969  11.903  1.3690 -0.3773  0.3550
 5657TIP3   OH241165   0.422   2.436  11.284  0.4810 -0.0674 -0.2474
 5657TIP3    H141166   0.409   2.342  11.292  1.3916 -0.1863 -0.0690
 5657TIP3    H241167   0.362   2.474  11.348  0.0466 -0.5166 -0.3798
 5658TIP3   OH241168   0.417   6.551  11.797 -0.1111  0.2713  0.3698
 5658TIP3    H141169   0.473   6.585  11.867 -0.2125 -1.9963  1.6458
 5658TIP3    H241170   0.471   6.483  11.755 -0.9712 -0.1632 -0.0512
 5659TIP3   OH241171   6.991   7.643  12.030 -0.1565 -0.4953  0.0127
 5659TIP3    H141172   6.960   7.731  12.012  1.3659 -0.0500 -0.6438
 5659TIP3    H241173   6.950   7.589  11.963  0.7590  0.1534 -1.1184
 5660TIP3   OH241174   3.217   0.786  10.838  0.1954  0.1817 -0.0767
 5660TIP3    H141175   3.143   0.737  10.803  0.1418  1.1382 -1.3301
 5660TIP3    H241176   3.294   0.732  10.817  0.0824  0.3512 -0.9430
 5661TIP3   OH241177   3.547   0.295  12.520  0.1316 -0.1331 -0.1345
 5661TIP3    H141178   3.562   0.221  12.462  2.1067  1.8483 -2.3733
 5661TIP3    H241179   3.465   0.334  12.487 -0.1684 -0.5264  0.1448
 5662TIP3   OH241180   6.176   3.351  10.723 -0.3743  0.2661 -0.3419
 5662TIP3    H141181   6.143   3.302  10.647 -2.1087  1.5649 -0.4945
 5662TIP3    H241182   6.236   3.415  10.686 -1.4336  1.0848 -0.6997
 5663TIP3   OH241183   6.003   7.441  10.614  0.1601 -0.0565  0.1585
 5663TIP3    H141184   6.065   7.393  10.669  0.7434  1.3466  0.7626
 5663TIP3    H241185   6.056   7.480  10.545 -0.3353 -0.3989 -0.4306
 5664TIP3   OH241186   3.209   0.231  12.569  0.1806  0.1683  0.2714
 5664TIP3    H141187   3.218   0.222  12.664  1.4881 -0.9973  0.0639
 5664TIP3    H241188   3.261   0.308  12.547 -0.2847  0.5587  0.5034
 5665TIP3   OH241189   4.090   0.025  11.178  0.2047 -0.0866  0.2616
 5665TIP3    H141190   4.023  -0.030  11.136  0.4163  0.4258 -0.7715
 5665TIP3    H241191   4.092  -0.006  11.269 -0.5321 -0.9674 -0.0017
 5666TIP3   OH241192   3.352   7.433  12.268  0.3725  0.3308  0.0328
 5666TIP3    H141193   3.298   7.494  12.218 -1.4828 -0.1608  1.3322
 5666TIP3    H241194   3.389   7.374  12.202  0.1187  1.2845 -0.9880
 5667TIP3   OH241195   1.070   1.498  12.431  0.3091 -0.2570  0.4900
 5667TIP3    H141196   1.139   1.564  12.422  0.9798 -0.9382  0.5863
 5667TIP3    H241197   1.022   1.525  12.509  0.7139 -0.0029  0.6545
 5668TIP3   OH241198   0.962   5.790  12.169 -0.1778  0.0500 -1.0036
 5668TIP3    H141199   0.908   5.802  12.247 -0.1078 -2.5326 -0.4650
 5668TIP3    H241200   1.050   5.816  12.198 -0.1571 -0.8499 -0.1771
 5669TIP3   OH241201   6.969   5.970  11.123 -0.3283 -0.1876  0.4759
 5669TIP3    H141202   6.877   5.984  11.144  0.1726  0.7723  2.2415
 5669TIP3    H241203   7.016   6.010  11.196  1.4921 -0.6431 -0.4022
 5670TIP3   OH241204   4.470   7.583  12.235 -0.3641  0.4915 -0.6759
 5670TIP3    H141205   4.395   7.636  12.211 -1.3194 -1.2196 -1.6907
 5670TIP3    H241206   4.436   7.519  12.297  0.9104  1.4164  1.0814
 5671TIP3   OH241207   4.598   4.410  12.735  0.1088 -0.5154 -0.2052
 5671TIP3    H141208   4.692   4.401  12.750  0.0392 -0.8922  0.0309
 5671TIP3    H241209   4.559   4.337  12.784 -0.2417 -0.9151 -1.0634
 5672TIP3   OH241210   5.568   0.102  10.879  0.4048 -0.5888  0.4049
 5672TIP3    H141211   5.512   0.026  10.859  0.2441 -0.8655  1.7434
 5672TIP3    H241212   5.547   0.166  10.812 -0.9962 -0.9698  0.4450
 5673TIP3   OH241213   4.745   2.450  11.883 -0.0392 -0.4084 -0.1736
 5673TIP3    H141214   4.650   2.435  11.874 -0.6887 -0.0462  4.1009
 5673TIP3    H241215   4.751   2.539  11.919  2.2472  0.7630 -3.0494
 5674TIP3   OH241216   1.712   1.571  10.922  0.1089  0.3582 -0.2876
 5674TIP3    H141217   1.699   1.596  10.831 -2.2471 -1.4691 -0.5527
 5674TIP3    H241218   1.627   1.539  10.951  0.5747  1.5285  2.8179
 5675TIP3   OH241219   1.405   5.507  12.019  0.3233 -1.0748 -0.4804
 5675TIP3    H141220   1.391   5.415  11.994  0.3408 -1.3458  0.4384
 5675TIP3    H241221   1.359   5.558  11.953  1.1822 -1.7115 -1.5937
 5676TIP3   OH241222   1.160   6.574  12.088 -0.9559 -0.0488 -0.4684
 5676TIP3    H141223   1.172   6.482  12.065 -0.5620 -0.0508 -0.2547
 5676TIP3    H241224   1.243   6.616  12.064  0.9951 -0.6542  4.1770
 5677TIP3   OH241225   0.554   3.036  12.098 -0.3466 -0.3169 -0.7055
 5677TIP3    H141226   0.463   3.053  12.073 -0.7866 -0.8919  0.4569
 5677TIP3    H241227   0.556   3.049  12.193  0.5932 -1.1406 -0.5987
 5678TIP3   OH241228   0.176   0.106  12.591 -0.0925  0.3616  0.3388
 5678TIP3    H141229   0.203   0.025  12.548 -1.0995  0.6145 -0.8113
 5678TIP3    H241230   0.189   0.174  12.525  1.0458  1.2095  1.3959
 5679TIP3   OH241231   3.015   7.538  11.378 -0.1229  0.1501 -0.0764
 5679TIP3    H141232   2.987   7.500  11.294  2.1606  0.7429 -1.2074
 5679TIP3    H241233   2.940   7.590  11.407 -0.6252  0.8186 -2.3506
 5680TIP3   OH241234   0.097   0.381  10.833 -0.5850 -0.1428 -0.1143
 5680TIP3    H141235   0.045   0.444  10.784  1.6356  1.0040 -1.1537
 5680TIP3    H241236   0.040   0.353  10.905 -2.6645  0.8265 -1.3089
 5681TIP3   OH241237   1.286   1.121  11.594 -0.2926 -0.4099  0.0432
 5681TIP3    H141238   1.243   1.037  11.611  0.2173 -0.6431  0.1799
 5681TIP3    H241239   1.371   1.114  11.638 -0.7125  0.6160  1.0678
 5682TIP3   OH241240   6.386   6.333  12.696 -0.2978 -0.2611  0.4372
 5682TIP3    H141241   6.357   6.248  12.665 -0.9640 -0.1635  0.7896
 5682TIP3    H241242   6.444   6.313  12.770  1.0535 -0.4795 -0.6345
 5683TIP3   OH241243   4.669   2.864  11.412 -0.1812  0.2097  0.3107
 5683TIP3    H141244   4.757   2.831  11.393 -0.7065 -1.3314  0.4333
 5683TIP3    H241245   4.682   2.924  11.486  0.6983 -0.4116  0.6853
 5684TIP3   OH241246   2.781   6.768  11.863 -0.3931 -0.5898  0.1140
 5684TIP3    H141247   2.848   6.755  11.930  0.7857  1.1464 -0.6168
 5684TIP3    H241248   2.801   6.703  11.796 -0.0690 -0.7639  0.3773
 5685TIP3   OH241249   5.411   6.756  11.629 -0.7209  0.2146  0.1250
 5685TIP3    H141250   5.321   6.786  11.643 -1.2246 -0.2793 -1.7648
 5685TIP3    H241251   5.461   6.836  11.616 -0.4062  0.6510  3.1207
 5686TIP3   OH241252   1.411   4.640  10.801  0.1984  0.5590  0.7547
 5686TIP3    H141253   1.424   4.715  10.742  1.5574 -0.2682 -0.0428
 5686TIP3    H241254   1.316   4.639  10.816 -0.1715  1.0158 -1.1592
 5687TIP3   OH241255   4.567   0.988  11.101  0.2370  0.9676 -0.0728
 5687TIP3    H141256   4.483   0.946  11.083  0.2526  1.5667 -1.7194
 5687TIP3    H241257   4.632   0.934  11.056  1.2489 -1.2305  3.5810
 5688TIP3   OH241258   2.014   7.118  11.289  0.2163  0.0368 -0.1746
 5688TIP3    H141259   1.963   7.161  11.220  0.4311 -2.1482 -1.8139
 5688TIP3    H241260   2.105   7.139  11.267  0.2205  1.1964  0.8241
 5689TIP3   OH241261   2.475   7.338  13.370  0.0353  0.1064 -0.8077
 5689TIP3    H141262   2.456   7.299  13.284 -1.1454 -2.2807  0.4441
 5689TIP3    H241263   2.562   7.305  13.393  0.7949  1.5505 -1.4466
 5690TIP3   OH241264   3.364   7.475  12.724  0.1563  0.0468 -0.6384
 5690TIP3    H141265   3.327   7.552  12.766 -0.7494 -0.9253  0.4115
 5690TIP3    H241266   3.314   7.466  12.643  1.3344  1.4417 -1.5552
 5691TIP3   OH241267   1.923   2.379  12.226 -0.7005  0.0468  0.1020
 5691TIP3    H141268   1.852   2.389  12.162 -2.0500 -0.3023  1.4901
 5691TIP3    H241269   1.891   2.425  12.304 -0.5524 -2.2654  1.6291
 5692TIP3   OH241270   6.902   6.628  10.976 -0.1317  0.5990 -0.1988
 5692TIP3    H141271   6.956   6.581  11.039 -1.4152 -0.0959  0.4242
 5692TIP3    H241272   6.863   6.559  10.922  0.5109  1.1537 -1.3953
 5693TIP3   OH241273   4.051   2.889  12.990 -0.1851  0.5301 -0.2513
 5693TIP3    H141274   4.146   2.880  12.990 -0.3145 -1.3035 -1.6165
 5693TIP3    H241275   4.033   2.952  12.919  0.0276  1.8406  0.8089
 5694TIP3   OH241276   7.336   0.794  11.236 -0.6636 -0.4418  0.1450
 5694TIP3    H141277   7.302   0.709  11.264 -1.5417  0.5593  2.3829
 5694TIP3    H241278   7.416   0.806  11.288  0.2769 -0.4935 -1.2386
 5695TIP3   OH241279   2.849   3.295  13.334  0.1313 -0.3588  0.1676
 5695TIP3    H141280   2.826   3.258  13.249  0.5545  0.2982 -0.2489
 5695TIP3    H241281   2.776   3.273  13.391  0.1893 -1.4747 -0.1633
 5696TIP3   OH241282   1.043   7.518  10.798  0.3054 -0.0073 -0.7089
 5696TIP3    H141283   1.023   7.535  10.890  2.6898  0.1501 -0.1438
 5696TIP3    H241284   1.129   7.558  10.784 -0.1946  0.3932 -3.1602
 5697TIP3   OH241285   1.493   2.695  10.885  0.1866 -0.1930  0.0475
 5697TIP3    H141286   1.555   2.714  10.814  0.9543 -1.3612  0.3776
 5697TIP3    H241287   1.470   2.781  10.920  2.0647  0.2781  0.2713
 5698TIP3   OH241288   5.900   6.895  11.248  0.2162 -0.2802  0.1518
 5698TIP3    H141289   5.944   6.961  11.302 -0.3900 -0.1792  0.5293
 5698TIP3    H241290   5.818   6.877  11.294  0.0478 -0.7676 -0.3310
 5699TIP3   OH241291   5.515   2.742  12.433 -0.6113  0.2951  0.0180
 5699TIP3    H141292   5.551   2.792  12.359 -1.2035 -0.3153 -0.6943
 5699TIP3    H241293   5.483   2.661  12.394 -2.2105  0.5508  0.7159
 5700TIP3   OH241294   6.681   5.969  11.116 -0.0705 -0.0928  0.1015
 5700TIP3    H141295   6.587   5.954  11.120 -0.2109  0.2747 -1.3095
 5700TIP3    H241296   6.691   6.054  11.073  0.8890  0.2372  0.9381
 5701TIP3   OH241297   4.458   2.226  10.736  0.4434  0.4539 -0.2221
 5701TIP3    H141298   4.492   2.187  10.817 -1.0312  0.3433  0.3740
 5701TIP3    H241299   4.534   2.230  10.678  1.3768 -0.1387  0.9088
 5702TIP3   OH241300   5.233   1.959  11.708 -0.5075  0.3274  0.0708
 5702TIP3    H141301   5.237   2.023  11.637  0.7440 -0.0409 -0.2049
 5702TIP3    H241302   5.172   1.892  11.676 -0.1734  0.3071 -0.5424
 5703TIP3   OH241303   0.391   4.855  10.578 -0.6328 -0.4128  0.4016
 5703TIP3    H141304   0.340   4.782  10.542 -0.3507 -0.3037 -0.2372
 5703TIP3    H241305   0.360   4.932  10.530  0.7348 -0.4719 -0.6387
 5704TIP3   OH241306   2.154   3.133  13.491  0.6044  0.2840 -0.2339
 5704TIP3    H141307   2.212   3.057  13.498  0.1719 -0.0341 -0.0566
 5704TIP3    H241308   2.072   3.104  13.531  0.3801  0.7884 -0.3241
 5705TIP3   OH241309   2.723   5.243  11.114  0.4507 -0.0190 -0.5486
 5705TIP3    H141310   2.757   5.197  11.037  0.8008 -1.3977  0.3915
 5705TIP3    H241311   2.630   5.258  11.094  0.0838 -2.0042 -0.5285
 5706TIP3   OH241312   2.777   3.950  11.449 -0.1656 -0.4169  0.4466
 5706TIP3    H141313   2.712   3.928  11.516 -1.1656 -2.2780 -1.0284
 5706TIP3    H241314   2.832   3.873  11.443  3.4771  1.7024  2.8672
 5707TIP3   OH241315   6.179   7.333  12.831 -0.5112  0.0420 -0.3988
 5707TIP3    H141316   6.190   7.302  12.921  0.5564 -1.8927 -1.1424
 5707TIP3    H241317   6.085   7.330  12.816 -0.5976 -0.9455  0.2214
 5708TIP3   OH241318   3.534   3.013  11.952  0.0948  0.8328  0.2055
 5708TIP3    H141319   3.592   2.963  12.011  0.3058 -1.2196 -1.6256
 5708TIP3    H241320   3.594   3.059  11.894 -0.1018  0.4951 -0.2673
 5709TIP3   OH241321   2.130   4.694  10.526  0.1432 -0.1512 -0.6195
 5709TIP3    H141322   2.096   4.634  10.593 -0.0535 -0.5269 -1.0461
 5709TIP3    H241323   2.153   4.637  10.453  2.1423  0.0178 -0.1997
 5710TIP3   OH241324   0.581   4.987  11.024  0.5595 -0.2885  0.3739
 5710TIP3    H141325   0.502   4.994  10.970 -0.2029 -2.4368  1.1179
 5710TIP3    H241326   0.619   5.075  11.021 -1.4393  0.6213 -0.6374
 5711TIP3   OH241327   4.115   5.740  10.760  0.6542  0.5663 -0.4009
 5711TIP3    H141328   4.061   5.818  10.775  0.8833  0.9074 -1.2751
 5711TIP3    H241329   4.204   5.770  10.776  0.5656 -0.2272  1.9520
 5712TIP3   OH241330   6.050   3.552  13.172 -0.5057  0.1575 -0.1961
 5712TIP3    H141331   5.960   3.522  13.184 -0.4793  0.5460  1.0752
 5712TIP3    H241332   6.046   3.611  13.096 -1.3625  0.3276 -0.0211
 5713TIP3   OH241333   1.036   5.481  11.482  0.2487 -0.5493  0.6724
 5713TIP3    H141334   0.967   5.521  11.429  0.1375 -0.4727  0.8721
 5713TIP3    H241335   1.111   5.476  11.424  0.4384  0.4806  0.8063
 5714TIP3   OH241336   7.471   5.238  13.306  0.4124  0.1182  0.2783
 5714TIP3    H141337   7.433   5.323  13.326  1.5060  1.1031 -1.6221
 5714TIP3    H241338   7.498   5.244  13.215  1.6219 -1.8505  0.4516
 5715TIP3   OH241339   0.940   6.339  11.745 -0.3454  0.0616 -0.2957
 5715TIP3    H141340   1.033   6.317  11.746 -0.4603 -0.5400 -1.5001
 5715TIP3    H241341   0.938   6.435  11.739  0.1533  0.4479  3.2496
 5716TIP3   OH241342   1.400   5.810  11.461  0.1921 -0.5948  0.1684
 5716TIP3    H141343   1.315   5.828  11.420 -0.6715  0.1530  2.1235
 5716TIP3    H241344   1.426   5.893  11.499  1.2040 -1.1154  0.6534
 5717TIP3   OH241345   1.268   7.325  12.234 -0.2989 -0.5434  0.5925
 5717TIP3    H141346   1.279   7.395  12.169  0.0615 -0.6636  0.5208
 5717TIP3    H241347   1.271   7.371  12.318 -0.2446 -0.4503  0.5412
 5718TIP3   OH241348   3.831   0.963  10.834 -0.0560  0.1098  0.4272
 5718TIP3    H141349   3.766   0.898  10.808  0.1043 -0.6167  1.7211
 5718TIP3    H241350   3.783   1.045  10.839 -0.4380 -0.0547 -0.4765
 5719TIP3   OH241351   5.048   4.589  11.982  0.3931 -0.3016  0.4882
 5719TIP3    H141352   5.140   4.572  11.999  0.4129  0.6186  1.3994
 5719TIP3    H241353   5.044   4.605  11.888  1.5869  1.8719  0.7210
 5720TIP3   OH241354   1.846   5.841  11.689 -0.3433  0.2055 -0.6676
 5720TIP3    H141355   1.892   5.765  11.652  0.4346  1.2455 -1.9061
 5720TIP3    H241356   1.757   5.809  11.704  0.3409 -1.3804  0.2859
 5721TIP3   OH241357   5.721   2.586  10.323  0.1803 -0.0773 -0.3184
 5721TIP3    H141358   5.699   2.664  10.372 -1.1790 -0.1006 -0.8380
 5721TIP3    H241359   5.815   2.575  10.334 -0.0335  0.0349  2.0769
 5722TIP3   OH241360   1.921   6.393  13.049  0.5216  0.2996 -0.5089
 5722TIP3    H141361   1.866   6.360  13.120  0.2849 -1.1574 -1.3294
 5722TIP3    H241362   1.948   6.480  13.078 -0.2435  0.0717  0.9845
 5723TIP3   OH241363   5.654   3.899  11.538 -0.6975  0.3136 -0.1796
 5723TIP3    H141364   5.610   3.888  11.622 -1.0122  1.5470 -0.1738
 5723TIP3    H241365   5.691   3.987  11.541  0.0233  0.0539 -0.9989
 5724TIP3   OH241366   1.323   6.329  12.303  0.3048  0.4942  0.2796
 5724TIP3    H141367   1.262   6.346  12.231 -0.0166 -2.4684 -0.2868
 5724TIP3    H241368   1.277   6.362  12.381 -2.1669 -1.6472 -0.1205
 5725TIP3   OH241369   2.909   5.958  13.014 -0.2731 -0.0224  0.5198
 5725TIP3    H141370   2.884   5.940  13.104  0.5595 -1.0287  0.5727
 5725TIP3    H241371   2.981   6.020  13.020  2.8088 -3.3330  0.8752
 5726TIP3   OH241372   1.237   4.254  11.660  0.0418  0.1468  0.1621
 5726TIP3    H141373   1.155   4.302  11.667 -0.7502 -1.1132 -0.1157
 5726TIP3    H241374   1.254   4.249  11.566  0.5411  0.5660  0.2273
 5727TIP3   OH241375   6.722   3.198  12.420  0.0281 -0.0761  0.1490
 5727TIP3    H141376   6.669   3.259  12.472  1.9628  1.0368  0.9328
 5727TIP3    H241377   6.663   3.167  12.351 -1.6344  1.0361  1.0071
 5728TIP3   OH241378   6.839   0.595  10.648 -0.0731  0.2176 -0.3728
 5728TIP3    H141379   6.885   0.623  10.569  1.2632 -1.1271 -0.1204
 5728TIP3    H241380   6.908   0.582  10.713 -1.0682  0.5150  0.7783
 5729TIP3   OH241381   6.891   6.803  11.951 -0.5065  0.0940 -0.2326
 5729TIP3    H141382   6.836   6.799  12.029 -2.6305 -0.3981 -1.6590
 5729TIP3    H241383   6.842   6.754  11.885  1.8033 -0.5915 -1.5623
 5730TIP3   OH241384   0.581   6.744  12.513 -0.3579 -0.2949  0.1425
 5730TIP3    H141385   0.535   6.827  12.522 -0.5177 -0.2104 -1.2314
 5730TIP3    H241386   0.521   6.689  12.463  0.2078 -0.8504  0.0651
 5731TIP3   OH241387   4.333   5.019  12.193  0.0045  0.1307 -0.3696
 5731TIP3    H141388   4.390   4.947  12.219  0.2973  0.5000  0.0344
 5731TIP3    H241389   4.393   5.093  12.181 -0.6784  1.5653  3.7024
 5732TIP3   OH241390   5.717   2.531  12.911  0.4810  0.3239  0.4971
 5732TIP3    H141391   5.740   2.600  12.973  0.0880  0.3654  0.5966
 5732TIP3    H241392   5.799   2.512  12.865  0.5618  0.9633  0.3608
 5733TIP3   OH241393   3.463   1.536  12.853  0.2849 -0.4542  0.0435
 5733TIP3    H141394   3.521   1.476  12.901  1.0404 -0.3237 -0.6856
 5733TIP3    H241395   3.517   1.567  12.780 -0.7451 -0.4043 -0.7070
 5734TIP3   OH241396   5.355   7.571  10.741 -0.2808 -0.5429  0.6215
 5734TIP3    H141397   5.343   7.644  10.680 -0.3861  0.2424  1.5600
 5734TIP3    H241398   5.431   7.524  10.707  1.6656  1.6965  1.5804
 5735TIP3   OH241399   7.435   0.688  10.508  0.3896 -0.2368  0.1934
 5735TIP3    H141400   7.425   0.723  10.597  0.1609  1.0319 -0.3125
 5735TIP3    H241401   7.425   0.593  10.519  1.5951 -0.2438  1.6968
 5736TIP3   OH241402   5.391   6.355  12.218 -0.7390 -0.1565  0.3860
 5736TIP3    H141403   5.345   6.282  12.257 -1.0206 -0.2839 -0.1676
 5736TIP3    H241404   5.450   6.315  12.153 -2.0698  0.1692 -1.1004
 5737TIP3   OH241405   7.234   1.607  11.288  0.0209  0.3407 -0.5396
 5737TIP3    H141406   7.146   1.590  11.324  0.0848  1.6074  0.2957
 5737TIP3    H241407   7.218   1.659  11.209 -0.0131  0.0050 -0.7514
 5738TIP3   OH241408   7.012   6.656  10.645 -0.1502 -0.0856  0.2135
 5738TIP3    H141409   7.058   6.740  10.649  0.5261 -0.4063 -0.5383
 5738TIP3    H241410   6.946   6.667  10.577 -1.9332  0.6954  1.9399
 5739TIP3   OH241411   1.692   5.396  10.994 -0.0166  0.1100 -0.7832
 5739TIP3    H141412   1.647   5.436  11.069 -0.1534 -0.5180 -0.5197
 5739TIP3    H241413   1.700   5.304  11.018  0.1472 -0.0537 -1.4481
 5740TIP3   OH241414   1.739   5.107  11.278  0.1115  0.3041 -0.3687
 5740TIP3    H141415   1.735   5.200  11.299  2.4973  0.7768 -1.5678
 5740TIP3    H241416   1.702   5.101  11.190  2.1567  0.6106 -1.3178
 5741TIP3   OH241417   6.567   6.418  13.418  0.0389 -0.3968  0.4140
 5741TIP3    H141418   6.565   6.329  13.454 -2.6742 -1.1453 -1.2993
 5741TIP3    H241419   6.481   6.454  13.440  0.1331  0.8472 -1.1087
 5742TIP3   OH241420   1.971   1.438  11.385 -0.5721 -0.0600  0.6183
 5742TIP3    H141421   1.963   1.369  11.319  2.6847 -0.1256  0.1063
 5742TIP3    H241422   1.987   1.518  11.334  0.9839  0.0600  1.2439
 5743TIP3   OH241423   5.508   0.729  17.634 -0.1145  0.1743  0.0359
 5743TIP3    H141424   5.536   0.821  17.630 -1.6032  0.6899  0.9210
 5743TIP3    H241425   5.441   0.721  17.565  0.0202 -0.2601 -0.0486
 5744TIP3   OH241426   2.807   3.906  12.562 -0.0658  0.0478  0.6869
 5744TIP3    H141427   2.817   3.984  12.617  1.9213 -0.6740  1.4552
 5744TIP3    H241428   2.878   3.848  12.590 -0.7446 -1.5349 -0.7088
 5745TIP3   OH241429   6.611   2.441  11.482  0.2257 -0.3369 -0.1744
 5745TIP3    H141430   6.594   2.535  11.468 -0.0712 -0.1318  1.3695
 5745TIP3    H241431   6.673   2.438  11.554 -0.5224 -1.3425  0.4556
 5746TIP3   OH241432   0.811   5.712  11.961  0.0556 -0.2286  0.0265
 5746TIP3    H141433   0.888   5.684  11.911 -1.2864 -0.7714 -1.8741
 5746TIP3    H241434   0.837   5.703  12.052  2.8824  1.3886 -0.4890
 5747TIP3   OH241435   5.333   4.273  11.459  0.0088  0.6031  0.4932
 5747TIP3    H141436   5.392   4.258  11.533  1.5333  1.0239 -0.5905
 5747TIP3    H241437   5.391   4.281  11.383 -1.5554 -0.9868 -0.9750
 5748TIP3   OH241438   6.337   1.245  11.086  0.0854 -0.1699  0.0674
 5748TIP3    H141439   6.263   1.248  11.147  1.0862 -2.8675  1.6159
 5748TIP3    H241440   6.413   1.262  11.141  0.8312 -0.3234 -0.9064
 5749TIP3   OH241441   5.548   7.439  10.582  0.2880  0.0420  0.1047
 5749TIP3    H141442   5.557   7.510  10.518 -0.3544 -0.5117 -0.6171
 5749TIP3    H241443   5.635   7.428  10.618  0.5869  0.5929 -0.4322
 5750TIP3   OH241444   5.732   0.300  11.682 -0.4808 -0.3307 -0.9369
 5750TIP3    H141445   5.769   0.321  11.768 -2.4878 -0.4798  0.0105
 5750TIP3    H241446   5.798   0.244  11.641  0.7075  0.0768  0.3253
 5751TIP3   OH241447   2.807   3.764  11.023 -0.2830 -0.3131  0.5074
 5751TIP3    H141448   2.782   3.672  11.028  0.0986 -0.4314  0.3099
 5751TIP3    H241449   2.856   3.771  10.941  1.5296 -0.3931  1.5242
 5752TIP3   OH241450   3.158   6.832  13.008  0.1327  0.5434 -0.0833
 5752TIP3    H141451   3.066   6.838  13.030 -0.1270 -0.9105 -0.6252
 5752TIP3    H241452   3.170   6.741  12.981  1.5683  0.8873 -0.7082
 5753TIP3   OH241453   6.655   5.967  11.498  0.6726  0.4905 -0.0456
 5753TIP3    H141454   6.585   6.025  11.470  0.5672  0.0046 -0.8026
 5753TIP3    H241455   6.734   6.022  11.497  0.2676  1.1223  1.1253
 5754TIP3   OH241456   2.773   4.658  12.738 -0.1859 -0.1470 -0.1467
 5754TIP3    H141457   2.866   4.654  12.760 -0.1975 -1.5579 -0.2189
 5754TIP3    H241458   2.771   4.647  12.643 -0.4641 -1.3082 -0.0199
 5755TIP3   OH241459   3.500   5.623  10.802 -0.2236  0.0260 -0.0336
 5755TIP3    H141460   3.430   5.559  10.816 -1.5243  1.6255  1.0509
 5755TIP3    H241461   3.510   5.667  10.886 -0.1076  1.9706 -1.0074
 5756TIP3   OH241462   2.275   7.385  12.663 -0.5667  0.4860  0.0105
 5756TIP3    H141463   2.272   7.432  12.579 -2.1594  1.1055  0.3772
 5756TIP3    H241464   2.190   7.402  12.703 -0.2604 -0.7426  1.2611
 5757TIP3   OH241465   1.675   6.786  11.774  0.7167  0.6396 -0.3651
 5757TIP3    H141466   1.660   6.727  11.700 -0.1935  0.7930 -0.3172
 5757TIP3    H241467   1.594   6.837  11.780  0.7590  0.5814  0.7816
 5758TIP3   OH241468   4.424   2.338  11.099 -0.1508  0.0181  0.3007
 5758TIP3    H141469   4.472   2.259  11.124 -0.1252  0.0300  0.2884
 5758TIP3    H241470   4.489   2.408  11.104 -0.2318  0.0781  0.5538
 5759TIP3   OH241471   6.248   0.763  10.534  0.7569  0.4246  0.0947
 5759TIP3    H141472   6.330   0.748  10.580  0.6540  0.2218  0.2098
 5759TIP3    H241473   6.236   0.858  10.538 -0.3828  0.2644  2.4639
 5760TIP3   OH241474   0.090   3.919  10.904  0.2683  0.3923  0.2699
 5760TIP3    H141475   0.045   3.841  10.874  0.2578 -0.0202  1.3423
 5760TIP3    H241476   0.026   3.990  10.894  0.2092  0.2377 -0.4946
 5761TIP3   OH241477   5.570   1.921  11.369 -0.4218 -0.3310  0.1216
 5761TIP3    H141478   5.594   1.953  11.282  0.8090 -1.8075 -0.1310
 5761TIP3    H241479   5.588   1.995  11.427 -0.0469  0.2704 -0.7309
 5762TIP3   OH241480   0.990   1.285  12.281  0.0137 -0.4122 -0.5614
 5762TIP3    H141481   1.027   1.363  12.323 -1.7022  1.3756 -2.1716
 5762TIP3    H241482   0.950   1.236  12.353  3.1386 -1.1479  0.8412
 5763TIP3   OH241483   1.617   4.695  12.978 -0.3397 -0.1913  0.5756
 5763TIP3    H141484   1.594   4.788  12.970  1.6312  0.2792 -0.3759
 5763TIP3    H241485   1.626   4.665  12.888 -1.8831 -1.6153  0.8449
 5764TIP3   OH241486   2.868   4.936  11.441  0.0623 -0.0882 -0.4972
 5764TIP3    H141487   2.915   5.014  11.470  0.7207 -0.5331 -0.3481
 5764TIP3    H241488   2.936   4.872  11.423 -0.4350 -0.4254 -1.2508
 5765TIP3   OH241489   2.012   5.066  11.263  0.1041 -0.7296 -0.0329
 5765TIP3    H141490   2.046   5.058  11.352 -1.5121 -0.4051  0.6479
 5765TIP3    H241491   1.917   5.064  11.273 -0.1152 -1.0017 -1.7914
 5766TIP3   OH241492   4.150   5.988  13.480  0.2864  0.1874  0.6011
 5766TIP3    H141493   4.076   5.963  13.426  0.4765 -0.6303  0.7065
 5766TIP3    H241494   4.162   6.081  13.464 -0.0277  0.0757 -0.3121
 5767TIP3   OH241495   3.654   4.932  11.067  0.0198  0.3148  0.8337
 5767TIP3    H141496   3.745   4.914  11.091 -0.4165 -1.0768  1.5550
 5767TIP3    H241497   3.660   5.005  11.006  1.6746 -0.1156  0.4158
 5768TIP3   OH241498   5.454   5.969  11.835 -0.2244 -0.2008  0.2930
 5768TIP3    H141499   5.422   5.883  11.860 -0.4998 -0.4348 -0.8143
 5768TIP3    H241500   5.422   6.027  11.904 -3.5341 -0.3311 -0.9254
 5769TIP3   OH241501   4.264   6.956  11.998  0.0602  0.0243 -0.4640
 5769TIP3    H141502   4.314   6.992  12.072 -0.4125 -0.0522 -0.1065
 5769TIP3    H241503   4.328   6.951  11.927  0.2731  1.0680 -0.3686
 5770TIP3   OH241504   0.434   1.404  10.853 -0.2856 -0.4340  0.2384
 5770TIP3    H141505   0.521   1.415  10.891 -0.3051  0.4016  0.0605
 5770TIP3    H241506   0.402   1.493  10.840 -1.3460 -0.7323  0.7050
 5771TIP3   OH241507   1.143   1.843  11.450  0.5281 -0.2370 -0.2272
 5771TIP3    H141508   1.222   1.845  11.505 -0.2229  1.0878  0.8689
 5771TIP3    H241509   1.097   1.923  11.473 -0.9297 -0.7745 -1.1890
 5772TIP3   OH241510   2.268   3.237  12.589  0.3083  0.3067 -0.1675
 5772TIP3    H141511   2.285   3.285  12.508 -1.2766 -1.2809 -1.5413
 5772TIP3    H241512   2.193   3.181  12.568  1.6763 -2.3326  1.4444
 5773TIP3   OH241513   2.435   0.416  11.687 -0.5303 -0.4514  0.4148
 5773TIP3    H141514   2.367   0.457  11.740 -0.6864  0.0048 -0.1294
 5773TIP3    H241515   2.388   0.379  11.612 -0.1655  0.0480 -0.0746
 5774TIP3   OH241516   0.799   3.583  12.108  0.8540 -0.1837  0.1236
 5774TIP3    H141517   0.809   3.671  12.144  0.3239 -0.4400  0.9210
 5774TIP3    H241518   0.837   3.589  12.020 -0.1570  1.1128 -0.2602
 5775TIP3   OH241519   3.100   5.865  11.864 -0.0327 -0.9123  0.1876
 5775TIP3    H141520   3.180   5.880  11.813 -0.4599 -0.0432 -0.2327
 5775TIP3    H241521   3.131   5.864  11.955  0.0830  2.7872  0.3360
 5776TIP3   OH241522   6.590   1.122  12.243 -0.2905  0.7937  0.1003
 5776TIP3    H141523   6.572   1.082  12.158 -0.7555  0.3074  0.4202
 5776TIP3    H241524   6.684   1.114  12.254 -0.5435 -2.0925  1.0404
 5777TIP3   OH241525   4.463   7.617  13.026  0.5293 -0.9932  0.7652
 5777TIP3    H141526   4.490   7.624  13.117  0.2123 -0.9312  0.8546
 5777TIP3    H241527   4.377   7.657  13.023 -1.0583 -4.0880  1.1668
 5778TIP3   OH241528   4.310   2.403  12.517  0.2186  0.1178  0.0214
 5778TIP3    H141529   4.248   2.440  12.454  1.7410  0.9022 -1.0912
 5778TIP3    H241530   4.344   2.479  12.565  0.1924 -0.3208  0.7602
 5779TIP3   OH241531   4.394   5.237  12.729  0.4621  0.6509  0.3527
 5779TIP3    H141532   4.310   5.280  12.742  0.6299  0.5973  1.7565
 5779TIP3    H241533   4.379   5.175  12.657 -0.4370  1.2792 -0.0125
 5780TIP3   OH241534   5.666   5.567  11.054 -0.3558  0.2956  0.1884
 5780TIP3    H141535   5.649   5.659  11.033 -0.8122 -0.2962 -2.2889
 5780TIP3    H241536   5.729   5.538  10.988  1.2634 -0.7458  2.0446
 5781TIP3   OH241537   3.441   5.742  13.450  0.6690  0.2777 -0.4917
 5781TIP3    H141538   3.498   5.668  13.471  1.5055  1.4230  1.6370
 5781TIP3    H241539   3.353   5.705  13.448  0.9948 -0.6833  1.2112
 5782TIP3   OH241540   5.543   1.683  12.656 -0.4519  0.4653 -0.3416
 5782TIP3    H141541   5.564   1.655  12.745 -0.4148  0.8227 -0.2356
 5782TIP3    H241542   5.513   1.773  12.666  0.5937  0.8883 -0.8079
 5783TIP3   OH241543   3.174   0.198  11.626  1.0381 -0.0494 -0.1792
 5783TIP3    H141544   3.187   0.287  11.659  1.6500  0.1985 -1.0544
 5783TIP3    H241545   3.082   0.196  11.598  0.6422 -0.1222  1.0711
 5784TIP3   OH241546   6.060   3.954  11.343  0.7736 -0.4646  0.0340
 5784TIP3    H141547   6.061   3.870  11.389 -0.3009 -0.3465  0.2900
 5784TIP3    H241548   6.054   3.930  11.250  2.4727 -0.6876 -0.0646
 5785TIP3   OH241549   1.001   4.062  13.282 -0.5820 -0.0523  0.0087
 5785TIP3    H141550   0.952   4.064  13.364 -1.7817 -2.1190 -0.5854
 5785TIP3    H241551   0.935   4.045  13.215  0.2552  2.3427 -1.5556
 5786TIP3   OH241552   2.849   0.447  12.098 -0.5233 -0.7081 -0.0933
 5786TIP3    H141553   2.765   0.427  12.141  0.0591 -0.2511  1.3157
 5786TIP3    H241554   2.914   0.402  12.151  0.0968 -1.5695 -1.5413
 5787TIP3   OH241555   2.641   5.466  12.310 -0.4450 -0.2354 -0.0586
 5787TIP3    H141556   2.645   5.425  12.397  2.2590  2.2011  1.1305
 5787TIP3    H241557   2.610   5.555  12.326 -0.0012  0.2323 -1.5896
 5788TIP3   OH241558   0.013   1.628  12.178  0.2357 -0.0531  0.5798
 5788TIP3    H141559   0.085   1.570  12.203 -0.2225 -0.6997  0.4268
 5788TIP3    H241560  -0.009   1.675  12.258  0.5358 -0.1726  0.7350
 5789TIP3   OH241561   1.835   0.545  12.213  0.1191  0.1122  0.5133
 5789TIP3    H141562   1.909   0.524  12.269  1.8842  1.2682 -1.2561
 5789TIP3    H241563   1.806   0.460  12.178  2.1290 -0.1907 -0.5355
 5790TIP3   OH241564   0.228   3.374  12.096  0.6448 -0.0177 -0.3452
 5790TIP3    H141565   0.157   3.376  12.160  0.2240  1.2809 -0.8136
 5790TIP3    H241566   0.190   3.332  12.019  1.0554 -1.2906  0.1284
 5791TIP3   OH241567   4.137   5.093  12.898  0.1626 -0.0537 -0.2491
 5791TIP3    H141568   4.125   5.006  12.935  0.7850  0.3223  0.8784
 5791TIP3    H241569   4.145   5.151  12.974  0.8573  0.8333 -0.9748
 5792TIP3   OH241570   5.049   1.837  11.547 -0.0461  0.3923  0.1468
 5792TIP3    H141571   5.124   1.856  11.491 -1.2495 -0.8905 -1.9933
 5792TIP3    H241572   5.038   1.742  11.542 -0.5878  0.3021  2.0961
 5793TIP3   OH241573   4.898   1.861  13.415 -0.3083  0.4224  0.3705
 5793TIP3    H141574   4.939   1.924  13.474  1.6356 -0.0773 -0.3590
 5793TIP3    H241575   4.936   1.777  13.439 -2.3073 -0.3996  0.8313
 5794TIP3   OH241576   6.135   2.769  10.680 -0.5441 -0.4511  0.1299
 5794TIP3    H141577   6.144   2.674  10.683  0.4224 -0.3781 -0.0416
 5794TIP3    H241578   6.137   2.796  10.772 -0.7151 -0.5878  0.1737
 5795TIP3   OH241579   6.918   3.014  12.412 -0.1825  0.2551  0.2430
 5795TIP3    H141580   6.879   3.097  12.383  1.9078  1.2826  0.2160
 5795TIP3    H241581   6.872   2.994  12.494 -0.5996  1.5521  0.3539
 5796TIP3   OH241582   7.477   4.336  11.445 -0.1685  0.0866  0.5020
 5796TIP3    H141583   7.465   4.332  11.540 -0.6939  0.2827  0.4473
 5796TIP3    H241584   7.436   4.256  11.413  1.0236 -0.5525  0.5319
 5797TIP3   OH241585   2.810   6.247  12.604  0.4979 -0.3877 -0.0533
 5797TIP3    H141586   2.760   6.185  12.551  0.8133 -1.4752  0.9046
 5797TIP3    H241587   2.886   6.269  12.550 -1.2806  1.8864 -1.8745
 5798TIP3   OH241588   3.833   5.454  11.291 -0.8386 -0.0772  0.0693
 5798TIP3    H141589   3.746   5.460  11.252  0.3248  0.0733 -2.7284
 5798TIP3    H241590   3.837   5.366  11.329 -1.5265 -0.8848 -1.6256
 5799TIP3   OH241591   4.885   6.665  12.562  0.8079 -0.5451 -0.3136
 5799TIP3    H141592   4.912   6.574  12.558 -1.4243 -1.3203  0.5908
 5799TIP3    H241593   4.906   6.694  12.650 -0.6092 -0.9582  0.1856
 5800TIP3   OH241594   3.419   3.376  12.144 -0.2940  0.1678 -0.1593
 5800TIP3    H141595   3.407   3.295  12.195 -0.9227 -0.7272 -1.6704
 5800TIP3    H241596   3.496   3.358  12.090 -1.2125  0.0251 -1.4726
 5801TIP3   OH241597   2.151   1.988  10.436 -0.3035  0.4706  0.1871
 5801TIP3    H141598   2.233   2.014  10.479 -0.8816  0.1674  1.5372
 5801TIP3    H241599   2.160   1.894  10.423 -0.0500  0.5940 -0.5570
 5802TIP3   OH241600   7.527   3.167  10.911  0.6710 -0.0096 -0.6384
 5802TIP3    H141601   7.614   3.194  10.940  0.1247  0.9443  0.1846
 5802TIP3    H241602   7.498   3.103  10.976  0.1422  0.8559  0.0146
 5803TIP3   OH241603   0.499   2.755  11.859 -0.3446 -0.0097  0.0306
 5803TIP3    H141604   0.529   2.690  11.923  1.5669  0.4663 -0.3232
 5803TIP3    H241605   0.419   2.790  11.897  0.1982 -0.4506  1.6826
 5804TIP3   OH241606   3.770   2.033  10.721  0.1005  0.1980 -0.3658
 5804TIP3    H141607   3.723   2.109  10.688  0.1426  0.9674  1.2434
 5804TIP3    H241608   3.860   2.062  10.731 -0.3884  0.9718  3.0088
 5805TIP3   OH241609   6.420   6.857  12.567  0.3387  0.6299  0.2561
 5805TIP3    H141610   6.342   6.816  12.602 -0.3596  1.2284 -0.5647
 5805TIP3    H241611   6.415   6.948  12.596  1.6369  0.2878  1.6725
 5806TIP3   OH241612   0.826   1.548  10.267 -0.1609  0.3726  0.5151
 5806TIP3    H141613   0.854   1.585  10.351  0.7456  0.3503  0.2265
 5806TIP3    H241614   0.777   1.619  10.226  0.6957  0.9194  0.4118
 5807TIP3   OH241615   4.820   6.152  11.855  0.6325  0.3295 -0.0342
 5807TIP3    H141616   4.802   6.063  11.825 -1.3278  0.9171 -0.7477
 5807TIP3    H241617   4.860   6.195  11.779 -0.6540  0.7000 -0.5304
 5808TIP3   OH241618   7.402   5.422  12.049 -0.4475  0.3603  0.5290
 5808TIP3    H141619   7.447   5.348  12.090 -0.6070  0.4318  0.8299
 5808TIP3    H241620   7.440   5.499  12.090  2.8315  0.7407 -2.6832
 5809TIP3   OH241621   7.107   0.629  12.882 -0.2841  0.0270  0.1900
 5809TIP3    H141622   7.084   0.720  12.896 -0.5286 -0.1458  0.9735
 5809TIP3    H241623   7.024   0.582  12.893 -0.3638 -0.2054 -1.1990
 5810TIP3   OH241624   7.180   1.165  10.943 -0.3008 -0.5618 -0.4108
 5810TIP3    H141625   7.143   1.252  10.959  0.9878 -0.0462 -0.1124
 5810TIP3    H241626   7.238   1.178  10.867 -1.2889 -1.5209 -1.3616
 5811TIP3   OH241627   6.190   7.415  11.616 -0.0970  0.0269 -0.5127
 5811TIP3    H141628   6.206   7.509  11.621 -1.1608  0.2250 -0.5071
 5811TIP3    H241629   6.184   7.386  11.707  0.9637 -0.1931 -0.5024
 5812TIP3   OH241630   2.751   1.233  11.970  0.0986 -0.1739 -0.0478
 5812TIP3    H141631   2.845   1.214  11.976  0.6697  2.5004  0.5788
 5812TIP3    H241632   2.708   1.155  12.005  2.1592 -0.6382  1.6102
 5813TIP3   OH241633   1.253   2.215  12.308  0.3162  0.2863  0.7822
 5813TIP3    H141634   1.225   2.125  12.289  0.3851  0.4128  0.0494
 5813TIP3    H241635   1.173   2.267  12.300  0.3817  0.3672  0.6432
 5814TIP3   OH241636   6.949   0.284  11.178 -0.2999 -0.6064 -0.3708
 5814TIP3    H141637   7.029   0.313  11.133  0.0456 -1.9481 -0.6769
 5814TIP3    H241638   6.981   0.248  11.261 -0.7606  0.2710  0.2005
 5815TIP3   OH241639   3.101   3.983  13.035 -0.5301  0.1828 -0.3722
 5815TIP3    H141640   3.161   3.914  13.007 -1.1634  0.4474 -2.6074
 5815TIP3    H241641   3.033   3.937  13.085  0.8276 -0.2813  1.1130
 5816TIP3   OH241642   4.815   3.289  11.017 -0.2703 -0.5071  0.6041
 5816TIP3    H141643   4.907   3.264  11.010  0.4112  1.6311  1.0975
 5816TIP3    H241644   4.795   3.281  11.111 -0.7410 -1.4199  0.4316
 5817TIP3   OH241645   5.779   4.795  12.227  0.0765 -0.6428  0.3122
 5817TIP3    H141646   5.825   4.753  12.300  0.3601  0.5129  0.8219
 5817TIP3    H241647   5.694   4.819  12.263 -0.0343 -0.6591  0.0625
 5818TIP3   OH241648   3.530   5.947  13.656  0.1865 -0.9128 -0.3607
 5818TIP3    H141649   3.449   5.997  13.658  1.1788  0.7622  1.1262
 5818TIP3    H241650   3.504   5.860  13.626 -2.3216 -0.7447  1.0656
 5819TIP3   OH241651   1.726   4.039  10.777 -0.3487 -0.0161  0.1977
 5819TIP3    H141652   1.778   3.999  10.847 -0.9605  0.4209  0.9191
 5819TIP3    H241653   1.654   4.083  10.823  0.8160  2.7414 -0.4687
 5820TIP3   OH241654   7.621   3.502  12.211 -0.0532  0.4517 -0.2032
 5820TIP3    H141655   7.530   3.525  12.227 -0.3028  0.0118 -0.9263
 5820TIP3    H241656   7.671   3.579  12.238 -0.8348  1.7504 -2.2547
 5821TIP3   OH241657   6.588   7.274  10.849 -0.2538  0.0326 -0.0728
 5821TIP3    H141658   6.605   7.212  10.778 -0.6254 -1.2252  0.9019
 5821TIP3    H241659   6.595   7.360  10.808 -2.4231 -0.6625 -2.0974
 5822TIP3   OH241660   0.123   3.366  12.645  0.1133  0.2341 -0.1959
 5822TIP3    H141661   0.109   3.291  12.702 -1.1806  0.1448 -0.5892
 5822TIP3    H241662   0.119   3.442  12.703  0.6501  0.0462  0.0901
 5823TIP3   OH241663   3.392   4.629  11.678 -0.3831  0.1000 -0.3946
 5823TIP3    H141664   3.375   4.584  11.760 -0.2412 -0.1247 -0.4888
 5823TIP3    H241665   3.409   4.720  11.704  1.0448 -0.2501 -0.0431
 5824TIP3   OH241666   1.332   1.340  12.542  0.0172  0.5470 -0.5945
 5824TIP3    H141667   1.325   1.407  12.474  0.3708 -0.2549 -1.4492
 5824TIP3    H241668   1.271   1.368  12.610  1.4043  2.6379 -0.1264
 5825TIP3   OH241669   0.685   2.735  12.562 -0.7624 -0.1194 -0.2322
 5825TIP3    H141670   0.645   2.801  12.619 -1.7189 -0.8726  0.0005
 5825TIP3    H241671   0.669   2.652  12.607  0.6813 -0.4961 -0.3727
 5826TIP3   OH241672   7.053   7.555  12.308 -0.3556 -0.0570  0.9540
 5826TIP3    H141673   7.064   7.568  12.214 -0.0068 -1.2787  0.8027
 5826TIP3    H241674   6.959   7.543  12.320 -0.2185 -1.8254  0.4647
 5827TIP3   OH241675   7.349   4.706  12.666  0.1623 -0.2624 -0.3975
 5827TIP3    H141676   7.275   4.730  12.722 -0.8738  1.3263 -2.3100
 5827TIP3    H241677   7.328   4.619  12.633 -0.1058 -0.4410  0.2384
 5828TIP3   OH241678   5.305   2.237  10.462 -0.2187 -0.2365  0.1457
 5828TIP3    H141679   5.283   2.287  10.384  0.9546 -0.8912 -0.6348
 5828TIP3    H241680   5.395   2.207  10.447  0.4464  0.5285  2.2147
 5829TIP3   OH241681   2.896   3.336  11.627  0.2604 -0.4222 -0.1979
 5829TIP3    H141682   2.876   3.427  11.648  0.6986 -0.5441  0.7911
 5829TIP3    H241683   2.973   3.316  11.680  0.1224 -1.3945 -0.3541
 5830TIP3   OH241684   7.451   6.943  12.059  0.3266 -0.5851 -0.0122
 5830TIP3    H141685   7.502   7.011  12.016 -0.3617  0.6245  1.0308
 5830TIP3    H241686   7.365   6.983  12.074 -0.3536 -1.9615 -0.1041
 5831TIP3   OH241687   5.926   2.881  12.149  0.2772 -0.3521  0.0668
 5831TIP3    H141688   5.967   2.967  12.159  0.9638 -0.3811 -1.9573
 5831TIP3    H241689   5.977   2.823  12.206  0.8528  0.2690  0.1960
 5832TIP3   OH241690   5.305   7.561  12.951 -0.4112 -0.2779  0.1573
 5832TIP3    H141691   5.311   7.494  12.882 -0.2795 -1.7601  1.5330
 5832TIP3    H241692   5.215   7.593  12.946 -1.0845 -1.9386  0.6195
 5833TIP3   OH241693   7.123   1.918  10.930 -0.3496 -0.3343  0.0496
 5833TIP3    H141694   7.149   2.006  10.954 -0.6242 -0.0869 -0.5319
 5833TIP3    H241695   7.050   1.930  10.868  0.0511 -0.9490 -0.5624
 5834TIP3   OH241696   3.520   4.294  12.115  0.2536 -0.7418  0.7482
 5834TIP3    H141697   3.514   4.336  12.200 -2.1691  0.4021  0.1081
 5834TIP3    H241698   3.582   4.347  12.065 -1.0072  0.7567  0.7047
 5835TIP3   OH241699   6.982   0.856  11.958  0.5782  0.1289  0.5486
 5835TIP3    H141700   7.016   0.814  12.037 -2.0273  1.3214  2.4515
 5835TIP3    H241701   6.897   0.890  11.984 -1.6186 -1.6226 -3.5087
 5836TIP3   OH241702   2.710   6.227  10.893 -0.0612  0.1732 -0.1298
 5836TIP3    H141703   2.748   6.286  10.958  0.0296 -0.2727  0.2304
 5836TIP3    H241704   2.753   6.250  10.811  0.3037  0.3037  0.0970
 5837TIP3   OH241705   5.230   3.740  12.658 -0.3008  0.1828 -0.4033
 5837TIP3    H141706   5.210   3.672  12.593 -1.1616 -0.7402  0.7855
 5837TIP3    H241707   5.185   3.712  12.737  2.6267 -0.0075  1.3709
 5838TIP3   OH241708   6.197   0.253  12.493 -0.4072 -0.1515  0.1006
 5838TIP3    H141709   6.160   0.200  12.564 -0.2818  0.6843  0.8100
 5838TIP3    H241710   6.151   0.337  12.500  0.3898  0.3102 -0.1027
 5839TIP3   OH241711   6.802   3.840  11.545 -0.3928 -0.2677 -0.2287
 5839TIP3    H141712   6.751   3.905  11.593  0.4475 -0.3632  0.8248
 5839TIP3    H241713   6.804   3.873  11.455 -0.7493  0.6816  0.0986
 5840TIP3   OH241714   2.067   7.501  12.321  0.1671  0.4495  0.4621
 5840TIP3    H141715   2.043   7.570  12.382  0.8370 -0.0414  1.2988
 5840TIP3    H241716   2.093   7.427  12.377 -0.1893 -0.3634 -0.4101
 5841TIP3   OH241717   0.833   5.146  13.405  0.0438  0.1190 -0.3177
 5841TIP3    H141718   0.879   5.229  13.389 -0.3391  0.0106 -2.3185
 5841TIP3    H241719   0.770   5.166  13.474  0.0675  1.4639 -0.6604
 5842TIP3   OH241720   1.125   0.077  13.483 -0.5599  0.2821 -0.1368
 5842TIP3    H141721   1.145  -0.011  13.449  1.1849 -0.1103  1.7453
 5842TIP3    H241722   1.118   0.131  13.404  0.6952 -1.0816 -1.2543
 5843TIP3   OH241723   3.701   0.256  12.997 -0.2043  0.4073  0.4284
 5843TIP3    H141724   3.634   0.218  13.054  1.2146 -2.1124  0.5396
 5843TIP3    H241725   3.661   0.258  12.911 -0.9108  0.2624  0.7487
 5844TIP3   OH241726   1.232   6.275  11.751  0.3733  0.3737  0.2944
 5844TIP3    H141727   1.303   6.320  11.797 -2.1829  2.6296  2.3116
 5844TIP3    H241728   1.229   6.317  11.665  2.5014 -0.9787 -0.5195
 5845TIP3   OH241729   5.727   1.438  13.109 -0.4878  0.7836  0.1362
 5845TIP3    H141730   5.646   1.387  13.104 -0.9918  1.5062  0.6377
 5845TIP3    H241731   5.797   1.374  13.102 -1.1077  0.0765  0.3315
 5846TIP3   OH241732   3.246   0.087  13.221 -0.0652 -0.2225  0.1184
 5846TIP3    H141733   3.177   0.036  13.177 -0.3365 -0.3821  0.7266
 5846TIP3    H241734   3.244   0.057  13.312  0.6941 -0.1010  0.1802
 5847TIP3   OH241735   1.363   7.503  10.970  0.0727  0.0436  0.1759
 5847TIP3    H141736   1.340   7.555  10.893 -2.4535  1.5854  1.8055
 5847TIP3    H241737   1.389   7.568  11.036 -0.9248 -0.9101  1.5687
 5848TIP3   OH241738   3.521   2.486  10.965  0.2717  0.0745  0.0284
 5848TIP3    H141739   3.530   2.496  10.871 -3.8351  0.5129 -0.5284
 5848TIP3    H241740   3.451   2.420  10.975 -0.0708  0.7274  2.6910
 5849TIP3   OH241741   2.027   2.252  10.680 -0.4614 -0.0776  0.2811
 5849TIP3    H141742   2.060   2.290  10.598  0.3269 -1.0385  0.1328
 5849TIP3    H241743   1.955   2.195  10.653 -1.3609  0.9488  0.4577
 5850TIP3   OH241744   4.253   6.994  10.980 -0.5816 -0.1930  0.4331
 5850TIP3    H141745   4.264   6.923  11.044 -0.1426 -1.0441 -0.5513
 5850TIP3    H241746   4.340   7.003  10.939 -0.7698  0.5657  0.1867
 5851TIP3   OH241747   5.495   6.069  12.139 -0.0223 -0.1250 -0.3709
 5851TIP3    H141748   5.590   6.070  12.135  0.0125  1.3762  0.2521
 5851TIP3    H241749   5.475   6.014  12.215  0.4296  0.9911  0.5884
 5852TIP3   OH241750   5.807   0.432  10.827  0.3091  0.0659  0.1870
 5852TIP3    H141751   5.727   0.471  10.862 -0.2358  0.2762 -1.2119
 5852TIP3    H241752   5.798   0.440  10.732  1.8700 -0.1611 -0.0127
 5853TIP3   OH241753   6.690   5.625  11.483  0.4527 -0.9220 -0.2962
 5853TIP3    H141754   6.781   5.596  11.490  1.6428  2.2898 -0.5879
 5853TIP3    H241755   6.680   5.687  11.556 -0.6617  0.5974 -1.6700
 5854TIP3   OH241756   1.953   2.758  12.110 -0.1595 -0.0152  0.9108
 5854TIP3    H141757   2.012   2.829  12.087  0.5600 -0.3715  1.5992
 5854TIP3    H241758   2.010   2.681  12.117 -1.3079 -1.4651 -3.0562
 5855TIP3   OH241759   6.859   5.041  11.696 -0.0644 -0.1535 -0.4545
 5855TIP3    H141760   6.851   5.110  11.630 -0.2290  0.5515  0.2846
 5855TIP3    H241761   6.808   5.073  11.770 -3.0153 -2.5812 -1.2534
 5856TIP3   OH241762   4.938   0.194  10.908 -0.1985  0.1913  0.2679
 5856TIP3    H141763   4.935   0.203  10.812 -0.8874 -0.1964  0.2529
 5856TIP3    H241764   5.029   0.214  10.930 -0.1255  0.6863 -0.4281
 5857TIP3   OH241765   7.036   3.706  12.971  0.1742  0.3161 -0.0187
 5857TIP3    H141766   6.987   3.789  12.970 -3.8608 -1.7713 -1.4680
 5857TIP3    H241767   7.014   3.666  13.055  0.2089 -0.2059 -0.2530
 5858TIP3   OH241768   1.348   3.410  11.965 -0.5956  0.6238  0.2659
 5858TIP3    H141769   1.385   3.345  12.025  1.7363  2.7971  1.3919
 5858TIP3    H241770   1.256   3.418  11.991 -0.6390 -1.3524  0.8457
 5859TIP3   OH241771   0.874   6.666  13.606 -0.1171 -0.2712  0.7109
 5859TIP3    H141772   0.816   6.684  13.680  0.6759 -1.5192  1.6847
 5859TIP3    H241773   0.946   6.728  13.616 -0.0793 -0.3460  0.9165
 5860TIP3   OH241774   4.479   0.444  11.859 -0.4631 -0.6737 -0.5089
 5860TIP3    H141775   4.391   0.416  11.882 -0.4675  1.1572  2.1361
 5860TIP3    H241776   4.468   0.493  11.777 -1.7500 -1.1197 -0.6182
 5861TIP3   OH241777   7.107   0.975  11.203  0.1667  0.0328 -0.0224
 5861TIP3    H141778   7.129   1.061  11.169 -0.6296 -0.1313 -0.9768
 5861TIP3    H241779   7.189   0.926  11.199  0.6316  0.7462  0.5640
 5862TIP3   OH241780   4.992   4.183  12.860 -0.6745 -0.1747  0.0075
 5862TIP3    H141781   4.958   4.269  12.836 -0.7652 -0.7357 -2.1214
 5862TIP3    H241782   4.961   4.125  12.790 -1.5115 -2.1789  1.9013
 5863TIP3   OH241783   6.251   2.573  12.852  0.1978  0.1994 -0.3847
 5863TIP3    H141784   6.326   2.569  12.910 -0.8089 -1.5880  0.8938
 5863TIP3    H241785   6.281   2.531  12.771  0.1056 -2.2320  0.7613
 5864TIP3   OH241786   3.244   3.364  11.379 -0.2785  0.4236  0.1512
 5864TIP3    H141787   3.153   3.336  11.382 -0.1110 -0.1368  0.0967
 5864TIP3    H241788   3.259   3.406  11.463 -0.7416  1.0288 -0.0553
 5865TIP3   OH241789   4.957   3.612  13.277  0.7263 -0.0587 -0.7732
 5865TIP3    H141790   4.885   3.647  13.224 -1.2585 -0.2377  1.6458
 5865TIP3    H241791   4.958   3.519  13.255 -0.9459 -0.3877  0.3296
 5866TIP3   OH241792   5.337   7.288  10.531  0.4239  0.3335  0.0348
 5866TIP3    H141793   5.335   7.210  10.587 -2.1067  1.8880  2.3690
 5866TIP3    H241794   5.418   7.333  10.555 -0.2587  0.6039  2.0591
 5867TIP3   OH241795   4.450   7.452  12.804 -0.4059 -0.4024 -0.4959
 5867TIP3    H141796   4.515   7.383  12.818 -2.3863 -2.3772 -0.4996
 5867TIP3    H241797   4.466   7.515  12.875  2.8624  0.3910 -1.7588
 5868TIP3   OH241798   3.267   3.086  11.912  0.5133 -0.1045 -0.3223
 5868TIP3    H141799   3.353   3.053  11.938  0.5710  0.3070  0.0129
 5868TIP3    H241800   3.222   3.009  11.876  0.3859 -0.7307  1.0828
 5869TIP3   OH241801   4.798   6.361  12.032  0.0882 -0.3402 -0.5018
 5869TIP3    H141802   4.724   6.421  12.031  2.0753  2.2680 -1.6253
 5869TIP3    H241803   4.766   6.283  11.986 -1.9927  0.6415 -0.8253
 5870TIP3   OH241804   0.576   1.741  11.133 -0.7765  0.5186 -0.2003
 5870TIP3    H141805   0.493   1.733  11.085 -0.2359 -0.5496 -0.9932
 5870TIP3    H241806   0.598   1.834  11.126 -2.3280  1.0095  0.7826
 5871TIP3   OH241807   2.803   1.332  11.432 -0.2478  0.1387  0.1651
 5871TIP3    H141808   2.725   1.311  11.484 -0.5598 -0.6748 -0.6170
 5871TIP3    H241809   2.789   1.422  11.403 -1.6918 -0.5132 -1.3167
 5872TIP3   OH241810   0.055   4.364  12.801 -0.2548 -0.1931  0.2958
 5872TIP3    H141811   0.054   4.349  12.706  1.4120  0.4744  0.1325
 5872TIP3    H241812   0.006   4.445  12.813  0.0919  0.0853 -0.1022
 5873TIP3   OH241813   4.630   2.522  11.126 -0.2188 -0.1079 -0.3679
 5873TIP3    H141814   4.639   2.538  11.032  2.3746 -0.4099 -0.2451
 5873TIP3    H241815   4.685   2.589  11.166  0.9660 -1.6857  0.7604
 5874TIP3   OH241816   7.048   3.149  10.377  0.1677 -0.1036 -0.0723
 5874TIP3    H141817   7.000   3.232  10.369  2.0583  1.0844  0.3753
 5874TIP3    H241818   7.088   3.153  10.463 -0.3041 -1.8630  0.2734
 5875TIP3   OH241819   4.184   2.202  11.158 -0.0826 -0.3737  0.2892
 5875TIP3    H141820   4.245   2.261  11.114 -0.1947 -0.1150  0.4815
 5875TIP3    H241821   4.168   2.242  11.243 -1.0612 -0.0802 -0.0241
 5876TIP3   OH241822   6.859   6.879  10.870 -0.2292  0.3864 -0.5676
 5876TIP3    H141823   6.896   6.916  10.950 -1.6899  1.0172 -0.1545
 5876TIP3    H241824   6.872   6.784  10.879 -2.3697  0.1933  1.5417
 5877TIP3   OH241825   0.672   4.242  11.375 -0.4419  0.1240  0.4449
 5877TIP3    H141826   0.580   4.219  11.382 -0.9687  1.5858 -0.9995
 5877TIP3    H241827   0.687   4.253  11.281  0.0767  3.9152  0.8142
 5878TIP3   OH241828   6.787   6.511  13.275 -0.4973  0.5091 -0.0816
 5878TIP3    H141829   6.815   6.597  13.306  0.3227 -0.4476  2.0106
 5878TIP3    H241830   6.729   6.478  13.345 -0.7649 -0.6543 -0.8198
 5879TIP3   OH241831   4.273   6.016  10.437  0.2978  0.1285 -0.0066
 5879TIP3    H141832   4.314   5.942  10.481  0.4087  0.1893 -0.0079
 5879TIP3    H241833   4.190   6.029  10.485  0.6224  0.4714  0.4701
 5880TIP3   OH241834   6.251   2.897  10.455  0.6447 -0.3831 -0.0638
 5880TIP3    H141835   6.342   2.902  10.484  0.4968  2.5209  0.1596
 5880TIP3    H241836   6.207   2.848  10.525  1.4673  1.0387  1.5166
 5881TIP3   OH241837   0.849   6.042  12.601 -0.0087  0.3467 -0.1295
 5881TIP3    H141838   0.791   6.109  12.565 -1.3597 -0.8313 -0.2424
 5881TIP3    H241839   0.825   6.037  12.694 -0.0217 -0.0869 -0.1541
 5882TIP3   OH241840   4.804   3.034  12.345 -0.1508 -0.4236 -0.0163
 5882TIP3    H141841   4.841   3.028  12.433  0.4496  0.7754 -0.1688
 5882TIP3    H241842   4.853   2.969  12.294  1.9312  1.2092 -0.2392
 5883TIP3   OH241843   5.163   7.334  12.472  0.1522 -0.5273  0.2061
 5883TIP3    H141844   5.087   7.286  12.506 -0.0475  0.9169  1.9526
 5883TIP3    H241845   5.125   7.393  12.406  0.0086 -0.9350 -0.0807
 5884TIP3   OH241846   1.856   6.276  12.267  0.2149 -0.6201 -0.4007
 5884TIP3    H141847   1.810   6.257  12.185  0.8562 -0.8192 -0.7201
 5884TIP3    H241848   1.949   6.261  12.247  0.6754  1.7350 -0.3480
 5885TIP3   OH241849   4.131   4.611  12.299 -0.4214 -0.0788 -0.1190
 5885TIP3    H141850   4.086   4.539  12.344 -2.1487  1.2974  0.4591
 5885TIP3    H241851   4.218   4.575  12.278 -0.3122 -1.4989  2.3689
 5886TIP3   OH241852   3.703   5.984  11.202 -0.0919  0.1739  0.6856
 5886TIP3    H141853   3.743   5.923  11.141  0.1318 -0.7839  1.7642
 5886TIP3    H241854   3.765   5.989  11.275  0.1646  2.1292  0.3876
 5887TIP3   OH241855   1.319   6.715  11.010  0.1199  0.2360 -0.1177
 5887TIP3    H141856   1.405   6.699  10.969  0.2572 -0.0055  0.2533
 5887TIP3    H241857   1.324   6.805  11.041  0.3599  0.1273  0.1731
 5888TIP3   OH241858   6.908   5.205  12.429  0.2547 -0.3546  0.3718
 5888TIP3    H141859   6.899   5.300  12.441 -2.3182 -0.2854 -1.2555
 5888TIP3    H241860   6.854   5.185  12.352  0.8627 -3.1368  0.5451
 5889TIP3   OH241861   5.434   4.987  12.121  0.0972 -0.2595 -0.2270
 5889TIP3    H141862   5.450   4.939  12.203  0.1777 -0.7356 -0.5180
 5889TIP3    H241863   5.512   5.041  12.109 -0.2621  0.4227  0.4266
 5890TIP3   OH241864   7.072   1.573  12.493 -0.2815  0.4647 -0.2030
 5890TIP3    H141865   6.985   1.579  12.532  0.2303 -1.0475  1.2958
 5890TIP3    H241866   7.132   1.582  12.567  0.8994  2.1253 -1.2804
 5891TIP3   OH241867   1.396   3.078  13.200  0.1692 -0.3570 -0.3357
 5891TIP3    H141868   1.324   3.121  13.153  0.6476  0.2020 -0.5628
 5891TIP3    H241869   1.396   2.988  13.167 -0.2489 -0.2882 -0.5339
 5892TIP3   OH241870   0.825   7.550  11.764  0.1319  0.3879  0.2100
 5892TIP3    H141871   0.902   7.605  11.750  0.7514 -0.4854  0.0942
 5892TIP3    H241872   0.756   7.611  11.787  0.5861  1.2915 -0.7478
 5893TIP3   OH241873   0.972   4.967  12.104  0.5430  0.5279  0.0942
 5893TIP3    H141874   0.978   5.044  12.048  0.4606  1.5980  1.5048
 5893TIP3    H241875   0.990   4.893  12.045 -1.5746  1.3908 -1.7971
 5894TIP3   OH241876   7.592   6.108  11.599 -0.3210  0.3972 -0.0604
 5894TIP3    H141877   7.613   6.031  11.651 -0.7111  0.8028  0.7237
 5894TIP3    H241878   7.656   6.174  11.626  0.0282  0.3460 -0.7453
 5895TIP3   OH241879   1.086   6.926  10.738 -0.0304 -0.0601  0.0736
 5895TIP3    H141880   1.131   7.002  10.776  1.2503 -0.5873 -0.3627
 5895TIP3    H241881   1.008   6.963  10.696 -0.4712  0.7648  1.5440
 5896TIP3   OH241882   6.925  -0.053  12.724  0.5490  0.0479 -0.3079
 5896TIP3    H141883   6.886  -0.097  12.800  1.1487  2.2023  1.3319
 5896TIP3    H241884   7.006  -0.101  12.707 -0.1130 -1.1068 -0.2826
 5897TIP3   OH241885   6.472   6.692  10.945 -0.2270  0.1399  0.1312
 5897TIP3    H141886   6.509   6.646  11.021  0.1420  0.9301  0.4456
 5897TIP3    H241887   6.479   6.784  10.968 -0.7772  0.3616 -0.5719
 5898TIP3   OH241888   1.512   4.154  10.889 -0.1229  0.3391  0.1732
 5898TIP3    H141889   1.522   4.242  10.924  1.0275 -0.8851  3.2469
 5898TIP3    H241890   1.417   4.141  10.885 -0.3507  1.9636 -1.2801
 5899TIP3   OH241891   2.935   0.157  12.217  0.5498 -0.0623 -0.2602
 5899TIP3    H141892   2.934   0.164  12.121  0.6178 -1.1802 -0.3545
 5899TIP3    H241893   2.848   0.123  12.239  0.4279  0.4783  0.1059
 5900TIP3   OH241894   2.781   2.333  11.445  0.1146 -0.5192 -0.4629
 5900TIP3    H141895   2.848   2.401  11.434 -0.4591 -0.2974 -3.2309
 5900TIP3    H241896   2.732   2.361  11.523  1.5653  0.7631  0.0393
 5901TIP3   OH241897   6.748   2.973  12.135  0.1387 -0.2353  0.7320
 5901TIP3    H141898   6.754   3.060  12.097  0.2569 -0.4587  0.2440
 5901TIP3    H241899   6.826   2.965  12.190  1.8918 -1.2736 -1.7707
 5902TIP3   OH241900   0.392   1.803  12.685 -0.2552  0.1079 -0.3162
 5902TIP3    H141901   0.306   1.761  12.679  0.5212 -1.8788  1.1115
 5902TIP3    H241902   0.392   1.845  12.771  0.0723  0.4521 -0.4818
 5903TIP3   OH241903   0.069   3.726  12.277  0.6868  0.5853 -0.1811
 5903TIP3    H141904   0.104   3.709  12.364 -0.1693  2.1632  0.5136
 5903TIP3    H241905   0.125   3.794  12.241  1.0918 -0.1213 -0.9173
 5904TIP3   OH241906   5.768   3.188  13.124  0.4803 -0.9322  0.4210
 5904TIP3    H141907   5.756   3.097  13.099 -0.5334 -0.8022  0.4143
 5904TIP3    H241908   5.682   3.228  13.116  0.8354 -0.0509  0.7601
 5905TIP3   OH241909   5.072   3.990  12.304 -0.2658  0.3999  0.4115
 5905TIP3    H141910   5.157   4.024  12.334  0.1244 -0.6401  0.5370
 5905TIP3    H241911   5.095   3.919  12.244 -1.0589  0.3029  0.2152
 5906TIP3   OH241912   7.546   4.131  13.175 -0.6233  0.0155  0.6638
 5906TIP3    H141913   7.551   4.036  13.168  0.9776  0.1477 -0.6820
 5906TIP3    H241914   7.628   4.157  13.217  0.0827  0.9083 -1.1406
 5907TIP3   OH241915   1.498   4.074  13.080 -0.0867  0.2525 -0.2628
 5907TIP3    H141916   1.454   4.158  13.092 -0.8772 -0.3128  0.9094
 5907TIP3    H241917   1.428   4.013  13.057  0.4541 -0.1444 -0.9269
 5908TIP3   OH241918   4.929   0.529  10.972 -0.0146  0.0327  0.2299
 5908TIP3    H141919   4.838   0.533  10.943 -0.2075 -1.4712  0.5414
 5908TIP3    H241920   4.924   0.549  11.066 -0.4695 -2.9487  0.9314
 5909TIP3   OH241921   4.529   3.914  11.285 -0.1113 -0.3523 -0.1525
 5909TIP3    H141922   4.582   3.920  11.206  1.5499  2.3396  1.0307
 5909TIP3    H241923   4.477   3.835  11.273  1.6694 -1.2398 -2.9343
 5910TIP3   OH241924   2.041   3.995  12.766  0.3496 -0.0840 -0.7704
 5910TIP3    H141925   1.954   3.963  12.787  0.1994 -0.6317 -2.1532
 5910TIP3    H241926   2.071   3.939  12.694  1.1069  1.2443 -1.5292
 5911TIP3   OH241927   6.708   3.741  11.859  0.1301 -0.3740  0.0895
 5911TIP3    H141928   6.789   3.690  11.857  1.1885  1.2633 -0.7666
 5911TIP3    H241929   6.638   3.675  11.860  1.4406 -1.8256 -0.2887
 5912TIP3   OH241930   5.500   3.373  11.065 -0.1828 -0.2465  0.0681
 5912TIP3    H141931   5.581   3.376  11.117 -0.5063 -1.0032  0.6291
 5912TIP3    H241932   5.450   3.301  11.102 -1.0007  0.0310 -0.4644
 5913TIP3   OH241933   7.699   5.484  12.146  0.0411  0.5516 -0.2955
 5913TIP3    H141934   7.771   5.449  12.093  0.8080  1.2383  0.2722
 5913TIP3    H241935   7.684   5.417  12.212  0.7569  0.7752  0.1106
 5914TIP3   OH241936   5.123   3.308  12.862  0.4434  0.7920 -0.0650
 5914TIP3    H141937   5.040   3.269  12.835 -1.4934  1.6219  3.9393
 5914TIP3    H241938   5.159   3.248  12.926  2.2847  1.1598 -0.6838
 5915TIP3   OH241939   2.985   0.692  11.837  0.1331 -0.1925  0.5938
 5915TIP3    H141940   2.903   0.644  11.830  0.3438 -0.3528 -1.2899
 5915TIP3    H241941   2.967   0.777  11.796  0.2740  0.7040  2.2743
 5916TIP3   OH241942   4.007   6.261  11.482 -0.5996 -0.1458  0.4248
 5916TIP3    H141943   4.036   6.172  11.500 -2.7757 -0.9398  0.2982
 5916TIP3    H241944   4.075   6.317  11.520  0.6062 -1.8459  0.8548
 5917TIP3   OH241945   7.076   6.865  13.101  0.2853 -0.0723  0.0858
 5917TIP3    H141946   7.172   6.861  13.107  0.2983  0.2810  0.1468
 5917TIP3    H241947   7.053   6.949  13.142 -0.1108 -0.5042  0.7617
 5918TIP3   OH241948   3.783   3.728  11.303  0.0842 -0.2843 -0.1039
 5918TIP3    H141949   3.732   3.698  11.378  0.8006 -0.4582  0.3278
 5918TIP3    H241950   3.745   3.812  11.281 -0.1544 -0.2386  0.4453
 5919TIP3   OH241951   5.310   6.888  11.242  0.2001  0.7024 -0.2426
 5919TIP3    H141952   5.243   6.937  11.194 -1.8998 -1.3051  0.4633
 5919TIP3    H241953   5.287   6.900  11.334  0.0713 -0.9359 -0.0319
 5920TIP3   OH241954   5.533   2.467  12.344 -0.4213 -0.1338 -0.0410
 5920TIP3    H141955   5.565   2.472  12.434 -0.8370 -2.6740  0.3219
 5920TIP3    H241956   5.610   2.447  12.292  0.1955  3.1802 -0.6530
 5921TIP3   OH241957   6.706   5.178  11.898  0.1251 -0.2131  0.0148
 5921TIP3    H141958   6.718   5.271  11.880  1.2556 -0.5842 -1.3703
 5921TIP3    H241959   6.784   5.152  11.946 -0.5659 -0.3034  1.1329
 5922TIP3   OH241960   6.059   0.039  11.363 -0.1339 -0.2654 -0.4641
 5922TIP3    H141961   6.132  -0.019  11.342  1.9063  0.2871  3.9202
 5922TIP3    H241962   6.093   0.127  11.351  0.4777  0.0201  2.6096
 5923TIP3   OH241963   3.997   3.687  12.243  0.2596 -0.6244 -0.2402
 5923TIP3    H141964   4.049   3.751  12.194  1.2933 -1.5353 -0.3758
 5923TIP3    H241965   4.054   3.662  12.316 -0.8393 -0.0802  0.8339
 5924TIP3   OH241966   3.786   6.716  12.319  0.5040 -0.0063 -0.0814
 5924TIP3    H141967   3.849   6.645  12.306  0.7249  0.2870 -0.6069
 5924TIP3    H241968   3.816   6.786  12.261 -0.7129 -0.1209 -0.8630
 5925TIP3   OH241969   6.604   0.722  11.933 -0.2727 -0.3342  0.2882
 5925TIP3    H141970   6.571   0.782  11.866 -0.0054 -0.2029  0.2768
 5925TIP3    H241971   6.632   0.645  11.883  1.8144  0.5336  0.0119
 5926TIP3   OH241972   5.331   3.114  10.699 -0.2619  1.0682  0.4103
 5926TIP3    H141973   5.288   3.190  10.738  2.3701  2.1398  1.4858
 5926TIP3    H241974   5.395   3.152  10.638 -0.4713 -0.4074 -0.7674
 5927TIP3   OH241975   6.047   6.191  10.908  0.2471  0.1251 -0.0226
 5927TIP3    H141976   6.074   6.226  10.993  0.8115 -0.4740  0.0543
 5927TIP3    H241977   6.084   6.103  10.906  0.7433  0.3386 -1.1282
 5928TIP3   OH241978   4.906   0.123  12.440 -0.1650 -0.3994 -0.3846
 5928TIP3    H141979   4.914   0.029  12.456  1.6565 -0.3169 -0.6254
 5928TIP3    H241980   4.968   0.141  12.370  0.9712  1.2804  0.9639
 5929TIP3   OH241981   0.626   4.845  12.010 -0.3349  0.4812  0.2677
 5929TIP3    H141982   0.651   4.832  12.101 -0.9332 -0.0300  0.3636
 5929TIP3    H241983   0.681   4.783  11.961 -1.3466 -0.6101  0.4741
 5930TIP3   OH241984   1.311   1.366  11.146  0.2677 -0.1330  0.2029
 5930TIP3    H141985   1.276   1.440  11.197  1.9602  0.2059  0.9317
 5930TIP3    H241986   1.340   1.303  11.212  1.2859 -0.2641 -0.3456
 5931TIP3   OH241987   4.513   0.256  11.033  0.1264  0.4898  0.2229
 5931TIP3    H141988   4.480   0.206  10.959  0.9608  0.1504  0.0643
 5931TIP3    H241989   4.440   0.262  11.094  0.1444 -1.3707  0.4776
 5932TIP3   OH241990   5.673   3.291  11.756  0.7105  0.5480 -0.3827
 5932TIP3    H141991   5.648   3.268  11.666  1.2518  0.4539 -0.5101
 5932TIP3    H241992   5.634   3.223  11.810  2.3339 -0.7287 -0.7524
 5933TIP3   OH241993   2.703   4.687  10.729 -0.2004 -0.1460  0.0050
 5933TIP3    H141994   2.723   4.780  10.727 -0.2607 -0.1177  0.4792
 5933TIP3    H241995   2.655   4.675  10.811  0.1143 -0.6558  0.1176
 5934TIP3   OH241996   1.135   6.759  12.992 -0.5917  0.5061  0.1641
 5934TIP3    H141997   1.118   6.827  12.927 -1.2377  0.0313 -0.1693
 5934TIP3    H241998   1.196   6.699  12.948 -1.1449  0.1053 -0.0647
 5935TIP3   OH241999   2.647   3.206  13.493 -0.0048  0.2997  0.0549
 5935TIP3    H142000   2.710   3.135  13.501  1.3918  1.3562 -0.9742
 5935TIP3    H242001   2.614   3.220  13.582 -0.7880 -1.9917  0.1768
 5936TIP3   OH242002   2.849   5.669  11.904 -0.0369  0.8144  0.2164
 5936TIP3    H142003   2.875   5.732  11.971  0.0127  2.1548 -1.0145
 5936TIP3    H242004   2.927   5.614  11.892  0.6793  1.8811 -0.1786
 5937TIP3   OH242005   5.601   3.013  12.823  0.2460  0.4523 -0.6396
 5937TIP3    H142006   5.664   2.981  12.887 -1.0751 -0.6606  0.1699
 5937TIP3    H242007   5.564   3.092  12.863 -0.5655 -0.2320  0.0002
 5938TIP3   OH242008   4.288   5.942  11.767 -0.3635  0.1016 -0.2260
 5938TIP3    H142009   4.320   5.851  11.768 -0.6116 -0.0257  2.1108
 5938TIP3    H242010   4.367   5.995  11.758  0.7427 -0.2237  4.8101
 5939TIP3   OH242011   7.567   1.321  13.186 -0.7444  0.2577 -0.8173
 5939TIP3    H142012   7.603   1.309  13.098 -0.5438 -0.3320 -0.6591
 5939TIP3    H242013   7.636   1.368  13.233 -0.4434 -0.2779 -0.7068
 5940TIP3   OH242014   1.927   6.319  10.895 -0.4192 -0.5388  0.1700
 5940TIP3    H142015   1.987   6.245  10.901  0.2861 -0.0158 -0.1412
 5940TIP3    H242016   1.956   6.366  10.816 -1.2208 -0.2513  0.0390
 5941TIP3   OH242017   6.066   4.514  11.343 -0.1144  0.1661 -0.1729
 5941TIP3    H142018   6.038   4.577  11.277 -0.8689  0.5548  0.4931
 5941TIP3    H242019   6.086   4.568  11.420  1.4787 -0.2050 -0.3035
 5942TIP3   OH242020   3.800   7.389  11.388  0.3438 -0.2886  0.1811
 5942TIP3    H142021   3.732   7.340  11.433  0.3083 -0.6172 -0.2230
 5942TIP3    H242022   3.808   7.471  11.437  0.4930 -0.7472  0.9398
 5943TIP3   OH242023   0.335   4.176  12.020 -0.4194  0.2226  0.4308
 5943TIP3    H142024   0.357   4.269  12.024  2.7817 -0.4463  1.5723
 5943TIP3    H242025   0.392   4.140  11.953 -0.8809 -1.0879  0.7088
 5944TIP3   OH242026   0.629   0.687  10.540  0.0315  0.0822 -0.1660
 5944TIP3    H142027   0.533   0.691  10.530 -0.2206 -2.5057  0.4478
 5944TIP3    H242028   0.653   0.773  10.573 -2.0519  0.9118 -0.6477
 5945TIP3   OH242029   3.094   1.700  12.279 -0.1687 -0.1716 -0.2071
 5945TIP3    H142030   3.055   1.679  12.194 -0.6614  0.9267 -0.2663
 5945TIP3    H242031   3.025   1.682  12.342 -0.0237 -0.3547 -0.1007
 5946TIP3   OH242032   0.553   3.095  13.264  0.7309 -0.1985 -0.4743
 5946TIP3    H142033   0.479   3.150  13.237  0.1675 -1.1914 -1.0359
 5946TIP3    H242034   0.521   3.005  13.252  1.8750 -0.6478 -0.2674
 5947TIP3   OH242035   2.472   0.572  10.797 -0.3237 -0.1801 -0.2215
 5947TIP3    H142036   2.494   0.651  10.748  0.3936 -0.3017 -0.1021
 5947TIP3    H242037   2.455   0.602  10.886 -0.5085 -0.1041 -0.2824
 5948TIP3   OH242038   3.638   6.316  11.824 -0.2294 -0.1738  0.5022
 5948TIP3    H142039   3.674   6.332  11.737 -0.3216 -0.9220  0.3208
 5948TIP3    H242040   3.611   6.403  11.855 -0.8322  0.0102 -0.4944
 5949TIP3   OH242041   6.528   2.041  10.508 -0.3731  0.5596 -0.4224
 5949TIP3    H142042   6.591   2.010  10.443  0.9421  1.8814  0.1708
 5949TIP3    H242043   6.449   1.989  10.491  1.7447 -3.4312  0.8550
 5950TIP3   OH242044   6.211   4.685  10.484  0.3781  0.0268 -0.1476
 5950TIP3    H142045   6.213   4.593  10.458  0.9932 -0.2380  0.8078
 5950TIP3    H242046   6.286   4.724  10.440 -0.5720  0.3709 -1.5422
 5951TIP3   OH242047   6.505   1.782  11.131 -0.1359  0.4805 -0.1833
 5951TIP3    H142048   6.442   1.852  11.113 -0.2254  0.7544  1.0757
 5951TIP3    H242049   6.576   1.825  11.178  1.7175  0.4439 -2.7712
 5952TIP3   OH242050   0.604   6.322  11.786 -0.2964  0.0879  0.5150
 5952TIP3    H142051   0.672   6.324  11.852 -1.4179  0.2623  1.6951
 5952TIP3    H242052   0.645   6.280  11.710  1.1249  0.2754  1.1652
 5953TIP3   OH242053   7.111   5.568  10.975  0.8763 -0.0053  0.6062
 5953TIP3    H142054   7.107   5.664  10.971 -1.7871 -0.0460  0.8180
 5953TIP3    H242055   7.041   5.538  10.917  2.6302 -1.9173 -0.6747
 5954TIP3   OH242056   1.250   6.569  12.417 -0.2148  0.5850 -0.0394
 5954TIP3    H142057   1.269   6.572  12.511 -0.3630  0.1125  0.0112
 5954TIP3    H242058   1.334   6.551  12.376 -0.5988 -2.4099  0.2461
 5955TIP3   OH242059   7.139   7.194  11.674  0.5737 -0.7376 -0.3055
 5955TIP3    H142060   7.056   7.149  11.657  0.4654 -0.3454 -0.8475
 5955TIP3    H242061   7.132   7.224  11.765 -0.6904  0.9271 -0.8806
 5956TIP3   OH242062   5.219   0.272  18.786  0.2593 -0.1352 -0.1180
 5956TIP3    H142063   5.171   0.330  18.726 -1.7413 -0.6908  0.8763
 5956TIP3    H242064   5.309   0.273  18.753  0.2300  3.1953 -0.3715
 5957TIP3   OH242065   4.598   5.089  11.502 -0.3956 -0.4419  0.0991
 5957TIP3    H142066   4.619   5.006  11.545 -0.7207 -0.6657 -0.1741
 5957TIP3    H242067   4.664   5.097  11.433  0.8441  0.4724  1.3380
 5958TIP3   OH242068   2.279   6.641  10.942 -0.4048 -0.2471 -0.2347
 5958TIP3    H142069   2.320   6.600  10.865  0.1900  0.4967 -0.3184
 5958TIP3    H242070   2.328   6.605  11.016  1.0136  1.2608 -0.3721
 5959TIP3   OH242071   0.961   4.533  12.576 -0.6402  0.1149  0.0639
 5959TIP3    H142072   0.973   4.607  12.516 -0.3439  0.7940  0.9442
 5959TIP3    H242073   0.979   4.569  12.663 -1.7031 -0.6894  0.6411
 5960TIP3   OH242074   1.097   1.247  10.385  0.5535  0.4383  0.1589
 5960TIP3    H142075   1.125   1.174  10.330  1.0493 -0.5079  1.6045
 5960TIP3    H242076   1.154   1.320  10.360  1.1054 -0.1226 -0.2466
 5961TIP3   OH242077   5.261   1.408  12.108 -0.5311  0.1440 -0.1175
 5961TIP3    H142078   5.270   1.500  12.130  1.8073  0.2348 -1.2629
 5961TIP3    H242079   5.300   1.399  12.021  0.5460 -2.1352  0.5253
 5962TIP3   OH242080   5.597   0.175  12.278  0.1703 -0.5853  0.3946
 5962TIP3    H142081   5.587   0.219  12.363 -0.2799 -2.8062  1.5677
 5962TIP3    H242082   5.512   0.187  12.236 -0.2431 -1.0313  1.0749
 5963TIP3   OH242083   1.537   0.528  11.155 -0.6577  0.7401  0.4025
 5963TIP3    H142084   1.523   0.515  11.249  2.2185 -0.3365  0.7757
 5963TIP3    H242085   1.471   0.593  11.130 -1.2470  1.3636  3.2428
 5964TIP3   OH242086   1.247   2.950  12.925  0.2215 -0.3615 -0.3043
 5964TIP3    H142087   1.252   3.042  12.950  0.2412 -0.6263  0.7351
 5964TIP3    H242088   1.324   2.910  12.966  1.3976 -0.4753 -2.4892
 5965TIP3   OH242089   3.740   4.015  11.288  0.6482 -0.3163 -0.1276
 5965TIP3    H142090   3.783   4.042  11.369 -0.8425  1.1377  0.2253
 5965TIP3    H242091   3.678   4.085  11.269 -0.3520 -1.5126 -1.5289
 5966TIP3   OH242092   3.197   1.800  10.708 -0.0447 -0.6640  0.5817
 5966TIP3    H142093   3.243   1.745  10.646  0.0823  0.1873 -0.1005
 5966TIP3    H242094   3.104   1.779  10.695 -0.0310 -0.3604 -0.0298
 5967TIP3   OH242095   6.933   3.077  11.501  0.0104 -0.7721  0.4260
 5967TIP3    H142096   6.918   3.114  11.413  0.5219  0.0559  0.6695
 5967TIP3    H242097   6.884   2.995  11.501 -0.8940 -0.2567 -0.2628
 5968TIP3   OH242098   5.594   7.479  10.884  0.2748 -0.2596 -0.3096
 5968TIP3    H142099   5.577   7.473  10.978  1.5128 -3.0103 -0.1711
 5968TIP3    H242100   5.682   7.516  10.878  0.0517  0.2645 -0.4263
 5969TIP3   OH242101   0.619   3.829  10.722 -0.0560 -0.4828 -0.2110
 5969TIP3    H142102   0.667   3.818  10.804  0.0120  0.9737 -0.0158
 5969TIP3    H242103   0.539   3.876  10.748 -0.4136 -0.7167 -0.8729
 5970TIP3   OH242104   5.693   5.776  12.781 -0.2569 -0.0999 -0.2971
 5970TIP3    H142105   5.743   5.766  12.861  0.5825  0.3269 -0.7552
 5970TIP3    H242106   5.756   5.756  12.711 -0.1060  2.4594 -0.9955
 5971TIP3   OH242107   1.258   5.222  12.206 -0.2739  0.5320 -0.7297
 5971TIP3    H142108   1.245   5.280  12.130 -3.8030  0.5485 -0.2928
 5971TIP3    H242109   1.274   5.136  12.168 -2.3917  0.4622 -1.6211
 5972TIP3   OH242110   6.579   0.652  12.637 -0.0739  0.6727 -0.6790
 5972TIP3    H142111   6.504   0.643  12.578 -0.3057 -0.7019 -0.2139
 5972TIP3    H242112   6.648   0.601  12.595  0.4279  1.4487 -0.8093
 5973TIP3   OH242113   4.775   5.791  11.003  0.1504 -0.6889  0.7817
 5973TIP3    H142114   4.770   5.716  11.062  0.4463 -0.9917  0.4248
 5973TIP3    H242115   4.687   5.829  11.005  0.8537  1.1455  3.7785
 5974TIP3   OH242116   6.090   1.247  10.567 -0.3034  0.4261  0.3739
 5974TIP3    H142117   6.146   1.290  10.502 -1.3059 -0.2294 -0.9725
 5974TIP3    H242118   6.141   1.172  10.596 -0.2774  0.0944 -0.4972
 5975TIP3   OH242119   3.680   7.440  12.360 -0.1979 -0.4351  0.4120
 5975TIP3    H142120   3.752   7.396  12.405  2.8352  2.9157 -0.7322
 5975TIP3    H242121   3.695   7.422  12.268  0.0972  1.4519  0.0596
 5976TIP3   OH242122   1.084   2.430  12.278  0.1194  0.4299 -0.4710
 5976TIP3    H142123   1.016   2.397  12.337  1.7835 -0.0431  1.2947
 5976TIP3    H242124   1.056   2.518  12.255 -1.3363  0.0555 -0.2213
 5977TIP3   OH242125   4.764   5.138  11.298 -0.6364  1.1730 -0.1990
 5977TIP3    H142126   4.718   5.102  11.222 -0.0598  1.0180 -0.4855
 5977TIP3    H242127   4.775   5.231  11.277 -0.2312  1.0749 -0.4387
 5978TIP3   OH242128   4.926   4.880  11.169 -0.2742 -0.0154 -0.0896
 5978TIP3    H142129   4.907   4.947  11.104  0.6080 -0.7911 -1.1884
 5978TIP3    H242130   4.876   4.803  11.139 -0.8912  0.0020  0.8768
 5979TIP3   OH242131   0.847   0.268  10.655  0.1313  0.3585 -0.3386
 5979TIP3    H142132   0.884   0.302  10.737 -3.0666 -1.1560  1.9456
 5979TIP3    H242133   0.752   0.271  10.668 -0.4767 -1.9183 -3.1674
 5980TIP3   OH242134   4.148   2.662  12.722  0.1134 -0.4852  0.5636
 5980TIP3    H142135   4.092   2.624  12.789 -2.0025  2.3285  0.5952
 5980TIP3    H242136   4.142   2.601  12.648 -2.0206 -0.9386  1.0479
 5981TIP3   OH242137   2.366   5.421  10.820  0.2532  0.0551  0.1628
 5981TIP3    H142138   2.345   5.396  10.910  1.4845 -1.5954  0.0418
 5981TIP3    H242139   2.421   5.499  10.829 -2.4411  2.0478  0.6187
 5982TIP3   OH242140   0.953   4.378  11.724  0.3135 -0.0934 -1.1249
 5982TIP3    H142141   1.020   4.444  11.738 -0.8840  1.1704 -1.0807
 5982TIP3    H242142   0.900   4.412  11.652 -1.8041  0.2523  0.4993
 5983TIP3   OH242143   5.349   6.741  12.798  0.5985 -0.0205  0.1427
 5983TIP3    H142144   5.410   6.787  12.856  0.1459  0.1894  0.4615
 5983TIP3    H242145   5.264   6.747  12.843  0.0147  1.0667 -1.0110
 5984TIP3   OH242146   2.551   7.426  11.107  0.4051 -0.6051  0.3914
 5984TIP3    H142147   2.564   7.375  11.027  0.5396  1.0717 -0.7069
 5984TIP3    H242148   2.457   7.441  11.111  0.5974  1.2749 -0.7922
 5985TIP3   OH242149   0.751   1.655  12.252 -0.8720  0.3232 -0.4629
 5985TIP3    H142150   0.754   1.625  12.161  1.2887 -1.1104  0.0117
 5985TIP3    H242151   0.726   1.577  12.302 -1.3974  0.9379  0.2592
 5986TIP3   OH242152   4.946   1.135  10.933 -0.0919 -0.0701  0.1837
 5986TIP3    H142153   4.922   1.226  10.918 -0.0195  0.1879  1.4843
 5986TIP3    H242154   4.868   1.085  10.909  0.0181  0.2812 -0.9499
 5987TIP3   OH242155   6.981   5.545  10.584 -0.1012  0.0457 -0.1417
 5987TIP3    H142156   7.044   5.564  10.514 -0.7371 -0.8527 -0.9904
 5987TIP3    H242157   6.966   5.629  10.627  0.8132  0.4856 -0.6598
 5988TIP3   OH242158   1.871   6.461  11.711 -0.1309 -0.4023 -0.3309
 5988TIP3    H142159   1.808   6.520  11.669  2.8864  1.7192 -2.2838
 5988TIP3    H242160   1.926   6.518  11.764  0.9361 -1.9435  0.2964
 5989TIP3   OH242161   3.103   6.724  11.824  0.4872 -0.4504  0.1633
 5989TIP3    H142162   3.173   6.734  11.759  0.4205  0.6228  0.2401
 5989TIP3    H242163   3.022   6.732  11.773  0.4252 -0.6786  0.2247
 5990TIP3   OH242164   7.168   7.705  10.675 -0.1364  0.2851 -0.0868
 5990TIP3    H142165   7.169   7.754  10.757  1.6006  0.6982 -0.3138
 5990TIP3    H242166   7.260   7.703  10.648 -0.7282  0.5845 -2.2764
 5991TIP3   OH242167   1.325   1.836  11.651 -0.2648  0.4479  0.5469
 5991TIP3    H142168   1.374   1.756  11.670 -0.0483  0.3207 -0.4677
 5991TIP3    H242169   1.390   1.906  11.660 -0.2696  0.4316  0.7047
 5992TIP3   OH242170   6.435   3.820  12.162 -0.4453 -0.3522 -0.3520
 5992TIP3    H142171   6.411   3.879  12.091  0.5216 -0.6310 -0.9127
 5992TIP3    H242172   6.408   3.867  12.241  0.8446  1.1459 -0.7435
 5993TIP3   OH242173   0.960   3.365  11.624 -0.1798 -0.2667  0.5916
 5993TIP3    H142174   0.921   3.295  11.676 -0.0308 -0.5336  0.3469
 5993TIP3    H242175   1.050   3.372  11.657  0.7867 -2.2511 -1.3812
 5994TIP3   OH242176   0.511   0.217  12.107  0.2984 -0.5300 -0.7760
 5994TIP3    H142177   0.564   0.268  12.046  1.3079 -0.2161  0.3333
 5994TIP3    H242178   0.567   0.204  12.183 -0.2585 -2.5409 -0.6592
 5995TIP3   OH242179   2.876   2.220  12.768 -0.2097  0.3795 -0.1459
 5995TIP3    H142180   2.804   2.181  12.819  0.9783 -3.2316 -0.9206
 5995TIP3    H242181   2.932   2.262  12.834 -1.5832  0.8388  0.7803
 5996TIP3   OH242182   7.433   7.214  11.258  0.1560 -0.6211 -0.4758
 5996TIP3    H142183   7.442   7.309  11.249 -2.2313 -0.3289 -0.4233
 5996TIP3    H242184   7.509   7.187  11.309  1.0691  1.1926 -0.7934
 5997TIP3   OH242185   4.330   6.570  10.557  0.4167 -0.3117 -0.1398
 5997TIP3    H142186   4.417   6.564  10.597 -1.0366 -1.0744  3.2369
 5997TIP3    H242187   4.306   6.480  10.536 -0.0821 -0.2717  0.2353
 5998TIP3   OH242188   1.677   2.184  10.974 -0.8217  0.0830 -0.0203
 5998TIP3    H142189   1.674   2.254  10.909 -1.6439  0.5011  0.4567
 5998TIP3    H242190   1.645   2.225  11.054 -1.1597 -0.8049  0.3023
 5999TIP3   OH242191   3.768   0.714  11.574  0.1247  0.4507 -0.2908
 5999TIP3    H142192   3.705   0.751  11.511  1.2572 -0.6324 -2.1456
 5999TIP3    H242193   3.714   0.659  11.631 -1.1751  2.7135  0.8097
 6000TIP3   OH242194   0.784   6.432  12.679  0.0783 -0.2072  0.4563
 6000TIP3    H142195   0.840   6.437  12.602  0.1387 -2.4092  0.2870
 6000TIP3    H242196   0.741   6.517  12.683  0.2399  0.0588 -1.8694
 6001TIP3   OH242197   2.458   5.531  11.312 -0.6726  0.4250  0.1050
 6001TIP3    H142198   2.365   5.508  11.320 -1.3246  3.2142  1.9536
 6001TIP3    H242199   2.501   5.480  11.380 -1.1291  0.3519  0.3458
 6002TIP3   OH242200   1.564   3.867  11.117 -0.1807  0.2608  0.3658
 6002TIP3    H142201   1.641   3.827  11.077 -0.0506 -0.0308  0.8934
 6002TIP3    H242202   1.591   3.885  11.207 -0.9202 -0.4059  0.7326
 6003TIP3   OH242203   6.452   3.262  10.570  0.0723 -0.5459  0.7943
 6003TIP3    H142204   6.441   3.357  10.572  1.9973 -0.0416 -3.0524
 6003TIP3    H242205   6.540   3.248  10.604 -0.3319 -1.0358  1.6719
 6004TIP3   OH242206   1.128   0.594  11.672  0.6277  0.0305 -0.1942
 6004TIP3    H142207   1.042   0.606  11.713  0.1594 -1.2800 -0.7421
 6004TIP3    H242208   1.190   0.595  11.745  0.1069  0.4870  0.2529
 6005TIP3   OH242209   6.158   3.278  11.957  0.0588  0.3161 -0.2218
 6005TIP3    H142210   6.064   3.291  11.947 -0.3630 -2.4771 -0.6041
 6005TIP3    H242211   6.181   3.332  12.032 -2.2094 -0.2992  1.0168
 6006TIP3   OH242212   3.398   1.273  12.696 -0.3409 -0.2316  0.2949
 6006TIP3    H142213   3.394   1.272  12.792 -0.4981 -0.9803  0.2862
 6006TIP3    H242214   3.490   1.292  12.677 -0.4415  0.5876  0.5844
 6007TIP3   OH242215   2.283   0.738  11.407  0.5566 -0.2322  0.0496
 6007TIP3    H142216   2.273   0.691  11.490  0.7000 -1.0914 -0.3996
 6007TIP3    H242217   2.197   0.731  11.364  0.2893  0.7874  0.4139
 6008TIP3   OH242218   6.460   0.786  10.731 -0.2331  0.5744 -0.1406
 6008TIP3    H142219   6.407   0.848  10.781 -1.0138 -0.2450  0.0844
 6008TIP3    H242220   6.539   0.835  10.707  0.0349  1.0927  1.6523
 6009TIP3   OH242221   0.479   1.309  11.324 -0.0058 -0.8842  1.2077
 6009TIP3    H142222   0.424   1.350  11.258  0.5647 -2.1085 -0.0924
 6009TIP3    H242223   0.457   1.216  11.320  2.3589 -1.5001  0.3419
 6010TIP3   OH242224   7.186   2.273  10.687 -0.0732 -0.0603 -0.2839
 6010TIP3    H142225   7.143   2.285  10.602 -0.4262 -0.9723 -0.2436
 6010TIP3    H242226   7.280   2.281  10.667  0.1489 -3.6099 -1.4764
 6011TIP3   OH242227   7.434   5.494  11.504  0.1098 -0.0618  0.0022
 6011TIP3    H142228   7.524   5.477  11.475  0.9012 -0.4815  2.4572
 6011TIP3    H242229   7.429   5.454  11.591 -2.6017 -0.3683 -0.2152
 6012TIP3   OH242230   1.337   5.071  11.709  0.0064  0.3310  0.0301
 6012TIP3    H142231   1.270   5.054  11.643  0.2482  0.2953 -0.2056
 6012TIP3    H242232   1.385   4.988  11.716 -0.5031  0.0854  0.8047
 6013TIP3   OH242233   2.442   7.122  11.284 -0.1908 -0.0366 -0.6712
 6013TIP3    H142234   2.398   7.041  11.310 -1.7421  0.7682 -0.6396
 6013TIP3    H242235   2.374   7.189  11.291  1.1903  1.3736 -0.1732
 6014TIP3   OH242236   7.186   7.348  11.918  0.0684  0.3467  0.0976
 6014TIP3    H142237   7.190   7.440  11.891  0.0083  0.0712 -0.8680
 6014TIP3    H242238   7.112   7.344  11.979 -0.7141  0.6977 -0.8093
 6015TIP3   OH242239   6.047   7.559  10.937 -0.0998 -0.2635  0.6313
 6015TIP3    H142240   6.025   7.499  10.866  1.5835  0.9023 -0.9403
 6015TIP3    H242241   5.969   7.613  10.947 -0.0627  0.1270 -0.9623
 6016TIP3   OH242242   7.559   2.705  12.314 -0.6427 -0.2608  0.3650
 6016TIP3    H142243   7.603   2.788  12.335  0.2444 -0.8237  0.7968
 6016TIP3    H242244   7.478   2.706  12.365 -0.6418  0.3413  0.3604
 6017TIP3   OH242245   3.909   5.990  11.753  0.2249 -0.2403 -0.3256
 6017TIP3    H142246   3.935   6.036  11.833 -0.9566 -0.1080  0.0082
 6017TIP3    H242247   3.974   6.015  11.688  1.0500 -0.1275  0.5219
 6018TIP3   OH242248   2.230   3.632  12.236 -0.0128  0.4603  0.1698
 6018TIP3    H142249   2.170   3.584  12.294  0.6006  0.0120  0.4405
 6018TIP3    H242250   2.297   3.668  12.294  0.8513 -0.3518 -0.2925
 6019TIP3   OH242251   4.624   5.824  11.309  0.3771 -1.5143 -0.6898
 6019TIP3    H142252   4.608   5.911  11.273  2.6974 -0.6381  0.2014
 6019TIP3    H242253   4.582   5.825  11.394  0.2438 -1.3154 -0.7577
 6020TIP3   OH242254   4.047   2.119  10.828 -0.5172 -0.3742 -0.6433
 6020TIP3    H142255   4.026   2.206  10.861  0.7338 -0.3237  0.0772
 6020TIP3    H242256   4.078   2.071  10.904  1.1055 -0.6863 -1.4484
 6021TIP3   OH242257   1.367   5.627  12.345 -0.3695  0.0780 -0.6987
 6021TIP3    H142258   1.316   5.556  12.383 -1.5827  1.6321  0.7148
 6021TIP3    H242259   1.372   5.693  12.413  2.0669  0.7573 -1.4178
 6022TIP3   OH242260   4.123   4.298  11.531 -0.0427  0.7544  0.6727
 6022TIP3    H142261   4.149   4.251  11.452 -0.5499  1.5066  0.0423
 6022TIP3    H242262   4.112   4.389  11.503 -0.6237  0.9610  1.5149
 6023TIP3   OH242263   2.077   3.620  12.878  0.4529  0.4103  0.3280
 6023TIP3    H142264   2.121   3.614  12.793 -0.3283 -0.3253 -0.0341
 6023TIP3    H242265   2.125   3.559  12.934  0.4040  0.2128  0.1577
 6024TIP3   OH242266   1.374   7.717  12.402  0.8750  0.3623  0.0132
 6024TIP3    H142267   1.296   7.699  12.455  0.0125 -1.3530 -1.7335
 6024TIP3    H242268   1.395   7.808  12.422 -2.2366  1.2750 -0.2789
 6025TIP3   OH242269   6.028   3.292  10.933  0.6724  0.2841  0.5918
 6025TIP3    H142270   6.101   3.310  10.873  0.8520 -0.3324  0.6215
 6025TIP3    H242271   5.977   3.224  10.890  0.2318  0.5673  0.6704
 6026TIP3   OH242272   5.754   5.415  11.267 -0.3390  0.1172  0.2654
 6026TIP3    H142273   5.758   5.462  11.184  4.7265  0.7700  0.6044
 6026TIP3    H242274   5.722   5.328  11.243  0.0564  0.5706 -2.1771
 6027TIP3   OH242275   2.430   1.301  10.672  0.5807  0.5556  0.1955
 6027TIP3    H142276   2.410   1.228  10.614  0.2064  0.9834 -0.2165
 6027TIP3    H242277   2.431   1.262  10.760 -0.1796  0.1549  0.0380
 6028TIP3   OH242278   0.726   3.274  11.113  0.2218 -0.2025  0.2266
 6028TIP3    H142279   0.724   3.309  11.201 -0.5758 -0.7148  0.4206
 6028TIP3    H242280   0.656   3.209  11.111 -0.7922  0.8646 -1.2267
 6029TIP3   OH242281   2.805   2.444  13.111  0.7996 -0.3197  0.0649
 6029TIP3    H142282   2.809   2.367  13.167  1.1619 -1.0569 -0.9574
 6029TIP3    H242283   2.712   2.454  13.089  0.9729 -1.6362 -1.3787
 6030TIP3   OH242284   1.201   3.114  11.968  0.1463  0.2768 -0.5849
 6030TIP3    H142285   1.187   3.110  12.063 -0.3644 -0.4382 -0.6883
 6030TIP3    H242286   1.193   3.207  11.947  2.2906  0.7461  0.3756
 6031TIP3   OH242287   4.498   5.139  10.426  0.0322  0.1288 -0.1690
 6031TIP3    H142288   4.584   5.179  10.435  0.1844 -0.1752 -0.2907
 6031TIP3    H242289   4.505   5.055  10.471  0.0607 -0.2955 -0.9589
 6032TIP3   OH242290   3.250   1.482  12.594  0.1063 -0.0902  0.1713
 6032TIP3    H142291   3.290   1.501  12.509 -1.4671  0.5621 -0.4570
 6032TIP3    H242292   3.317   1.431  12.641  1.5843  0.8168 -0.8728
 6033TIP3   OH242293   3.680   3.295  12.104 -0.1179  0.0943  0.0714
 6033TIP3    H142294   3.752   3.359  12.106 -0.0200 -0.0002 -0.3230
 6033TIP3    H242295   3.716   3.220  12.056 -0.5640  0.1501 -0.3611
 6034TIP3   OH242296   3.850   1.191  11.056 -0.0684  0.3252  0.2072
 6034TIP3    H142297   3.763   1.226  11.037  0.3156  0.7290 -0.8563
 6034TIP3    H242298   3.910   1.247  11.006  0.6975 -0.7769 -0.1375
 6035TIP3   OH242299   7.371   2.339  11.242  0.1550 -0.2487  0.2443
 6035TIP3    H142300   7.396   2.410  11.301  1.8447 -0.7359  0.1618
 6035TIP3    H242301   7.335   2.272  11.300 -0.3994  0.2245  0.4495
 6036TIP3   OH242302   2.003   0.936  10.487  0.0921  0.6171 -0.6954
 6036TIP3    H142303   2.086   0.893  10.510  0.0397  1.9327  2.4525
 6036TIP3    H242304   1.938   0.865  10.491  0.7966 -0.0931 -1.4501
 6037TIP3   OH242305   1.953   1.952  11.345 -0.2094 -0.4509  0.3291
 6037TIP3    H142306   1.962   1.867  11.303 -0.7986  0.5351 -1.9382
 6037TIP3    H242307   1.999   1.943  11.428 -1.4604 -3.3865  0.8133
 6038TIP3   OH242308   6.713   3.683  12.773 -0.1619  0.1310  0.1352
 6038TIP3    H142309   6.701   3.688  12.868 -0.3730 -0.6711  0.1557
 6038TIP3    H242310   6.631   3.647  12.739  0.1642 -0.2568 -0.2715
 6039TIP3   OH242311   0.420   3.804  11.994 -0.0429 -0.0007  0.2624
 6039TIP3    H142312   0.508   3.802  11.957 -0.4154  0.1683 -0.6598
 6039TIP3    H242313   0.405   3.715  12.025  0.1571 -0.2268 -0.2891
 6040TIP3   OH242314   5.348   2.820  12.130  0.0117  1.0840 -0.3015
 6040TIP3    H142315   5.442   2.804  12.142  0.0420  0.9488 -0.6992
 6040TIP3    H242316   5.305   2.761  12.191  0.1873  1.1684 -0.0967
 6041TIP3   OH242317   1.126   4.954  10.812  0.2535  0.1031 -0.2432
 6041TIP3    H142318   1.082   5.028  10.854 -1.9009 -0.1900 -1.8182
 6041TIP3    H242319   1.092   4.877  10.857  0.9952 -0.0399  0.0897
 6042TIP3   OH242320   5.134   4.583  10.983  0.1655  0.0232  0.3533
 6042TIP3    H142321   5.114   4.546  11.070 -1.6916 -0.5620 -0.2750
 6042TIP3    H242322   5.178   4.511  10.937 -0.9149 -0.4633  0.0625
 6043TIP3   OH242323   0.868   3.562  12.410 -0.2710  0.0129  0.0989
 6043TIP3    H142324   0.869   3.487  12.350 -0.6937  0.1994 -0.1428
 6043TIP3    H242325   0.798   3.618  12.377 -0.8614 -0.1357  1.0715
 6044TIP3   OH242326   4.440   5.351  11.301  0.0771 -0.6110  0.3304
 6044TIP3    H142327   4.361   5.310  11.267 -0.5293 -0.4528  1.4934
 6044TIP3    H242328   4.473   5.289  11.366  0.1550 -0.0953  0.7985
 6045TIP3   OH242329   3.894   5.398  10.673 -0.1414 -0.6986 -0.8518
 6045TIP3    H142330   3.810   5.437  10.650  0.3763  0.2894 -1.1149
 6045TIP3    H242331   3.884   5.370  10.764 -0.2805  0.7830 -0.3874
 6046TIP3   OH242332   0.535   5.409  13.099 -0.3239  0.7554 -0.1184
 6046TIP3    H142333   0.587   5.408  13.019 -0.9433 -0.0456 -0.5289
 6046TIP3    H242334   0.444   5.408  13.069 -0.5728  1.1819  0.5948
 6047TIP3   OH242335   7.647   3.172  13.149  0.3786  0.5481 -0.3399
 6047TIP3    H142336   7.708   3.241  13.126  1.2420 -0.1712 -0.2722
 6047TIP3    H242337   7.571   3.186  13.092  0.6825  1.3381 -0.5560
 6048TIP3   OH242338   3.856   3.443  12.995 -0.6902  0.0007 -0.1665
 6048TIP3    H142339   3.942   3.443  12.952 -0.8590 -2.3853 -0.6886
 6048TIP3    H242340   3.876   3.452  13.088  0.1847 -0.7544 -0.2612
 6049TIP3   OH242341   0.646   2.201  13.429 -0.8293  0.1475  1.3525
 6049TIP3    H142342   0.557   2.174  13.453 -1.2997  0.9806  0.6112
 6049TIP3    H242343   0.703   2.141  13.476 -1.8003 -0.8032  1.3541
 6050TIP3   OH242344   2.101   2.557  11.249  0.0441 -0.6684  0.2550
 6050TIP3    H142345   2.125   2.478  11.298  0.3549 -1.6001 -1.3290
 6050TIP3    H242346   2.170   2.620  11.271  0.6070 -1.3182  0.4210
 6051TIP3   OH242347   5.954   7.185  11.990 -0.2131 -0.1507  0.1827
 6051TIP3    H142348   5.893   7.155  11.922 -0.2821  1.9816 -0.7694
 6051TIP3    H242349   6.032   7.211  11.942  0.1118  0.4518  1.0275
 6052TIP3   OH242350   5.137   3.211  12.280 -0.3421  0.1357 -0.1036
 6052TIP3    H142351   5.193   3.184  12.206 -0.7703 -1.1581  0.0133
 6052TIP3    H242352   5.106   3.298  12.256  1.3137  0.6869 -0.4014
 6053TIP3   OH242353   6.609   6.441  10.891  0.3508  0.0790  0.1037
 6053TIP3    H142354   6.657   6.512  10.848 -0.6921  0.3078 -0.7379
 6053TIP3    H242355   6.518   6.471  10.893  0.3191  0.0374  2.4348
 6054TIP3   OH242356   7.052   2.286  12.052 -0.3556 -0.7256  0.3281
 6054TIP3    H142357   7.102   2.206  12.039 -1.0551 -1.1658  0.3256
 6054TIP3    H242358   6.970   2.258  12.091 -0.0866  0.1283  1.5636
 6055TIP3   OH242359   3.312   6.327  13.422 -0.1484  0.4549 -0.2321
 6055TIP3    H142360   3.373   6.307  13.350  0.7328  1.2897  0.2638
 6055TIP3    H242361   3.234   6.360  13.378  0.0855  0.2021 -0.8482
 6056TIP3   OH242362   2.796   7.197  11.887 -0.1487  0.2823  0.1839
 6056TIP3    H142363   2.723   7.139  11.905 -0.9567  0.7651 -1.3692
 6056TIP3    H242364   2.859   7.142  11.840 -0.5081  0.4275 -0.4708
 6057TIP3   OH242365   0.750   7.362  11.046 -0.4547 -0.0839 -0.2160
 6057TIP3    H142366   0.681   7.340  11.109 -0.2985  0.1727  0.0433
 6057TIP3    H242367   0.753   7.286  10.987  1.9281 -2.0930  2.2328
 6058TIP3   OH242368   5.726   7.115  11.846 -0.3102  0.2935 -0.3465
 6058TIP3    H142369   5.726   7.124  11.750  0.0969 -2.2873 -0.6509
 6058TIP3    H242370   5.724   7.021  11.861 -0.9077  0.6594  2.2253
 6059TIP3   OH242371   7.526   4.319  11.714  0.0263  0.6603  0.2876
 6059TIP3    H142372   7.589   4.283  11.777  0.4910  1.3107  0.2046
 6059TIP3    H242373   7.548   4.412  11.708 -1.3516  1.0444  0.7411
 6060TIP3   OH242374   3.393   3.274  11.697  0.2762 -0.4043 -0.2760
 6060TIP3    H142375   3.329   3.309  11.636 -0.3674 -1.8591 -0.4921
 6060TIP3    H242376   3.343   3.250  11.774  1.0567  1.2452  0.7984
 6061TIP3   OH242377   1.900   7.036  12.109 -0.0255 -0.2614  0.3136
 6061TIP3    H142378   1.960   7.089  12.161 -1.5590  2.6307 -0.6437
 6061TIP3    H242379   1.820   7.032  12.162 -1.2984  1.9702 -1.2443
 6062TIP3   OH242380   1.464   5.012  12.641 -0.0092  0.4878  0.1683
 6062TIP3    H142381   1.474   4.981  12.551  2.0605 -1.3060  0.9217
 6062TIP3    H242382   1.534   4.968  12.690 -2.5263 -0.5601  3.1774
 6063TIP3   OH242383   6.101   6.036  11.372 -0.4641  0.3551 -0.6624
 6063TIP3    H142384   6.101   5.976  11.297 -1.6241  0.9617 -1.1896
 6063TIP3    H242385   6.074   6.120  11.334  2.4917  1.6219 -0.2126
 6064TIP3   OH242386   6.674   7.604  10.246  0.8138 -0.2137 -0.3870
 6064TIP3    H142387   6.748   7.632  10.192  1.2141  2.1680  1.2715
 6064TIP3    H242388   6.708   7.532  10.299  1.6611  0.2358 -0.3145
 6065TIP3   OH242389   3.463   5.426  11.295  0.3584 -0.0952 -0.6440
 6065TIP3    H142390   3.507   5.436  11.379  1.1415  0.8157 -1.1458
 6065TIP3    H242391   3.389   5.367  11.313  0.1274  0.6040  0.8042
 6066TIP3   OH242392   3.395   1.920  12.075  0.2796 -0.1061  0.1999
 6066TIP3    H142393   3.361   1.993  12.023  0.3624 -1.0314 -1.2006
 6066TIP3    H242394   3.325   1.856  12.076  0.4465 -0.2886  0.8728
 6067TIP3   OH242395   4.597   6.249  11.053  0.6709  0.3810 -0.1212
 6067TIP3    H142396   4.568   6.285  10.969  2.2862 -0.5392 -1.1154
 6067TIP3    H242397   4.690   6.231  11.041  0.9193  0.1314  1.8511
 6068TIP3   OH242398   1.481   3.481  12.350  0.0903  0.2734  0.3093
 6068TIP3    H142399   1.471   3.494  12.444 -0.5452 -0.0893  0.2945
 6068TIP3    H242400   1.558   3.426  12.341  1.5065  2.1312  0.4894
 6069TIP3   OH242401   5.320   7.415  12.705 -0.1240  0.0439 -0.2643
 6069TIP3    H142402   5.334   7.333  12.754 -0.7286 -0.1078 -0.3327
 6069TIP3    H242403   5.297   7.386  12.617  1.5087  0.3257 -0.8162
 6070TIP3   OH242404   1.383   2.950  10.730 -0.3253 -0.2818  0.4880
 6070TIP3    H142405   1.339   3.032  10.706  1.2824  0.9367  1.5259
 6070TIP3    H242406   1.328   2.912  10.798 -0.4978  0.5225  0.8085
 6071TIP3   OH242407   5.809   5.840  12.513 -0.3132 -0.0951  0.2252
 6071TIP3    H142408   5.897   5.802  12.516  0.0461  0.6442 -0.4473
 6071TIP3    H242409   5.770   5.804  12.433 -0.2454  0.3330 -0.0079
 6072TIP3   OH242410   7.012   4.155  11.279 -0.1877  0.0342 -0.4361
 6072TIP3    H142411   6.936   4.205  11.309 -0.2261  0.0099 -0.4917
 6072TIP3    H242412   7.058   4.214  11.219 -0.3709 -0.0870 -0.6998
 6073TIP3   OH242413   1.822   4.955  11.998  0.0145 -0.1910  0.0583
 6073TIP3    H142414   1.785   5.028  12.048  0.1705 -0.2546  0.2706
 6073TIP3    H242415   1.899   4.928  12.049  0.1129 -0.3264 -0.1611
 6074TIP3   OH242416   6.871   5.744  12.781 -0.9031  0.7715 -0.0734
 6074TIP3    H142417   6.818   5.813  12.821 -2.2343 -1.2429  1.9147
 6074TIP3    H242418   6.961   5.777  12.785 -1.7071  3.4197 -1.6326
 6075TIP3   OH242419   2.868   4.191  13.050 -0.4907 -0.3650  0.1070
 6075TIP3    H142420   2.858   4.251  12.976  0.1525  0.6306  0.8008
 6075TIP3    H242421   2.954   4.151  13.037 -0.2707 -0.0044  0.4431
 6076TIP3   OH242422   4.215   3.982  11.861  0.4125  0.2260  0.3612
 6076TIP3    H142423   4.308   3.989  11.841  0.4161 -1.6934 -0.4782
 6076TIP3    H242424   4.171   4.028  11.790  0.6677 -0.0732  0.0126
 6077TIP3   OH242425   3.863   2.187  11.884  0.4608 -0.0030  0.4402
 6077TIP3    H142426   3.920   2.130  11.833  0.8000 -0.6789  1.5343
 6077TIP3    H242427   3.779   2.143  11.885  0.6733 -0.4104  1.1298
 6078TIP3   OH242428   0.045   5.404  12.722  0.5503 -0.1090 -0.1111
 6078TIP3    H142429   0.049   5.309  12.737 -0.9842 -0.3015 -0.7524
 6078TIP3    H242430   0.056   5.414  12.627 -1.4827  0.1413 -0.3668
 6079TIP3   OH242431   2.907   7.615  12.585  0.2443  0.1950 -0.3912
 6079TIP3    H142432   2.939   7.651  12.502  1.1901 -0.2328 -0.2230
 6079TIP3    H242433   2.832   7.560  12.560 -1.4061  2.3948 -0.6322
 6080TIP3   OH242434   2.999   5.188  11.963 -0.1426  0.3817 -0.2008
 6080TIP3    H142435   2.954   5.145  12.035 -0.1417 -3.0646 -2.0398
 6080TIP3    H242436   3.084   5.212  11.998  0.2129 -2.0419  0.7797
 6081TIP3   OH242437   2.868   6.865  12.720  0.3816 -0.1781 -0.0013
 6081TIP3    H142438   2.795   6.865  12.782  0.7095  1.5206  0.4401
 6081TIP3    H242439   2.890   6.773  12.708 -0.6087 -0.6092  1.3110
 6082TIP3   OH242440   4.095   3.864  12.070 -0.3493  0.2430  0.4673
 6082TIP3    H142441   4.129   3.879  11.982  0.0783 -1.4960  0.2997
 6082TIP3    H242442   4.046   3.944  12.091 -0.6646  0.5929 -1.4304
 6083TIP3   OH242443   4.744   1.700  11.816 -0.2138  0.3385  0.0001
 6083TIP3    H142444   4.759   1.638  11.888 -0.1060  0.4281  0.0550
 6083TIP3    H242445   4.691   1.651  11.753 -1.3065  0.6280  0.6681
 6084TIP3   OH242446   1.024   4.761  10.616  0.7696  0.0720  0.0508
 6084TIP3    H142447   0.943   4.807  10.593 -0.4608 -0.8977  2.0375
 6084TIP3    H242448   1.084   4.830  10.644 -0.2656  0.6867  0.8817
 6085TIP3   OH242449   2.549   4.654  11.948  0.2324 -0.6071 -0.5098
 6085TIP3    H142450   2.581   4.745  11.946 -0.5750 -0.3127 -0.2685
 6085TIP3    H242451   2.594   4.616  12.023  0.4461 -0.3653 -0.5086
 6086TIP3   OH242452   6.295   3.385  11.513 -0.3964  0.7016 -0.4861
 6086TIP3    H142453   6.302   3.312  11.575  0.7559  1.2250  0.0316
 6086TIP3    H242454   6.206   3.378  11.478 -0.2047 -1.1400 -0.6955
 6087TIP3   OH242455   0.826   3.853  12.087  0.5355 -0.1541 -0.3300
 6087TIP3    H142456   0.801   3.914  12.156 -1.9891 -0.1736 -1.1122
 6087TIP3    H242457   0.915   3.877  12.063  1.2523  0.2573  2.4624
 6088TIP3   OH242458   0.693   6.251  12.464  0.1676 -0.5144  0.0210
 6088TIP3    H142459   0.677   6.313  12.535  0.0640 -0.5943  0.0667
 6088TIP3    H242460   0.660   6.296  12.386  0.9902 -0.0987 -0.1035
 6089TIP3   OH242461   6.633   3.991  11.735  0.0157  0.5769 -0.0664
 6089TIP3    H142462   6.676   3.924  11.788 -0.2694  0.0802 -0.4584
 6089TIP3    H242463   6.545   3.957  11.719 -0.6061  1.6730  0.8867
 6090TIP3   OH242464   5.868   2.589  11.359 -0.1891 -0.3730  0.0686
 6090TIP3    H142465   5.898   2.530  11.428 -0.2240 -0.0896  0.3277
 6090TIP3    H242466   5.930   2.662  11.361  0.5064 -0.9111 -0.9822
 6091TIP3   OH242467   2.840   0.850  11.641 -0.3138 -0.2077 -0.4970
 6091TIP3    H142468   2.845   0.847  11.546 -0.8839 -0.2260 -0.5274
 6091TIP3    H242469   2.886   0.931  11.665 -0.2665 -0.1480 -0.7955
 6092TIP3   OH242470   1.980   2.234  12.802  0.3970  0.1289 -0.1101
 6092TIP3    H142471   1.965   2.142  12.779  0.4590  0.3164 -0.9240
 6092TIP3    H242472   1.892   2.273  12.804  0.4481  0.3351 -1.0476
 6093TIP3   OH242473   3.222   1.061  12.666 -0.3464 -0.0276 -0.0297
 6093TIP3    H142474   3.275   1.141  12.667  0.2430 -0.4083  0.7757
 6093TIP3    H242475   3.208   1.041  12.759 -0.1210 -1.0882 -0.2125
 6094TIP3   OH242476   5.599   6.303  11.542 -0.1824  0.1262 -0.2476
 6094TIP3    H142477   5.527   6.352  11.503 -0.1737  0.0103 -0.4112
 6094TIP3    H242478   5.614   6.345  11.627  0.4567  1.0148 -0.7847
 6095TIP3   OH242479   5.195   2.493  12.470 -0.7242  0.8957 -0.0419
 6095TIP3    H142480   5.197   2.426  12.401  0.4565  1.3483 -0.4633
 6095TIP3    H242481   5.129   2.461  12.531  0.8352 -1.4568  0.5654
 6096TIP3   OH242482   3.310   6.266  12.427  0.1513  0.2340 -0.3059
 6096TIP3    H142483   3.321   6.171  12.416  1.5776  0.5446 -1.9469
 6096TIP3    H242484   3.338   6.282  12.517 -1.4530 -1.0530  0.4772
 6097TIP3   OH242485   0.284   3.138  11.726  0.0961  0.0022 -0.3422
 6097TIP3    H142486   0.236   3.220  11.730  2.1767  1.2571  0.7208
 6097TIP3    H242487   0.346   3.150  11.654  0.6016 -0.5075 -0.0071
 6098TIP3   OH242488   5.760   2.262  11.651 -0.6220  0.1670  0.3299
 6098TIP3    H142489   5.756   2.357  11.645  2.0161  0.3180 -0.0104
 6098TIP3    H242490   5.764   2.232  11.560  0.2673 -0.1451  0.4653
 6099TIP3   OH242491   3.473   0.707  11.625  0.0836  0.5162  0.5197
 6099TIP3    H142492   3.496   0.752  11.544  1.2590  0.4927  0.8291
 6099TIP3    H242493   3.377   0.715  11.630 -0.0700  0.0130 -1.1447
 6100TIP3   OH242494   1.337   2.442  10.747 -0.4956  0.3235  0.0149
 6100TIP3    H142495   1.422   2.397  10.750 -0.1686  0.9819  1.0896
 6100TIP3    H242496   1.358   2.534  10.764 -1.1489  0.9458 -2.2252
 6101TIP3   OH242497   4.553   1.372  13.295  0.0884  0.2686 -0.0893
 6101TIP3    H142498   4.597   1.446  13.254 -2.4592  1.6328 -0.5948
 6101TIP3    H242499   4.572   1.297  13.238  1.9907  0.6726 -0.0428
 6102TIP3   OH242500   5.385   5.232  11.485 -0.3992  0.0865  0.3564
 6102TIP3    H142501   5.373   5.203  11.394  1.3127 -1.8480  0.6811
 6102TIP3    H242502   5.436   5.313  11.478  0.1756 -0.3285 -0.4020
 6103TIP3   OH242503   2.429   2.131  11.386  0.0331  0.2517  0.0801
 6103TIP3    H142504   2.412   2.190  11.460 -0.8663 -0.8092  0.7492
 6103TIP3    H242505   2.444   2.046  11.426 -1.4091 -0.5427 -0.9687
 6104TIP3   OH242506   1.160   6.174  11.090 -0.3177  0.5017  0.1465
 6104TIP3    H142507   1.123   6.248  11.043  1.9931  0.7519 -1.4394
 6104TIP3    H242508   1.254   6.192  11.094 -0.2583  0.1720  4.4069
 6105TIP3   OH242509   6.452   2.697  11.930  0.3870 -0.5065 -0.0335
 6105TIP3    H142510   6.489   2.712  12.017 -0.6885 -1.8348  0.6914
 6105TIP3    H242511   6.404   2.777  11.910  1.3891  0.1689  0.1747
 6106TIP3   OH242512   0.542   4.697  10.773 -0.2391  0.0917 -0.1121
 6106TIP3    H142513   0.500   4.772  10.730 -1.3567  1.2067  2.6351
 6106TIP3    H242514   0.523   4.622  10.717 -0.7788  1.5308 -1.9581
 6107TIP3   OH242515   7.351   0.636  12.441 -0.6407  0.1117 -0.5307
 6107TIP3    H142516   7.346   0.718  12.391 -2.0672 -0.1337 -0.8206
 6107TIP3    H242517   7.375   0.570  12.376  0.9344  0.3329 -0.2213
 6108TIP3   OH242518   6.921   7.506  11.015 -0.2395 -0.6535  0.3237
 6108TIP3    H142519   6.884   7.584  11.057  0.8041  0.4648 -0.7382
 6108TIP3    H242520   6.928   7.530  10.922  1.7793 -1.3007  0.2603
 6109TIP3   OH242521   2.483   4.323  11.712 -0.4532  0.0509 -0.0115
 6109TIP3    H142522   2.505   4.232  11.692  0.9581  0.1437  1.0201
 6109TIP3    H242523   2.440   4.320  11.797 -1.6579  0.2324 -0.5845
 6110TIP3   OH242524   4.755   6.978  12.071 -0.3225 -0.3549 -0.1215
 6110TIP3    H142525   4.691   6.925  12.024  0.9358 -0.1161 -2.2052
 6110TIP3    H242526   4.712   6.999  12.154 -1.8865 -2.3650 -0.3561
 6111TIP3   OH242527   2.242   6.356  10.807 -0.5694 -0.0150  0.5805
 6111TIP3    H142528   2.229   6.261  10.801 -0.3002 -0.0344  0.2361
 6111TIP3    H242529   2.238   6.375  10.900  1.4341 -0.6857  0.8598
 6112TIP3   OH242530   3.739   3.630  12.847  0.2978  0.5576 -0.0464
 6112TIP3    H142531   3.758   3.566  12.915 -1.0364 -0.7069 -0.7969
 6112TIP3    H242532   3.819   3.681  12.838  0.6545  0.4566  2.1231
 6113TIP3   OH242533   0.547   6.492  10.552 -0.0225 -0.2953  0.1544
 6113TIP3    H142534   0.575   6.581  10.530  0.0285 -1.0110 -3.2377
 6113TIP3    H242535   0.628   6.442  10.560 -0.0881 -0.4243  0.0282
 6114TIP3   OH242536   6.410   7.129  12.636  0.1904 -0.1234  0.4159
 6114TIP3    H142537   6.399   7.173  12.721 -0.2122  0.9090 -0.1532
 6114TIP3    H242538   6.388   7.196  12.571  1.4161 -0.6049 -0.5451
 6115TIP3   OH242539   4.806   2.616  11.583 -0.3912  0.2780  0.1636
 6115TIP3    H142540   4.886   2.665  11.568  0.7595 -1.4092  0.5337
 6115TIP3    H242541   4.823   2.530  11.546 -1.3403 -0.6812  1.8307
 6116TIP3   OH242542   7.379   0.852  12.257  0.0190 -0.4650  0.2581
 6116TIP3    H142543   7.353   0.931  12.306  0.0206 -0.2852 -0.0270
 6116TIP3    H242544   7.376   0.879  12.166 -1.6883 -1.2768  0.0357
 6117TIP3   OH242545   1.474   4.366  11.242  0.8365  0.0241  0.4937
 6117TIP3    H142546   1.393   4.319  11.222  1.2014 -0.0689 -0.8630
 6117TIP3    H242547   1.543   4.301  11.231  1.2571  0.6070 -0.4545
 6118TIP3   OH242548   7.636   5.196  11.122  0.7942  0.3505  0.2551
 6118TIP3    H142549   7.682   5.280  11.131  1.4105  0.0664 -0.1236
 6118TIP3    H242550   7.590   5.185  11.205  0.1447  1.3880  0.0543
 6119TIP3   OH242551   0.694   6.674  12.746 -0.3677  0.6627 -0.6160
 6119TIP3    H142552   0.772   6.729  12.753  0.3075 -0.3269 -0.0864
 6119TIP3    H242553   0.656   6.697  12.660  1.1396  0.3624 -1.3962
 6120TIP3   OH242554   1.857   5.531  13.104  0.3575  0.1402  0.4523
 6120TIP3    H142555   1.777   5.529  13.051  0.8240  1.4616 -0.3622
 6120TIP3    H242556   1.868   5.441  13.135 -2.0917  0.1544  1.6077
 6121TIP3   OH242557   0.828   2.498  11.679 -0.1536  0.6553 -0.5255
 6121TIP3    H142558   0.872   2.551  11.745  0.5170 -0.4219 -0.0923
 6121TIP3    H242559   0.762   2.557  11.641 -1.7262  0.8300  2.2186
 6122TIP3   OH242560   1.237   7.046  11.887  0.3867 -0.0487 -0.3401
 6122TIP3    H142561   1.143   7.066  11.879  0.3343 -0.4163 -0.6643
 6122TIP3    H242562   1.278   7.132  11.898  0.0508  0.1509 -0.5954
 6123TIP3   OH242563   4.054   4.550  10.695 -0.8613 -0.7903  0.7163
 6123TIP3    H142564   4.129   4.601  10.666 -1.0461 -0.4028  0.9131
 6123TIP3    H242565   3.980   4.611  10.692 -0.9723 -0.8651  1.5430
 6124TIP3   OH242566   2.568   7.341  12.705 -0.0381 -0.2597 -0.4065
 6124TIP3    H142567   2.476   7.367  12.715 -0.2989 -0.7877 -1.2666
 6124TIP3    H242568   2.568   7.247  12.727  0.4481 -0.0822  0.3702
 6125TIP3   OH242569   5.634   2.563  10.792 -0.1561  0.3708  0.2781
 6125TIP3    H142570   5.635   2.473  10.761  0.0604  0.1545  0.8983
 6125TIP3    H242571   5.698   2.609  10.738 -0.3367  0.1798 -0.1023
 6126TIP3   OH242572   1.536   6.317  11.667 -0.2793 -0.3717  0.2064
 6126TIP3    H142573   1.523   6.321  11.761  2.9870 -1.4210  0.8417
 6126TIP3    H242574   1.555   6.408  11.641  0.9419 -0.3822  0.9973
 6127TIP3   OH242575   0.334   0.510  11.574  0.1299 -0.3518  0.4017
 6127TIP3    H142576   0.329   0.416  11.555 -1.7032 -0.3925  0.9289
 6127TIP3    H242577   0.296   0.552  11.498  0.1543 -0.0710  0.5439
 6128TIP3   OH242578   7.061   5.745  11.795 -0.8070 -0.4042  0.7243
 6128TIP3    H142579   7.069   5.657  11.831 -2.2957 -0.9163 -0.0931
 6128TIP3    H242580   7.152   5.777  11.788 -0.4050 -0.3404  4.5336
 6129TIP3   OH242581   3.575   3.840  12.752  0.0422 -0.8558 -0.1090
 6129TIP3    H142582   3.639   3.894  12.706  1.3539 -2.5043 -0.2985
 6129TIP3    H242583   3.624   3.764  12.782 -1.0155 -0.5176  2.9140
 6130TIP3   OH242584   6.763   3.750  12.365  0.2828  0.0450  0.3678
 6130TIP3    H142585   6.731   3.840  12.366 -1.2013 -0.4577  0.2074
 6130TIP3    H242586   6.695   3.700  12.319 -0.2149 -1.6040  2.6843
 6131TIP3   OH242587   0.274   6.595  12.621 -0.2656  0.1441 -0.5276
 6131TIP3    H142588   0.219   6.577  12.697 -0.7128 -0.0375 -0.8888
 6131TIP3    H242589   0.355   6.546  12.637 -1.2349 -1.7971 -1.2299
 6132TIP3   OH242590   6.181   6.746  11.847  0.6318  0.0870  0.3396
 6132TIP3    H142591   6.123   6.685  11.801  0.7352  0.7134 -0.6351
 6132TIP3    H242592   6.268   6.707  11.839  0.9913  1.1776 -1.8147
 6133TIP3   OH242593   1.426   0.501  12.180 -0.4477 -0.3220 -0.4005
 6133TIP3    H142594   1.512   0.475  12.145 -0.8898  0.0259 -1.8128
 6133TIP3    H242595   1.445   0.579  12.233  0.3674 -1.3848  0.9651
 6134TIP3   OH242596   7.006   4.985  10.989  0.0891 -0.3995  0.1848
 6134TIP3    H142597   6.963   4.968  11.073  0.2227 -2.2273 -0.0771
 6134TIP3    H242598   7.070   4.915  10.981  0.9007  0.4361 -0.9225
 6135TIP3   OH242599   6.508   5.949  12.692  0.1975  0.2830  0.3866
 6135TIP3    H142600   6.575   5.932  12.758  1.2255  1.1087 -0.4088
 6135TIP3    H242601   6.462   6.027  12.724 -0.4685 -0.3344  0.9766
 6136TIP3   OH242602   2.238   3.362  11.655  0.6142 -0.1619  0.2070
 6136TIP3    H142603   2.265   3.321  11.573  1.2853  0.1418  0.2714
 6136TIP3    H242604   2.319   3.371  11.706  0.5534  1.5662  0.0465
 6137TIP3   OH242605   2.510   2.917  12.006 -0.1226  0.3292 -0.3967
 6137TIP3    H142606   2.469   2.832  11.988 -1.4416  0.8551  0.0060
 6137TIP3    H242607   2.540   2.911  12.097  1.0649 -0.1813 -0.7999
 6138TIP3   OH242608   3.640   0.410  11.942  0.1253  0.3070  0.2243
 6138TIP3    H142609   3.561   0.386  11.894  0.0894 -1.5240  1.1124
 6138TIP3    H242610   3.613   0.482  11.999 -0.3560  1.0799 -0.9533
 6139TIP3   OH242611   4.007   3.583  11.751 -0.1031  0.7882 -0.0521
 6139TIP3    H142612   4.025   3.503  11.801 -2.1246 -0.1696 -0.7457
 6139TIP3    H242613   4.092   3.626  11.744  1.0675 -1.2748  0.3828
 6140TIP3   OH242614   7.099   2.850  11.770  0.0237 -0.1358 -0.1228
 6140TIP3    H142615   7.005   2.836  11.774  0.1034 -0.7435 -0.2372
 6140TIP3    H242616   7.129   2.838  11.860 -0.0724  0.5623  0.0045
 6141TIP3   OH242617   0.113   4.903  12.239 -0.3295 -0.1363  0.3630
 6141TIP3    H142618   0.030   4.949  12.232  0.3575  1.1548  0.2691
 6141TIP3    H242619   0.169   4.944  12.172  0.1534 -1.4916 -0.0901
 6142TIP3   OH242620   1.461   2.573  11.163  0.3067 -0.1699 -0.2290
 6142TIP3    H142621   1.366   2.577  11.165  0.3393  2.2349 -1.0234
 6142TIP3    H242622   1.485   2.609  11.078  1.9274 -2.2218 -0.7424
 6143TIP3   OH242623   4.827   0.140  12.092 -0.0893  0.7584 -0.2101
 6143TIP3    H142624   4.909   0.166  12.135 -0.4718  0.3499  0.7841
 6143TIP3    H242625   4.852   0.125  12.000  1.1102 -0.0825  0.2337
 6144TIP3   OH242626   4.899   0.744  11.723 -0.4338  0.1329  0.0874
 6144TIP3    H142627   4.839   0.791  11.666  1.0628  0.4151 -1.3246
 6144TIP3    H242628   4.903   0.797  11.803 -0.4957  1.1938 -0.5937
 6145TIP3   OH242629   0.576   3.281  11.928  0.4598 -0.6173 -0.1565
 6145TIP3    H142630   0.516   3.214  11.960 -2.8695  2.0770 -0.0930
 6145TIP3    H242631   0.537   3.309  11.844  0.7559  2.1650  0.5359
 6146TIP3   OH242632   3.076   7.307  11.542  0.7049  0.3398 -0.2518
 6146TIP3    H142633   3.059   7.376  11.479  0.7892  0.2280 -0.3989
 6146TIP3    H242634   2.994   7.297  11.590 -0.0119 -0.9114 -1.6505
 6147TIP3   OH242635   2.316   5.467  13.196 -0.0996 -0.0156  0.3099
 6147TIP3    H142636   2.409   5.463  13.173 -0.8704  0.0498 -3.3441
 6147TIP3    H242637   2.292   5.376  13.216  0.2026 -0.4947 -1.4036
 6148TIP3   OH242638   5.698   0.453  12.220  0.0195 -0.0344 -0.0121
 6148TIP3    H142639   5.704   0.531  12.274  1.2883 -0.0784 -0.0707
 6148TIP3    H242640   5.761   0.392  12.258 -0.7347 -0.9327 -0.1512
 6149TIP3   OH242641   5.805   2.145  12.468  0.6072  0.8214  0.5252
 6149TIP3    H142642   5.742   2.136  12.397 -0.6523  0.5819  1.6150
 6149TIP3    H242643   5.890   2.140  12.426 -0.0960  0.5139 -0.9310
 6150TIP3   OH242644   2.251   6.320  12.515 -0.6585  0.8029  0.4398
 6150TIP3    H142645   2.188   6.268  12.565  0.9995 -2.3685 -0.4747
 6150TIP3    H242646   2.207   6.339  12.432 -1.0526  0.2324  0.5152
 6151TIP3   OH242647   4.073   4.642  12.788 -0.0506 -0.5666 -0.6426
 6151TIP3    H142648   4.103   4.678  12.705  2.3163  0.4421  0.5409
 6151TIP3    H242649   4.091   4.549  12.782 -3.4599 -1.2581 -2.6078
 6152TIP3   OH242650   2.582   4.993  11.677  0.2373  0.4010 -0.9080
 6152TIP3    H142651   2.488   5.003  11.662  0.4026  2.4954 -0.8058
 6152TIP3    H242652   2.623   5.065  11.629  1.7059  0.1368 -0.1272
 6153TIP3   OH242653   5.802   6.562  10.885 -0.2226  0.1117 -0.0102
 6153TIP3    H142654   5.712   6.592  10.881  0.0595  0.9255 -0.5302
 6153TIP3    H242655   5.852   6.639  10.911  0.2897 -0.4131  0.6009
 6154TIP3   OH242656   0.419   4.425  11.954 -0.0798 -0.1388 -0.1056
 6154TIP3    H142657   0.348   4.457  11.899 -0.3670 -2.0622 -0.9462
 6154TIP3    H242658   0.481   4.385  11.892 -0.0448 -1.6968  0.8774
 6155TIP3   OH242659   0.619   3.394  11.521  0.2042 -0.2231  0.3245
 6155TIP3    H142660   0.559   3.462  11.491 -0.5789 -0.6483  0.8877
 6155TIP3    H242661   0.656   3.429  11.602  0.7780  0.0702 -0.0607
 6156TIP3   OH242662   6.021   1.355  12.958 -0.2372 -0.0228 -0.2074
 6156TIP3    H142663   6.090   1.419  12.973 -0.1677 -0.3165  0.7699
 6156TIP3    H242664   6.051   1.277  13.005 -0.2830 -0.8004 -1.4373
 6157TIP3   OH242665   0.949   6.441  12.944  0.3994 -0.0670  0.4478
 6157TIP3    H142666   1.043   6.438  12.928  0.2918 -0.2965 -0.1830
 6157TIP3    H242667   0.909   6.439  12.856 -0.2219 -1.4567  0.7186
 6158TIP3   OH242668   1.684   1.496  11.224  0.7372 -0.2752 -0.1061
 6158TIP3    H142669   1.690   1.411  11.180  2.1851 -1.0761  1.4988
 6158TIP3    H242670   1.775   1.521  11.241  0.2993  1.0021  0.5310
 6159TIP3   OH242671   7.517   5.611  11.229  0.1792 -0.2636 -0.0985
 6159TIP3    H142672   7.423   5.609  11.212 -0.3455  2.6196  1.7274
 6159TIP3    H242673   7.539   5.521  11.252 -2.6021 -0.6636  1.4181
 6160TIP3   OH242674   7.156   4.409  10.690  0.4057  0.0306  0.3501
 6160TIP3    H142675   7.230   4.362  10.729 -0.5538 -0.9022  1.1157
 6160TIP3    H242676   7.133   4.356  10.613 -0.0550 -0.2197  0.6548
 6161TIP3   OH242677   5.713   4.451  11.249  0.0352 -0.0629 -0.4417
 6161TIP3    H142678   5.784   4.407  11.203  1.5375 -0.1314  1.7856
 6161TIP3    H242679   5.656   4.380  11.279 -0.2237 -0.1025 -1.0057
 6162TIP3   OH242680   5.882   4.672  12.442 -0.3047 -0.1112  0.8083
 6162TIP3    H142681   5.896   4.580  12.464  0.3413 -0.4686 -0.9466
 6162TIP3    H242682   5.947   4.720  12.494  0.7062 -0.8332  0.2213
 6163TIP3   OH242683   0.744   6.431  13.101  0.3043  0.3651  0.0206
 6163TIP3    H142684   0.811   6.449  13.034  2.1150 -3.5034  0.5000
 6163TIP3    H242685   0.782   6.466  13.182  0.8879 -0.0862 -0.0455
 6164TIP3   OH242686   3.624   1.678  13.108 -0.4038  0.2386 -0.0868
 6164TIP3    H142687   3.674   1.681  13.026 -0.8013  0.3027 -0.3278
 6164TIP3    H242688   3.550   1.620  13.089 -1.7830  2.0607 -0.5045
 6165TIP3   OH242689   7.488   4.578  10.732 -0.0421 -0.5440 -0.0365
 6165TIP3    H142690   7.496   4.642  10.804 -2.1804 -0.9137  0.6079
 6165TIP3    H242691   7.482   4.493  10.776 -1.7992 -0.7384 -0.5823
 6166TIP3   OH242692   0.235   5.069  12.514 -0.4795  0.0443  0.5612
 6166TIP3    H142693   0.168   5.101  12.454 -2.7568 -2.1818  1.7095
 6166TIP3    H242694   0.293   5.016  12.459 -0.1215  1.2898 -0.2997
 6167TIP3   OH242695   2.256   4.216  11.996 -0.5330  0.0506 -0.0268
 6167TIP3    H142696   2.234   4.142  12.052  0.0552  1.1720  1.7747
 6167TIP3    H242697   2.345   4.240  12.021 -0.9409  1.7611 -0.0896
 6168TIP3   OH242698   3.838   5.629  12.164  0.4169 -0.1054  0.3749
 6168TIP3    H142699   3.837   5.556  12.102  1.9451 -0.9513  1.2863
 6168TIP3    H242700   3.912   5.683  12.137  1.3311 -0.6768  1.6301
 6169TIP3   OH242701   0.696   6.275  17.894  0.4529  0.7282 -0.1379
 6169TIP3    H142702   0.734   6.224  17.965 -0.1819  1.1308  0.5020
 6169TIP3    H242703   0.770   6.321  17.855  0.8477  0.2803  0.0721
 6170TIP3   OH242704   3.343   7.323  13.103 -0.1760 -0.0591 -0.3657
 6170TIP3    H142705   3.299   7.241  13.081 -1.3035  0.3543  0.2356
 6170TIP3    H242706   3.425   7.297  13.145 -0.2983 -0.8669 -0.6230
 6171TIP3   OH242707   6.344   4.777  11.863  0.3307 -0.1303  0.0658
 6171TIP3    H142708   6.339   4.713  11.934  0.5888 -0.4599 -0.2125
 6171TIP3    H242709   6.261   4.826  11.869 -1.5252 -2.7124 -1.7884
 6172TIP3   OH242710   6.297   1.033  10.601  0.3184  0.3722 -0.3439
 6172TIP3    H142711   6.377   1.081  10.577 -0.7811  2.3207 -0.3522
 6172TIP3    H242712   6.291   1.043  10.696  0.5263 -0.5351 -0.2267
 6173TIP3   OH242713   5.248   3.100  13.041 -0.0356 -0.4519 -0.1617
 6173TIP3    H142714   5.242   3.007  13.017  0.1200 -0.2307 -1.0679
 6173TIP3    H242715   5.177   3.113  13.104 -0.8068 -0.9106 -0.9134
 6174TIP3   OH242716   3.400   1.634  13.434 -0.1202 -0.0020 -0.0413
 6174TIP3    H142717   3.413   1.581  13.356  2.6074 -0.5084  0.6439
 6174TIP3    H242718   3.415   1.574  13.507 -3.0386  0.3366  1.0014
 6175TIP3   OH242719   6.357   7.272  11.014 -0.3089  0.8167 -0.2814
 6175TIP3    H142720   6.302   7.200  10.982 -0.5928  0.3403  1.2093
 6175TIP3    H242721   6.434   7.270  10.958  0.4118 -1.6688  0.6781
 6176TIP3   OH242722   3.849   4.001  11.052 -0.1762 -0.0930 -0.1340
 6176TIP3    H142723   3.822   3.917  11.015 -0.4365 -0.1318  0.1402
 6176TIP3    H242724   3.799   4.009  11.133 -0.2335  0.3777 -0.2118
 6177TIP3   OH242725   3.595   6.255  13.270 -0.1831 -0.1501  0.1428
 6177TIP3    H142726   3.557   6.194  13.206 -1.7811  0.1389  0.7567
 6177TIP3    H242727   3.596   6.205  13.352 -0.1810  0.1828  0.3479
 6178TIP3   OH242728   5.198   1.828  11.016 -0.1608 -0.2275  0.3769
 6178TIP3    H142729   5.245   1.886  10.956  1.7584  0.4881  2.4193
 6178TIP3    H242730   5.267   1.786  11.068 -1.6891  0.5509  3.2610
 6179TIP3   OH242731   5.762   3.732  11.349  0.1311  0.2822 -0.0592
 6179TIP3    H142732   5.754   3.788  11.427 -2.0675  0.8579 -0.6109
 6179TIP3    H242733   5.719   3.650  11.375  0.9499 -0.1759 -0.1256
 6180TIP3   OH242734   5.514   1.731  11.920  0.9712 -0.2495  0.3624
 6180TIP3    H142735   5.441   1.775  11.964  2.0147  2.3086 -0.2730
 6180TIP3    H242736   5.551   1.673  11.986 -0.3664 -0.0665  1.3154
 6181TIP3   OH242737   2.536   4.663  10.999 -0.0512 -0.2728  0.1283
 6181TIP3    H142738   2.512   4.734  11.059 -1.5606 -0.8236  0.2274
 6181TIP3    H242739   2.484   4.680  10.921  0.6683 -0.4797 -0.3973
 6182TIP3   OH242740   2.956   6.121  11.898 -0.4998 -0.1943 -0.0482
 6182TIP3    H142741   2.874   6.076  11.877 -1.0044  1.0806 -0.9821
 6182TIP3    H242742   3.021   6.052  11.906 -1.2908 -1.1004 -1.1743
 6183TIP3   OH242743   2.283   4.872  12.466 -0.4615  0.3779  0.6594
 6183TIP3    H142744   2.328   4.871  12.381  0.0638 -1.3004  0.9032
 6183TIP3    H242745   2.202   4.919  12.450 -0.5664 -0.2515 -0.9009
 6184TIP3   OH242746   0.262   4.550  11.525 -0.1693  0.2277  0.1422
 6184TIP3    H142747   0.192   4.614  11.540 -1.7499 -1.3056 -0.4782
 6184TIP3    H242748   0.225   4.466  11.552  1.6122 -0.5762  0.2399
 6185TIP3   OH242749   5.668   0.425  10.394  0.2095  0.0232  0.2542
 6185TIP3    H142750   5.588   0.444  10.345 -0.4400 -2.5682  0.1403
 6185TIP3    H242751   5.637   0.402  10.481  0.7556 -1.2479  0.1388
 6186TIP3   OH242752   6.896   6.357  12.488 -0.1642 -0.1208  0.5266
 6186TIP3    H142753   6.903   6.263  12.473 -1.8413 -0.1165 -0.4919
 6186TIP3    H242754   6.984   6.383  12.516  0.6776 -1.7643 -0.4182
 6187TIP3   OH242755   6.667   1.654  10.803 -0.4131 -0.3196 -0.4645
 6187TIP3    H142756   6.701   1.743  10.816 -0.6334 -0.4419  1.1224
 6187TIP3    H242757   6.718   1.619  10.730  0.2121  0.8425 -0.6049
 6188TIP3   OH242758   2.197   6.242  12.933  0.1120  0.0239  0.2429
 6188TIP3    H142759   2.275   6.255  12.878  0.4708 -0.8697  0.5283
 6188TIP3    H242760   2.142   6.318  12.914  1.2170  0.8659  0.3111
 6189TIP3   OH242761   5.192   5.497  11.952 -0.5376  0.3459  0.5788
 6189TIP3    H142762   5.108   5.528  11.985 -0.5436  0.8262  0.1281
 6189TIP3    H242763   5.180   5.403  11.941  0.5142 -0.5722  5.1621
 6190TIP3   OH242764   6.515   3.389  13.035 -0.0715 -0.2919  0.5769
 6190TIP3    H142765   6.595   3.398  13.088 -0.0840  1.7670  0.3190
 6190TIP3    H242766   6.444   3.389  13.099  0.0294  0.0078  0.6916
 6191TIP3   OH242767   7.004   2.523  11.024 -0.1234  0.2808 -0.2661
 6191TIP3    H142768   6.924   2.574  11.038  0.3461  0.8318  0.5414
 6191TIP3    H242769   6.996   2.488  10.936 -1.3644  0.1293 -0.1102
 6192TIP3   OH242770   5.556   6.680  11.385 -0.3748 -0.2083 -0.1353
 6192TIP3    H142771   5.556   6.597  11.337  0.8257  0.2909 -1.0640
 6192TIP3    H242772   5.493   6.668  11.455  1.0992 -2.5776  0.8957
 6193TIP3   OH242773   6.065   3.836  12.067  0.0018 -0.5438 -0.0095
 6193TIP3    H142774   6.112   3.845  11.984  0.0258  1.5770  0.1658
 6193TIP3    H242775   5.981   3.796  12.043 -0.1454  0.3737 -1.1295
 6194TIP3   OH242776   2.714   2.702  11.751 -0.6560 -0.0038  0.3090
 6194TIP3    H142777   2.799   2.739  11.773 -0.6905 -0.4038  1.1348
 6194TIP3    H242778   2.651   2.753  11.801 -0.8486 -0.0791  0.1433
 6195TIP3   OH242779   1.824   6.077  12.470 -0.3580  0.2723  0.3527
 6195TIP3    H142780   1.871   6.109  12.393  0.2375  1.2897  1.1098
 6195TIP3    H242781   1.732   6.086  12.448 -0.1928  0.5327 -0.2467
 6196TIP3   OH242782   0.825   4.216  11.095  0.0953 -0.5823 -0.3559
 6196TIP3    H142783   0.805   4.265  11.015 -1.3473  0.8747  0.8339
 6196TIP3    H242784   0.868   4.279  11.152 -1.2060 -0.8286  0.9609
 6197TIP3   OH242785   0.579   1.080  12.558 -0.3956 -0.5871 -0.2221
 6197TIP3    H142786   0.527   1.037  12.491  0.4316  0.7453 -1.7964
 6197TIP3    H242787   0.665   1.093  12.517  0.5720 -0.9199  1.5827
 6198TIP3   OH242788   5.993   3.446  11.327  0.2463  0.1186 -0.6324
 6198TIP3    H142789   6.007   3.353  11.308 -0.7317  0.1773 -1.8495
 6198TIP3    H242790   5.966   3.448  11.419 -0.6079 -0.9178 -0.8363
 6199TIP3   OH242791   0.731   6.266  11.533 -0.2390 -0.8592  0.5572
 6199TIP3    H142792   0.713   6.351  11.492  0.6401  0.0645  2.0213
 6199TIP3    H242793   0.820   6.245  11.507 -1.6921 -3.5073 -3.3477
 6200TIP3   OH242794   5.522   6.526  12.729 -0.2694 -0.1655 -0.6074
 6200TIP3    H142795   5.443   6.570  12.761  0.1445 -0.8675  1.5702
 6200TIP3    H242796   5.594   6.572  12.771  0.3526 -0.9129 -0.8284
 6201TIP3   OH242797   1.312   0.668  13.175  0.0050 -0.4195 -0.1150
 6201TIP3    H142798   1.303   0.609  13.249 -1.9993 -0.0849 -0.0382
 6201TIP3    H242799   1.290   0.615  13.099  0.1865 -0.2788 -0.2675
 6202TIP3   OH242800   0.890   0.647  12.522 -0.3215 -0.4517  0.1291
 6202TIP3    H142801   0.931   0.676  12.441  0.5584 -1.3682  0.2381
 6202TIP3    H242802   0.840   0.569  12.498  1.0103 -1.5224  0.6825
 6203TIP3   OH242803   0.890   6.739  10.982 -0.3387 -0.1214  0.3482
 6203TIP3    H142804   0.948   6.750  10.907  0.1858 -0.7278  0.6502
 6203TIP3    H242805   0.808   6.707  10.945 -0.4851  0.7303 -0.0820
 6204TIP3   OH242806   3.421   6.608  10.814 -0.5353  0.2435 -0.0302
 6204TIP3    H142807   3.514   6.591  10.798 -1.3846 -2.0951 -3.8275
 6204TIP3    H242808   3.392   6.533  10.866 -0.5950  0.1295 -0.2274
 6205TIP3   OH242809   1.671   5.111  10.991 -0.3848 -0.3201  0.3563
 6205TIP3    H142810   1.579   5.087  10.979 -0.4964  0.7920 -1.2472
 6205TIP3    H242811   1.718   5.064  10.922  0.2261 -0.6031  0.9416
 6206TIP3   OH242812   7.000   0.158  12.357 -0.7620  0.0872 -0.3387
 6206TIP3    H142813   7.022   0.066  12.371 -1.2511  0.0868  0.4424
 6206TIP3    H242814   6.917   0.171  12.403 -0.0978  1.2197  0.5922
 6207TIP3   OH242815   1.263   1.526  11.369 -0.1358  0.0053  0.6744
 6207TIP3    H142816   1.193   1.589  11.386 -1.6567 -0.9958 -1.5063
 6207TIP3    H242817   1.241   1.450  11.423  0.7815  0.6327  2.0044
 6208TIP3   OH242818   5.410   0.442  11.360 -0.1161 -0.1268 -0.6262
 6208TIP3    H142819   5.405   0.398  11.275  0.9799  0.2651 -0.9219
 6208TIP3    H242820   5.464   0.519  11.343 -0.8121  0.5552  0.1984
 6209TIP3   OH242821   4.599   0.470  11.253 -0.3550 -0.1874  0.0989
 6209TIP3    H142822   4.558   0.386  11.271 -1.3539 -0.1308 -1.7021
 6209TIP3    H242823   4.684   0.448  11.215 -0.9270 -0.4229 -1.0809
 6210TIP3   OH242824   1.143   0.455  12.408  0.6259  0.0408 -0.1134
 6210TIP3    H142825   1.137   0.547  12.381  2.1497 -0.0778 -1.0400
 6210TIP3    H242826   1.060   0.416  12.383  0.1944  1.0418 -0.2592
 6211TIP3   OH242827   0.677   7.614  10.876 -0.1946 -0.3810 -0.5419
 6211TIP3    H142828   0.764   7.596  10.909 -0.5386 -1.9531 -0.4072
 6211TIP3    H242829   0.675   7.709  10.863  1.3293 -0.2542 -0.0252
 6212TIP3   OH242830   5.643   5.044  11.404 -0.3156  0.4456  0.4741
 6212TIP3    H142831   5.558   5.026  11.365 -0.4788  1.1701  0.4918
 6212TIP3    H242832   5.694   5.083  11.333 -0.2325  0.6789  0.6600
 6213TIP3   OH242833   4.078   3.996  10.835 -0.4324 -0.2808  0.0907
 6213TIP3    H142834   4.014   4.066  10.846  0.4406  0.5080  0.3323
 6213TIP3    H242835   4.131   4.024  10.760 -1.1961 -1.5918 -0.9996
 6214TIP3   OH242836   4.292   3.420  11.865  0.2744  0.3466  0.0735
 6214TIP3    H142837   4.386   3.416  11.848  0.2001 -0.6011 -0.1585
 6214TIP3    H242838   4.263   3.501  11.823  1.0044  0.7138  0.2667
 6215TIP3   OH242839   2.483   4.040  12.291 -0.4876 -0.4653  0.2667
 6215TIP3    H142840   2.560   3.990  12.318 -0.4496 -0.0715  0.9189
 6215TIP3    H242841   2.457   4.001  12.208 -0.4202 -1.5245  0.7249
 6216TIP3   OH242842   7.615   2.055  11.764 -0.4398  0.4077  0.4830
 6216TIP3    H142843   7.652   2.115  11.700 -0.8606 -0.2557 -0.3902
 6216TIP3    H242844   7.602   2.109  11.842 -1.1204  1.5388 -0.3868
 6217TIP3   OH242845   0.741   7.290  13.155 -0.1993  0.0498  0.2898
 6217TIP3    H142846   0.792   7.368  13.176 -1.6056  0.9629  0.5220
 6217TIP3    H242847   0.765   7.226  13.222  2.0674 -0.2981 -0.7548
 6218TIP3   OH242848   1.527   2.554  12.293 -0.1651  0.0509 -0.2893
 6218TIP3    H142849   1.462   2.605  12.341  0.2148  1.6736 -1.4156
 6218TIP3    H242850   1.494   2.550  12.203  0.2259 -1.0133 -0.4100
 6219TIP3   OH242851   2.051   4.498  10.751 -0.0129 -0.3053 -0.7519
 6219TIP3    H142852   2.014   4.416  10.784 -0.3066  0.1119 -0.0174
 6219TIP3    H242853   2.063   4.552  10.829  3.8175 -1.0296 -0.6603
 6220TIP3   OH242854   1.231   5.471  11.665 -0.1377  0.2196  0.2677
 6220TIP3    H142855   1.188   5.476  11.579  1.1715  0.1267 -0.4110
 6220TIP3    H242856   1.160   5.486  11.728 -1.5661 -1.8483 -0.7197
 6221TIP3   OH242857   6.682   6.741  12.605 -0.2966 -0.5405  0.3449
 6221TIP3    H142858   6.686   6.648  12.583  0.3796 -0.1581 -1.3546
 6221TIP3    H242859   6.592   6.766  12.586 -0.5441 -0.9054  1.0438
 6222TIP3   OH242860   7.510   0.180  13.004 -0.4498 -0.5584  0.1447
 6222TIP3    H142861   7.582   0.168  12.942  1.4963 -1.3408  2.4019
 6222TIP3    H242862   7.526   0.265  13.044  0.6806 -1.6717  2.2801
 6223TIP3   OH242863   5.803   0.421  11.938 -0.4212  0.4361  0.6547
 6223TIP3    H142864   5.763   0.408  12.024  0.0233  0.7900  0.9258
 6223TIP3    H242865   5.798   0.516  11.924 -0.3071  0.4030  0.3854
 6224TIP3   OH242866   3.635   6.426  12.618 -0.0460 -0.3323 -0.1955
 6224TIP3    H142867   3.636   6.428  12.713 -1.9095 -1.5052 -0.1071
 6224TIP3    H242868   3.644   6.518  12.592 -1.3593  0.2224  1.1661
 6225TIP3   OH242869   7.642   4.548  11.415 -0.2027 -0.1809 -0.2823
 6225TIP3    H142870   7.593   4.466  11.411  2.3496 -1.7858 -0.4228
 6225TIP3    H242871   7.632   4.577  11.506 -0.6502 -0.9613 -0.0727
 6226TIP3   OH242872   4.914   0.988  11.900  0.8115 -0.7032  0.0462
 6226TIP3    H142873   4.895   1.068  11.851  0.3400 -0.9098 -0.1115
 6226TIP3    H242874   5.000   1.004  11.940  1.5094 -0.7970 -1.3829
 6227TIP3   OH242875   4.262   6.226  11.281 -0.4568  0.6687  0.4758
 6227TIP3    H142876   4.297   6.249  11.367  1.3182 -0.2259  0.0495
 6227TIP3    H242877   4.255   6.131  11.283  2.1361  0.3187 -1.1640
 6228TIP3   OH242878   3.866   5.926  11.438  1.1005 -0.3288  0.0637
 6228TIP3    H142879   3.880   5.985  11.512  1.0235 -0.1691 -0.0483
 6228TIP3    H242880   3.803   5.862  11.471  0.7262  0.0001 -0.0031
 6229TIP3   OH242881   1.795   2.618  11.556 -0.3763  0.5841 -0.7127
 6229TIP3    H142882   1.768   2.709  11.570  1.2605  1.2375 -1.5369
 6229TIP3    H242883   1.891   2.621  11.555 -0.2506 -1.3574  0.4454
 6230TIP3   OH242884   1.915   4.639  12.616  0.6227 -0.1354  0.1678
 6230TIP3    H142885   1.894   4.553  12.579  0.8207 -0.9016  1.7414
 6230TIP3    H242886   1.830   4.684  12.620  0.2226 -0.9156  0.8858
 6231TIP3   OH242887   5.718   6.323  12.190  1.1011  0.4134 -0.1559
 6231TIP3    H142888   5.737   6.232  12.211 -0.7435  0.2025  0.8443
 6231TIP3    H242889   5.708   6.366  12.275  0.9953  1.3394 -0.6169
 6232TIP3   OH242890   4.327   6.450  11.162 -0.0965  0.1614  0.4229
 6232TIP3    H142891   4.275   6.443  11.082 -0.3374  0.1867  0.5758
 6232TIP3    H242892   4.315   6.365  11.205 -0.6672  0.4535  0.8548
 6233TIP3   OH242893   2.917   5.298  12.525 -0.3863 -0.1934  0.1471
 6233TIP3    H142894   2.966   5.380  12.527 -0.5048 -0.1177 -0.1163
 6233TIP3    H242895   2.839   5.315  12.579 -0.3627 -0.1643  0.1712
 6234TIP3   OH242896   0.695   3.828  11.858  0.0657  0.0051 -0.3560
 6234TIP3    H142897   0.746   3.816  11.938  1.0809 -2.4557 -1.2551
 6234TIP3    H242898   0.759   3.857  11.792 -0.3548  0.0755 -0.7390
 6235TIP3   OH242899   3.770   2.119  11.610  0.0565  0.1529  0.2866
 6235TIP3    H142900   3.748   2.128  11.517 -0.7715 -1.3261  0.3143
 6235TIP3    H242901   3.697   2.159  11.656  0.9362  1.8210  0.3471
 6236TIP3   OH242902   1.974   3.450  13.162 -0.4030 -0.4202 -0.2868
 6236TIP3    H142903   2.051   3.492  13.124 -0.3769 -0.4807 -0.3003
 6236TIP3    H242904   2.000   3.429  13.252 -0.7588  0.5219  0.0437
 6237TIP3   OH242905   0.845   3.294  12.533  0.4570 -0.5904  0.3061
 6237TIP3    H142906   0.846   3.284  12.628 -0.5355  0.7990  0.4978
 6237TIP3    H242907   0.825   3.387  12.519  0.6305 -0.7619 -1.2572
 6238TIP3   OH242908   2.829   5.628  11.299  0.0064 -0.0960 -0.6315
 6238TIP3    H142909   2.843   5.634  11.393  1.0004 -1.5369 -0.6427
 6238TIP3    H242910   2.765   5.557  11.289  1.7104 -1.6614 -1.0892
 6239TIP3   OH242911   5.150   0.697  11.956  0.3396 -0.6736  0.6625
 6239TIP3    H142912   5.233   0.651  11.944 -0.4465 -1.7022 -1.1701
 6239TIP3    H242913   5.083   0.633  11.933 -0.8789  0.7802 -0.0201
 6240TIP3   OH242914   5.670   0.896  11.158  0.0848  0.1195  0.3348
 6240TIP3    H142915   5.756   0.896  11.201  0.6702 -1.1682 -0.7427
 6240TIP3    H242916   5.652   0.989  11.141  0.9377  0.4595  1.1950
 6241TIP3   OH242917   7.303   3.407  10.698 -0.0004 -0.0073  0.8016
 6241TIP3    H142918   7.394   3.409  10.728  0.5838 -1.5927 -0.6810
 6241TIP3    H242919   7.308   3.429  10.605 -1.2465  0.6032  0.8572
 6242TIP3   OH242920   3.798   5.189  11.681 -0.0180  0.1462 -0.5248
 6242TIP3    H142921   3.723   5.248  11.690 -0.5414 -0.4322 -1.0491
 6242TIP3    H242922   3.811   5.153  11.768 -1.5918 -1.2390 -0.8152
 6243TIP3   OH242923   6.118   2.828  10.955  0.3828 -0.5873  0.1627
 6243TIP3    H142924   6.160   2.770  11.018  1.5881  0.7470  0.6437
 6243TIP3    H242925   6.026   2.830  10.982  0.4401 -1.7745  0.4874
 6244TIP3   OH242926   1.296   4.481  11.467  0.0749  0.2019  0.3252
 6244TIP3    H142927   1.239   4.536  11.414  0.7697  0.3324 -0.3016
 6244TIP3    H242928   1.340   4.425  11.404 -1.3247 -1.7945  1.0093
 6245TIP3   OH242929   4.106   6.292  12.811  0.0965  0.9766  0.0837
 6245TIP3    H142930   4.118   6.335  12.896 -0.6517 -0.1860  0.8217
 6245TIP3    H242931   4.167   6.218  12.812  1.2616  1.8904 -1.0982
 6246TIP3   OH242932   6.378   3.935  11.719  0.1298  0.7124 -0.2359
 6246TIP3    H142933   6.309   3.975  11.667  0.3389  2.1419  0.5186
 6246TIP3    H242934   6.346   3.846  11.738 -0.7264  0.7821 -1.2896
 6247TIP3   OH242935   0.457   1.205  10.508 -0.6437 -0.0018  0.0497
 6247TIP3    H142936   0.464   1.273  10.440  0.8642  0.7821  0.9385
 6247TIP3    H242937   0.540   1.209  10.555 -0.6803 -2.2116  0.4053
 6248TIP3   OH242938   2.352   5.944  12.907 -0.0225  0.0800 -0.2618
 6248TIP3    H142939   2.329   6.017  12.964  1.8015  1.6018 -1.3707
 6248TIP3    H242940   2.276   5.933  12.850 -1.2551 -0.4823  1.4040
 6249TIP3   OH242941   5.642   0.968  10.219  0.3470  0.0568  0.2375
 6249TIP3    H142942   5.600   0.977  10.304  2.2053  1.2724  1.0771
 6249TIP3    H242943   5.702   1.042  10.213 -0.2737  0.4548 -2.4794
 6250TIP3   OH242944   5.544   1.658  11.286 -0.7470  0.1901 -0.3351
 6250TIP3    H142945   5.503   1.744  11.287 -0.4747  0.3204 -0.0831
 6250TIP3    H242946   5.637   1.675  11.268 -0.2128  0.1852  2.0436
 6251TIP3   OH242947   7.094   6.603  13.164  0.6024 -0.3694 -0.2314
 6251TIP3    H142948   7.185   6.626  13.179  1.0041 -0.7696 -1.9061
 6251TIP3    H242949   7.053   6.685  13.136  0.7927 -0.5043 -0.9155
 6252TIP3   OH242950   5.280   0.272  12.421 -0.5857  0.6403  0.3078
 6252TIP3    H142951   5.344   0.342  12.429 -0.0308  0.3912 -1.5313
 6252TIP3    H242952   5.316   0.201  12.474  0.0315  0.9494  0.3184
 6253TIP3   OH242953   4.998   6.080  12.034 -0.4852 -0.2990  0.1469
 6253TIP3    H142954   4.934   6.112  11.970 -0.0216 -1.5621 -0.9972
 6253TIP3    H242955   4.988   6.139  12.109 -2.1950  0.2241 -0.4345
 6254TIP3   OH242956   3.117   4.745  11.140 -0.2226 -0.0453 -0.0221
 6254TIP3    H142957   3.039   4.691  11.157  0.1516 -0.7186 -0.3654
 6254TIP3    H242958   3.184   4.681  11.115  0.9517  0.3407  1.9817
 6255TIP3   OH242959   1.813   5.278  12.700 -0.5808  0.0044 -0.1715
 6255TIP3    H142960   1.890   5.275  12.757 -1.1658 -0.0167  0.6443
 6255TIP3    H242961   1.832   5.348  12.638 -0.3152  0.6953  0.6604
 6256TIP3   OH242962   6.031   2.445  11.503 -0.1426 -0.6284 -0.2416
 6256TIP3    H142963   6.122   2.426  11.478 -0.3566 -1.6065 -0.2993
 6256TIP3    H242964   6.025   2.416  11.594  0.1377  1.2811  0.4325
 6257TIP3   OH242965   6.973   3.997  12.145 -0.0576 -0.0128 -0.1921
 6257TIP3    H142966   6.879   3.980  12.147  0.0853 -0.7342  0.7514
 6257TIP3    H242967   6.980   4.092  12.148 -0.8114  0.2615 -3.1530
 6258TIP3   OH242968   3.872   1.434  11.403 -0.0149 -0.2303 -0.2119
 6258TIP3    H142969   3.864   1.513  11.456 -0.9986 -0.4415 -0.0191
 6258TIP3    H242970   3.966   1.425  11.387  0.1791  0.5359  0.4244
 6259TIP3   OH242971   6.975   1.338  11.037 -0.2146 -0.4647  0.4398
 6259TIP3    H142972   7.000   1.416  10.988  1.7407  1.1049  3.6286
 6259TIP3    H242973   6.879   1.340  11.036 -0.2430  0.5859 -1.4825
 6260TIP3   OH242974   2.170   6.093  11.219 -0.1463  0.2369  0.2931
 6260TIP3    H142975   2.120   6.065  11.295  2.7363  1.1895  2.7396
 6260TIP3    H242976   2.123   6.170  11.185 -0.5461  0.9088  2.2772
 6261TIP3   OH242977   1.214   6.678  13.262  0.0441  0.1397 -0.0179
 6261TIP3    H142978   1.306   6.704  13.252 -0.3502  1.1102 -1.5522
 6261TIP3    H242979   1.173   6.705  13.180 -1.4707 -0.9471  0.3392
 6262TIP3   OH242980   5.894   7.143  10.615  0.0982 -0.3382  0.1012
 6262TIP3    H142981   5.815   7.196  10.606 -1.1504 -2.0953  0.2757
 6262TIP3    H242982   5.945   7.188  10.683 -1.3191  0.1844  0.8630
 6263TIP3   OH242983   6.795   1.901  11.842 -0.2555  0.2228  0.1147
 6263TIP3    H142984   6.726   1.835  11.852 -0.8280  0.9397  1.0660
 6263TIP3    H242985   6.763   1.976  11.892  1.3777  0.4353  0.8929
 6264TIP3   OH242986   4.120   5.998  11.562  0.0962  0.3115 -0.5116
 6264TIP3    H142987   4.164   5.950  11.631 -0.8770 -0.2880 -0.2845
 6264TIP3    H242988   4.165   5.972  11.482  0.1243 -0.3195 -0.2897
 6265TIP3   OH242989   3.618   3.196  11.446 -0.1845  0.6383 -0.2408
 6265TIP3    H142990   3.693   3.137  11.456 -1.1246 -0.6027 -0.3003
 6265TIP3    H242991   3.548   3.155  11.497 -0.7539  1.9374  0.0787
 6266TIP3   OH242992   5.651   6.959  10.671 -0.2583 -0.6512  0.8439
 6266TIP3    H142993   5.630   7.013  10.594  1.1016 -0.9289  0.2494
 6266TIP3    H242994   5.568   6.952  10.718 -0.8578  0.5090  0.0265
 6267TIP3   OH242995   4.854   1.279  11.865 -0.3025 -0.9604 -0.3199
 6267TIP3    H142996   4.919   1.284  11.934  0.2082 -2.5869 -0.6376
 6267TIP3    H242997   4.814   1.366  11.863  2.6450  0.4937 -0.9093
 6268TIP3   OH242998   2.515   0.421  13.042 -0.6209 -0.3730  0.5407
 6268TIP3    H142999   2.501   0.333  13.078 -0.9545 -0.6118 -0.1681
 6268TIP3    H243000   2.604   0.444  13.069  0.0406 -1.5533 -0.5756
 6269TIP3   OH243001   3.080   2.177  11.644  0.2963 -0.2017  0.2832
 6269TIP3    H143002   3.085   2.083  11.624  0.5031 -0.4457  1.3727
 6269TIP3    H243003   2.997   2.186  11.691  1.6173 -0.4333  2.8686
 6270TIP3   OH243004   2.613   3.820  13.442  0.1078  0.1474  0.2672
 6270TIP3    H143005   2.525   3.782  13.434  0.1731  0.0940 -0.2281
 6270TIP3    H243006   2.672   3.744  13.442  0.1690  0.1942  0.3695
 6271TIP3   OH243007   3.281   2.001  12.959 -0.5634 -0.4529 -0.7189
 6271TIP3    H143008   3.198   2.029  12.998 -0.2767  0.4739 -0.7437
 6271TIP3    H243009   3.324   2.083  12.933  0.5153 -0.8849 -0.3711
 6272TIP3   OH243010   0.059   3.391  10.638  0.1693 -0.1213  0.2195
 6272TIP3    H143011   0.118   3.465  10.620  0.4432 -0.0064  1.4999
 6272TIP3    H243012  -0.006   3.427  10.698 -1.5186 -0.1186 -1.5321
 6273TIP3   OH243013   5.574   5.168  12.710 -0.1750  0.4151  0.1566
 6273TIP3    H143014   5.487   5.153  12.748 -0.5238  0.5008 -0.5848
 6273TIP3    H243015   5.634   5.131  12.774 -0.6352  1.8945  1.5167
 6274TIP3   OH243016   0.330   2.024  10.985  0.4311  0.0337  0.5965
 6274TIP3    H143017   0.273   2.096  10.956  0.5755  0.4412  1.3051
 6274TIP3    H243018   0.414   2.065  11.002 -0.0914  0.2118  3.3269
 6275TIP3   OH243019   4.470   4.784  12.248  0.1065  0.6629  0.2738
 6275TIP3    H143020   4.553   4.738  12.262  2.0755  3.1057 -2.0889
 6275TIP3    H243021   4.418   4.724  12.196  2.2801  0.6461 -2.0746
 6276TIP3   OH243022   6.574   5.040  11.105  0.5862  0.3455  0.3903
 6276TIP3    H143023   6.489   4.999  11.088  0.0310  2.1352 -1.5458
 6276TIP3    H243024   6.553   5.119  11.154  1.1183  0.8714 -0.2198
 6277TIP3   OH243025   5.352   0.048  11.891  0.5254  0.4401  0.0897
 6277TIP3    H143026   5.427   0.071  11.837 -0.1311 -0.4134 -1.2494
 6277TIP3    H243027   5.365  -0.045  11.912  1.3441  1.0119  2.4087
 6278TIP3   OH243028   5.483   3.093  11.216 -0.2735 -0.1350 -0.2481
 6278TIP3    H143029   5.523   3.018  11.260  0.7773  1.0600  0.9350
 6278TIP3    H243030   5.421   3.128  11.279  0.5666  1.0464 -0.0430
 6279TIP3   OH243031   0.433   5.763  11.521 -0.0551 -0.5219 -0.5748
 6279TIP3    H143032   0.400   5.842  11.480 -1.5535 -0.6815  0.2601
 6279TIP3    H243033   0.371   5.745  11.592  0.2497 -2.4437 -0.7513
 6280TIP3   OH243034   2.711   3.219  11.252  0.3830  0.1488  0.0785
 6280TIP3    H143035   2.673   3.243  11.168 -0.8732 -2.7031 -0.3037
 6280TIP3    H243036   2.686   3.127  11.264  0.6337  0.3911  3.5049
 6281TIP3   OH243037   1.999   5.588  11.687  0.3831  0.0862  0.6350
 6281TIP3    H143038   2.090   5.586  11.717 -0.0586  1.6608  2.2465
 6281TIP3    H243039   1.947   5.580  11.767 -0.9586 -2.2499 -0.3822
 6282TIP3   OH243040   1.361   0.943  13.143  0.1113 -0.1212 -0.0724
 6282TIP3    H143041   1.349   0.853  13.171  1.6482 -0.3801 -0.1871
 6282TIP3    H243042   1.272   0.978  13.136 -0.5270 -1.7547 -0.4916
 6283TIP3   OH243043   3.769   5.808  10.726  0.1276 -0.3183 -0.2426
 6283TIP3    H143044   3.714   5.884  10.743 -0.5959 -0.1470 -2.8847
 6283TIP3    H243045   3.723   5.760  10.657  1.5026 -2.1456  0.0389
 6284TIP3   OH243046   5.146   3.775  12.148  0.6394  0.1985 -0.0544
 6284TIP3    H143047   5.178   3.736  12.229  0.3597  2.1626  1.0477
 6284TIP3    H243048   5.189   3.723  12.079  0.2684 -2.0257  1.2755
 6285TIP3   OH243049   3.685   5.280  12.637  0.2801  0.0257  0.3462
 6285TIP3    H143050   3.752   5.251  12.700  1.1157  1.8882  0.3782
 6285TIP3    H243051   3.735   5.297  12.557 -0.2491  0.8986  0.1999
 6286TIP3   OH243052   5.145   6.121  13.075  0.0028  1.2577 -0.1335
 6286TIP3    H143053   5.128   6.181  13.003  1.9695  1.5979 -0.3614
 6286TIP3    H243054   5.129   6.173  13.154 -1.0197  1.2239 -0.3002
 6287TIP3   OH243055   1.406   0.394  12.428 -0.4747 -0.8447  0.5329
 6287TIP3    H143056   1.423   0.437  12.344 -0.8291  1.2956  1.4859
 6287TIP3    H243057   1.314   0.411  12.446 -0.4431 -1.4151  1.2931
 6288TIP3   OH243058   1.593   1.991  12.085 -0.0584  0.1051 -0.1745
 6288TIP3    H143059   1.611   1.935  12.010  0.4350  1.0191 -0.7504
 6288TIP3    H243060   1.663   1.970  12.148 -0.2644 -0.3956 -0.1050
 6289TIP3   OH243061   3.254   6.604  12.257 -0.1539  0.2936  0.0654
 6289TIP3    H143062   3.307   6.683  12.251  0.9500 -0.2160  2.1979
 6289TIP3    H243063   3.311   6.534  12.224 -1.2476  0.3802 -2.1526
 6290TIP3   OH243064   7.604   3.125  10.604  0.2919 -0.0375 -0.3096
 6290TIP3    H143065   7.678   3.177  10.636 -0.6871  1.3167 -0.1571
 6290TIP3    H243066   7.536   3.136  10.671 -0.5421 -0.1097 -1.1246
 6291TIP3   OH243067   3.846   6.520  11.191 -0.3906 -0.2489 -0.1357
 6291TIP3    H143068   3.903   6.444  11.181 -1.5170 -1.2127  0.5272
 6291TIP3    H243069   3.764   6.484  11.225 -1.0099  1.2443  0.0155
 6292TIP3   OH243070   5.701   1.001  12.397 -0.1199  0.3586  0.1061
 6292TIP3    H143071   5.683   0.966  12.484 -0.1958  1.1445  0.4107
 6292TIP3    H243072   5.703   1.096  12.409 -1.0157  0.5227 -0.9197
 6293TIP3   OH243073   2.234   2.871  12.308  0.2762 -0.4603  0.5226
 6293TIP3    H143074   2.327   2.851  12.305  0.5407  0.7785 -1.3935
 6293TIP3    H243075   2.206   2.870  12.216 -0.8134  2.3630  0.7106
 6294TIP3   OH243076   1.825   6.742  12.016  0.0908  0.6921 -0.5105
 6294TIP3    H143077   1.893   6.809  12.007  0.1169  0.7418 -0.0172
 6294TIP3    H243078   1.769   6.753  11.939  0.0143  1.3831 -0.3631
 6295TIP3   OH243079   6.615   6.948  11.353 -0.3796  0.1558 -0.2729
 6295TIP3    H143080   6.671   7.025  11.350 -1.8514  1.2416 -0.9172
 6295TIP3    H243081   6.657   6.885  11.294  1.7783 -0.2745  1.5746
 6296TIP3   OH243082   3.831   4.454  11.398 -0.1685 -0.1642 -0.2426
 6296TIP3    H143083   3.918   4.472  11.361  0.5952 -0.3103  1.4152
 6296TIP3    H243084   3.823   4.359  11.396  0.6596 -0.3051  1.6064
 6297TIP3   OH243085   4.376   0.530  10.961 -0.2666 -0.1221  0.0011
 6297TIP3    H143086   4.386   0.500  10.871 -0.4136 -0.4737  0.0997
 6297TIP3    H243087   4.404   0.455  11.014 -0.5381 -0.0503  0.2495
 6298TIP3   OH243088   0.357   4.500  11.024  0.7657  0.3701  0.0964
 6298TIP3    H143089   0.423   4.564  11.047 -0.5178  1.5379  0.6366
 6298TIP3    H243090   0.284   4.551  10.989  0.3751 -0.9253 -1.1094
 6299TIP3   OH243091   2.934   7.377  11.001  0.4413 -0.1101 -0.4062
 6299TIP3    H143092   2.884   7.359  11.081  1.8076 -2.5826 -0.0386
 6299TIP3    H243093   2.910   7.467  10.978 -2.3783 -0.3891  1.0143
 6300TIP3   OH243094   2.906   2.492  11.164 -0.1254 -0.1986  0.1623
 6300TIP3    H143095   2.943   2.403  11.163 -0.6947 -0.4449  0.4338
 6300TIP3    H243096   2.917   2.521  11.255  2.4778  1.0644 -0.4634
 6301TIP3   OH243097   5.441   0.201  12.933  0.4210  0.1894  0.6047
 6301TIP3    H143098   5.435   0.255  12.854  1.5409 -2.0982 -1.1613
 6301TIP3    H243099   5.524   0.227  12.973 -0.4056  1.7437  1.4051
 6302TIP3   OH243100   5.986   6.964  12.783 -0.1367 -0.1528 -0.1063
 6302TIP3    H143101   5.956   6.897  12.844  0.1835  0.5940  0.8927
 6302TIP3    H243102   5.916   7.029  12.781  0.1887  0.2104  0.0704
 6303TIP3   OH243103   4.059   1.974  11.089 -0.0597  0.0288 -0.1619
 6303TIP3    H143104   3.990   1.956  11.153  1.6736 -1.1520  1.4748
 6303TIP3    H243105   4.109   2.045  11.129 -0.2890  0.8672 -1.3341
 6304TIP3   OH243106   7.345   6.754  12.659  0.1292 -0.0507 -0.4002
 6304TIP3    H143107   7.404   6.829  12.654 -0.7801  0.6928 -0.1447
 6304TIP3    H243108   7.331   6.729  12.568 -0.4635  0.8089 -0.5536
 6305TIP3   OH243109   2.292   7.580  12.981 -0.2642 -0.2108 -0.5356
 6305TIP3    H143110   2.380   7.617  12.983  0.0222 -0.8716  1.3813
 6305TIP3    H243111   2.282   7.546  12.892  1.2686  0.2158 -0.8966
 6306TIP3   OH243112   7.084   5.857  10.908 -0.1315  0.1745  0.2198
 6306TIP3    H143113   7.050   5.914  10.977 -1.0057  0.9828 -0.8432
 6306TIP3    H243114   7.027   5.873  10.834  1.6877  0.4557 -1.1817
 6307TIP3   OH243115   4.689   7.208  11.936  0.5157  0.2791 -0.0664
 6307TIP3    H143116   4.660   7.234  12.023  0.4728  0.0469 -0.0113
 6307TIP3    H243117   4.709   7.115  11.944 -4.2013 -1.1190 -1.4710
 6308TIP3   OH243118   4.992   1.429  10.938  0.2143  0.3576  0.1448
 6308TIP3    H143119   4.990   1.524  10.937  0.2982  0.3827  1.2692
 6308TIP3    H243120   5.085   1.407  10.931  0.1810  0.3521 -0.2889
 6309TIP3   OH243121   5.354   0.716  10.733  0.0262 -0.6132  0.1714
 6309TIP3    H143122   5.298   0.670  10.795 -0.9124  1.6409  1.1159
 6309TIP3    H243123   5.425   0.751  10.787  0.0411  0.0672 -0.2743
 6310TIP3   OH243124   0.344   3.551  11.782 -0.2776 -1.0247  0.2568
 6310TIP3    H143125   0.357   3.560  11.876 -0.9154  0.8286  0.2096
 6310TIP3    H243126   0.251   3.529  11.772 -1.0643  2.0125 -0.0005
 6311TIP3   OH243127   1.882   4.059  11.739  0.1055  0.0000  0.5498
 6311TIP3    H143128   1.830   4.101  11.808 -1.5169  1.1458 -1.2454
 6311TIP3    H243129   1.825   4.062  11.661  0.8062 -3.5739 -0.2833
 6312TIP3   OH243130   1.932   3.589  13.565 -0.2344  0.2001  0.2617
 6312TIP3    H143131   1.880   3.629  13.496 -1.6141  1.0485  1.7081
 6312TIP3    H243132   2.003   3.651  13.581  0.1861 -0.0766 -0.4578
 6313TIP3   OH243133   6.274   6.244  11.764 -0.4661  0.4526  0.2987
 6313TIP3    H143134   6.336   6.283  11.702 -1.2906  1.3249  0.0001
 6313TIP3    H243135   6.212   6.196  11.709  0.2006 -0.8446  0.6268
 6314TIP3   OH243136   7.370   3.640  10.969 -0.3600  0.3412 -0.5119
 6314TIP3    H143137   7.290   3.667  10.923  0.5330  0.6468 -1.9353
 6314TIP3    H243138   7.398   3.719  11.015 -1.7764 -0.2115  1.4323
 6315TIP3   OH243139   0.209   3.581  11.205  0.5770  0.1488 -0.0460
 6315TIP3    H143140   0.289   3.561  11.254 -0.1279  0.6438  1.3624
 6315TIP3    H243141   0.206   3.677  11.203  0.0704  0.1285 -0.1882
 6316TIP3   OH243142   6.126   0.287  11.661 -0.2437  0.4042 -1.2161
 6316TIP3    H143143   6.086   0.374  11.672  0.1460  0.4737 -0.2131
 6316TIP3    H243144   6.055   0.232  11.629 -1.5237  0.2729  1.5286
 6317TIP3   OH243145   7.076   4.992  10.362  0.3144  0.0369 -0.1725
 6317TIP3    H143146   7.012   5.047  10.409  0.2444 -1.5191  1.6760
 6317TIP3    H243147   7.023   4.925  10.319  0.5777 -0.0554 -0.3535
 6318TIP3   OH243148   2.595   5.205  12.987  0.1949 -0.2561 -0.1601
 6318TIP3    H143149   2.539   5.138  13.025 -2.1310  1.1569 -0.8884
 6318TIP3    H243150   2.638   5.247  13.062 -2.0818  0.5878  0.7554
 6319TIP3   OH243151   1.871   2.039  10.610  0.1580  0.5007 -0.6167
 6319TIP3    H143152   1.902   2.039  10.520 -1.3115  1.6080 -1.1695
 6319TIP3    H243153   1.777   2.022  10.603 -0.1397  1.4587  0.6284
 6320TIP3   OH243154   7.663   4.746  11.223  0.1287  0.1877  0.5192
 6320TIP3    H143155   7.644   4.669  11.277 -1.4865  0.4518  0.3861
 6320TIP3    H243156   7.622   4.819  11.270 -1.9582  0.3311 -1.3284
 6321TIP3   OH243157   0.221   5.217  11.646 -0.2416  0.4650 -0.0915
 6321TIP3    H143158   0.313   5.192  11.650 -0.0642  1.2376  1.3193
 6321TIP3    H243159   0.192   5.189  11.559  1.2865  0.0988 -0.5093
 6322TIP3   OH243160   1.225   4.422  11.994 -0.1001 -0.0819 -0.0055
 6322TIP3    H143161   1.160   4.375  12.046  0.9378 -0.8697  0.6236
 6322TIP3    H243162   1.174   4.467  11.926 -1.4019  0.3464  1.2193
 6323TIP3   OH243163   3.095   2.326  12.446  0.3155  0.2928  0.1436
 6323TIP3    H143164   3.147   2.406  12.448 -0.4879  0.8793 -1.2281
 6323TIP3    H243165   3.012   2.351  12.405 -0.1991 -1.0997  0.2608
 6324TIP3   OH243166   7.526   2.871  11.623 -0.4474 -0.3472  0.2298
 6324TIP3    H143167   7.600   2.902  11.675 -0.6415  0.9523 -0.2416
 6324TIP3    H243168   7.499   2.947  11.571 -1.8074 -0.9308  0.0398
 6325TIP3   OH243169   7.290   1.808  10.639  0.4621 -0.1500  0.2354
 6325TIP3    H143170   7.228   1.771  10.702  0.1310 -0.5011 -0.2875
 6325TIP3    H243171   7.255   1.783  10.553 -0.7250  2.8070 -0.2669
 6326TIP3   OH243172   7.634   6.472  10.521  0.2333 -0.5756 -0.1445
 6326TIP3    H143173   7.574   6.537  10.486  0.2792 -0.8031 -0.6649
 6326TIP3    H243174   7.606   6.389  10.481 -1.3821 -1.3653  2.3724
 6327TIP3   OH243175   0.977   5.133  10.947 -0.0412  0.4520  0.3107
 6327TIP3    H143176   0.954   5.200  10.883 -0.3671  0.8915  0.8795
 6327TIP3    H243177   1.005   5.183  11.024  1.7384 -0.0611  0.0322
 6328TIP3   OH243178   0.803   2.342  11.090  0.4439 -0.4080  0.1656
 6328TIP3    H143179   0.741   2.399  11.135  2.0044  1.3332  0.2418
 6328TIP3    H243180   0.765   2.330  11.003  0.1489  0.9458  0.0745
 6329TIP3   OH243181   5.518   4.854  12.331 -0.1934  0.6573  0.5146
 6329TIP3    H143182   5.472   4.770  12.334  0.4871  0.2936  0.8396
 6329TIP3    H243183   5.487   4.900  12.409 -1.3818  1.1503 -0.2258
 6330TIP3   OH243184   3.734   2.694  10.736  0.1134  0.1442  0.2060
 6330TIP3    H143185   3.819   2.709  10.693  0.3017 -0.1018  0.4852
 6330TIP3    H243186   3.670   2.734  10.677  0.4731  0.8345  0.2742
 6331TIP3   OH243187   7.274   4.556  11.453  0.2344  0.1308  0.4795
 6331TIP3    H143188   7.256   4.544  11.546  1.7048 -1.3656  0.6401
 6331TIP3    H243189   7.345   4.493  11.435 -2.1825 -2.0707 -2.3704
 6332TIP3   OH243190   0.727   4.825  12.271 -0.7257 -0.1388 -0.0546
 6332TIP3    H143191   0.810   4.859  12.237  0.2537  0.8852  3.0514
 6332TIP3    H243192   0.736   4.730  12.265 -0.0423 -0.0281 -1.2025
 6333TIP3   OH243193   0.721   0.210  11.525 -0.0443 -0.0131  0.3647
 6333TIP3    H143194   0.755   0.197  11.613  2.0551  1.1425 -0.2085
 6333TIP3    H243195   0.692   0.301  11.523 -0.2405 -0.0797 -0.0850
 6334TIP3   OH243196   4.364   5.123  12.487  0.2875 -0.0560  0.3633
 6334TIP3    H143197   4.429   5.059  12.458 -0.3534 -1.3589  1.6647
 6334TIP3    H243198   4.360   5.186  12.416 -1.8550 -3.5071 -2.9604
 6335TIP3   OH243199   2.214   7.141  11.115  0.2824  0.0414  0.2192
 6335TIP3    H143200   2.222   7.051  11.082 -1.0212  0.1266 -0.4013
 6335TIP3    H243201   2.239   7.195  11.040 -2.8145  0.2404 -0.8177
 6336TIP3   OH243202   6.706   3.229  10.698 -0.1557 -0.2783  0.1587
 6336TIP3    H143203   6.768   3.185  10.756 -1.1917  0.3789  1.8190
 6336TIP3    H243204   6.759   3.293  10.651  1.1457 -2.3718 -1.4167
 6337TIP3   OH243205   2.891   4.403  10.975 -0.0392 -0.3935 -0.1836
 6337TIP3    H143206   2.964   4.423  10.917  0.3911 -2.2141 -0.3324
 6337TIP3    H243207   2.862   4.316  10.948 -0.7905 -0.6617  1.3641
 6338TIP3   OH243208   3.674   1.960  11.896  0.1358  0.0849  0.4038
 6338TIP3    H143209   3.624   1.986  11.818  0.4775 -2.4097 -0.7669
 6338TIP3    H243210   3.611   1.967  11.968 -0.8314  0.4805 -0.4439
 6339TIP3   OH243211   0.388   7.165  11.130  0.3275  0.3036 -0.2878
 6339TIP3    H143212   0.405   7.149  11.223  0.8500 -1.2005 -0.6159
 6339TIP3    H243213   0.458   7.118  11.085  0.0952  1.0480 -1.4558
 6340TIP3   OH243214   4.270   5.566  13.041  0.4114  0.0049  0.0260
 6340TIP3    H143215   4.196   5.553  12.982 -0.6318 -1.0997  1.5037
 6340TIP3    H243216   4.329   5.493  13.022  0.1772 -0.2294  0.1932
 6341TIP3   OH243217   1.307   2.109  10.748  0.3607 -0.5232 -0.3958
 6341TIP3    H143218   1.320   2.133  10.840  0.2221  0.2623 -0.5715
 6341TIP3    H243219   1.256   2.028  10.752 -0.0668 -0.2380  0.2204
 6342TIP3   OH243220   0.245   2.985  13.030 -0.1605 -0.3409  0.0589
 6342TIP3    H143221   0.195   2.978  13.111 -0.8914  0.6318 -0.2895
 6342TIP3    H243222   0.215   2.910  12.978 -0.1378 -0.6218  0.4448
 6343TIP3   OH243223   5.285   2.316  10.843 -0.2730  0.0187  0.1530
 6343TIP3    H143224   5.341   2.388  10.815  0.0390  0.0829  0.9125
 6343TIP3    H243225   5.205   2.358  10.873 -1.0780 -0.1247 -1.6912
 6344TIP3   OH243226   1.767   1.850  11.051 -0.3931 -0.1262 -0.3065
 6344TIP3    H143227   1.792   1.870  10.961 -0.8694  0.1250 -0.3840
 6344TIP3    H243228   1.741   1.758  11.049  1.7546 -0.7872  0.0380
 6345TIP3   OH243229   3.309   1.893  13.220  0.0881  0.5578  0.2456
 6345TIP3    H143230   3.394   1.918  13.256  1.3297 -0.8120 -1.5389
 6345TIP3    H243231   3.314   1.918  13.127 -0.7406 -1.1164 -0.2979
 6346TIP3   OH243232   5.767   7.112  10.932  0.3506  0.0304 -0.2899
 6346TIP3    H143233   5.840   7.169  10.956 -0.8633  0.8337  1.7953
 6346TIP3    H243234   5.708   7.116  11.008 -1.8451 -0.6173 -1.8778
 6347TIP3   OH243235   5.371   3.459  12.302 -0.3403 -0.4511 -0.5448
 6347TIP3    H143236   5.453   3.464  12.351 -0.7912 -1.0093  0.2953
 6347TIP3    H243237   5.396   3.421  12.217  0.6323  1.6141 -1.2324
 6348TIP3   OH243238   0.682   5.921  13.139  0.2772 -0.1693 -0.3786
 6348TIP3    H143239   0.603   5.974  13.134  0.3833  0.2589  1.7809
 6348TIP3    H243240   0.651   5.831  13.147  0.0886 -0.3271 -2.3055
 6349TIP3   OH243241   5.190   6.309  11.225  0.5577  0.0977 -0.1993
 6349TIP3    H143242   5.223   6.395  11.197  0.9134  0.1190  0.2801
 6349TIP3    H243243   5.120   6.289  11.163  0.3891  0.7905 -0.2373
 6350TIP3   OH243244   7.184   5.925  12.267 -0.3523 -0.6631  0.9717
 6350TIP3    H143245   7.174   5.830  12.254 -0.6478 -0.7174  1.5690
 6350TIP3    H243246   7.239   5.932  12.345  3.1909 -0.3803 -1.2646
 6351TIP3   OH243247   1.433   4.827  11.739 -0.3310  0.4558  0.4067
 6351TIP3    H143248   1.347   4.786  11.731 -0.0868  0.0371 -0.1702
 6351TIP3    H243249   1.480   4.799  11.661 -0.2578  2.0902 -0.1786
 6352TIP3   OH243250   1.713   6.273  11.332 -0.5299  0.6911 -0.1725
 6352TIP3    H143251   1.801   6.264  11.295 -0.9710 -1.2749 -0.8961
 6352TIP3    H243252   1.671   6.338  11.277 -1.0836 -1.9726 -3.2311
 6353TIP3   OH243253   5.794   1.845  11.860  0.6508  0.0454 -0.2281
 6353TIP3    H143254   5.712   1.857  11.908 -0.0125 -1.8515 -0.8119
 6353TIP3    H243255   5.775   1.877  11.772  0.4027 -0.7503 -0.4688
 6354TIP3   OH243256   6.396   6.489  10.432  0.3004 -0.2515 -0.1905
 6354TIP3    H143257   6.409   6.398  10.406  2.3283 -0.0870  0.1063
 6354TIP3    H243258   6.332   6.485  10.503 -0.8126 -1.2594 -1.1950
 6355TIP3   OH243259   4.783   5.286  10.475  0.0036 -0.3175 -0.0471
 6355TIP3    H143260   4.822   5.235  10.403  0.4029 -0.3835  0.2149
 6355TIP3    H243261   4.843   5.274  10.548  0.6691  1.3764 -0.2713
 6356TIP3   OH243262   1.122   6.423  13.262  0.0736 -0.2223  0.2024
 6356TIP3    H143263   1.164   6.508  13.273 -1.2367  0.7075 -1.5732
 6356TIP3    H243264   1.069   6.432  13.183  1.2203 -3.2363 -1.0479
 6357TIP3   OH243265   2.471   3.477  11.765 -0.3158  0.7293 -0.5675
 6357TIP3    H143266   2.551   3.485  11.818 -0.0026  1.2459 -1.1138
 6357TIP3    H243267   2.461   3.562  11.723 -0.8963  0.5151 -0.8734
 6358TIP3   OH243268   0.786   5.238  12.416 -0.0623  0.1039 -0.0545
 6358TIP3    H143269   0.738   5.210  12.494  0.0750 -0.0236 -0.0152
 6358TIP3    H243270   0.793   5.333  12.425  1.0994 -0.0315  0.7651
 6359TIP3   OH243271   7.349   5.813  10.942  0.3489  0.2505  0.1063
 6359TIP3    H143272   7.351   5.896  10.991 -0.6544  0.4437 -0.1656
 6359TIP3    H243273   7.260   5.806  10.910  0.3703 -1.0358  0.2733
 6360TIP3   OH243274   5.832   3.632  11.721 -0.0923  0.3660  0.1698
 6360TIP3    H143275   5.797   3.634  11.810  1.1895 -0.7447  0.7279
 6360TIP3    H243276   5.865   3.720  11.705  0.6456  0.2898  1.2134
 6361TIP3   OH243277   4.918   2.295  11.765 -0.1573  0.1952 -0.2509
 6361TIP3    H143278   4.891   2.295  11.673 -3.0125  0.9214  0.4634
 6361TIP3    H243279   4.871   2.370  11.802  1.0099 -0.0295  1.7804
 6362TIP3   OH243280   3.648   5.883  12.216 -0.0718 -0.5913  0.5839
 6362TIP3    H143281   3.624   5.851  12.303  0.1125 -1.1388  0.4447
 6362TIP3    H243282   3.681   5.805  12.171  1.0576 -0.0577  0.4575
 6363TIP3   OH243283   7.193   7.180  12.886 -0.6352 -0.4676  0.0057
 6363TIP3    H143284   7.177   7.086  12.883  0.3566 -0.6362 -0.4938
 6363TIP3    H243285   7.193   7.202  12.979 -2.2565 -0.6875  0.0861
 6364TIP3   OH243286   3.567   3.205  10.779  0.1239 -0.0230 -0.5938
 6364TIP3    H143287   3.551   3.228  10.870  0.8500 -0.7156 -0.2727
 6364TIP3    H243288   3.606   3.117  10.783  2.1184  0.7491 -1.4058
 6365TIP3   OH243289   2.310   6.870  11.357 -0.2570 -0.1894  0.1408
 6365TIP3    H143290   2.223   6.859  11.320  0.2649  0.4861 -1.3449
 6365TIP3    H243291   2.361   6.797  11.321  0.1389  0.2033 -0.0951
 6366TIP3   OH243292   1.998   5.528  12.866  0.1946  0.2027  0.0110
 6366TIP3    H143293   2.004   5.559  12.956 -1.3491 -1.7495  0.8705
 6366TIP3    H243294   2.087   5.504  12.842  0.4864 -0.1972  1.4125
 6367TIP3   OH243295   0.047   3.959  12.530  0.2692 -0.2999  0.0880
 6367TIP3    H143296   0.089   3.999  12.454 -0.9749  0.8086 -0.0530
 6367TIP3    H243297   0.110   3.970  12.601  1.5925 -1.6438 -0.8010
 6368TIP3   OH243298   3.813   2.370  12.976 -0.8669  0.5238 -0.2326
 6368TIP3    H143299   3.739   2.369  13.036 -0.5191 -0.4230  0.2030
 6368TIP3    H243300   3.837   2.462  12.969 -2.8053  0.9982 -1.3085
 6369TIP3   OH243301   6.075   1.537  11.463 -0.0842 -0.1359 -0.3708
 6369TIP3    H143302   5.985   1.523  11.493  0.7356 -1.2419  1.8054
 6369TIP3    H243303   6.109   1.604  11.523  0.8917 -0.5889 -0.4121
 6370TIP3   OH243304   3.462   2.749  10.631  0.4365  0.0178  0.0846
 6370TIP3    H143305   3.452   2.734  10.725  2.6943 -0.4367  0.3025
 6370TIP3    H243306   3.392   2.810  10.610  0.8456  1.4315  2.4097
 6371TIP3   OH243307   4.591   5.200  12.097 -0.1653  0.7747 -0.1067
 6371TIP3    H143308   4.639   5.282  12.114  0.2693  0.3872  0.5820
 6371TIP3    H243309   4.625   5.170  12.012 -0.6865  1.5552 -0.6044
 6372TIP3   OH243310   5.277   6.998  10.590  0.2671  0.0637  0.2541
 6372TIP3    H143311   5.191   7.005  10.631  0.1719  2.4861 -0.2145
 6372TIP3    H243312   5.272   6.920  10.536 -0.2677 -2.1249  3.2153
 6373TIP3   OH243313   0.026   4.341  11.187 -0.1976  0.1915  0.3361
 6373TIP3    H143314   0.065   4.407  11.244  1.0247 -0.0399 -0.1987
 6373TIP3    H243315   0.087   4.267  11.190 -2.7051 -2.0224  2.8759
 6374TIP3   OH243316   7.262   5.512  11.177  0.1220 -0.3441 -0.2182
 6374TIP3    H143317   7.218   5.523  11.092  1.7062 -2.0143 -1.3108
 6374TIP3    H243318   7.258   5.419  11.195 -1.2014  0.0954  2.1869
 6375TIP3   OH243319   2.469   1.683  12.048  0.2272 -0.2913 -0.0287
 6375TIP3    H143320   2.417   1.697  12.127  0.5003 -1.6640  0.4353
 6375TIP3    H243321   2.504   1.594  12.058  0.5584 -0.3675 -1.5267
 6376TIP3   OH243322   2.730   4.099  11.771  0.7914  0.2947  0.1791
 6376TIP3    H143323   2.681   4.115  11.690  0.2010  0.7533  0.6196
 6376TIP3    H243324   2.791   4.173  11.777  1.9586 -0.5409 -0.6405
 6377TIP3   OH243325   6.957   3.985  10.950 -0.3943 -0.5786 -0.0386
 6377TIP3    H143326   6.870   4.009  10.917 -1.2780 -1.5150  1.4878
 6377TIP3    H243327   6.974   4.049  11.020  0.2784 -0.2383 -0.5051
 6378TIP3   OH243328   0.788   0.007  11.239 -0.0956 -0.1185 -0.3882
 6378TIP3    H143329   0.841  -0.012  11.316  0.2439  0.9356 -0.3450
 6378TIP3    H243330   0.834  -0.036  11.167  0.6674  0.5351 -0.3031
 6379TIP3   OH243331   0.624   3.130  12.361  0.1975 -0.4119 -0.2249
 6379TIP3    H143332   0.670   3.192  12.304 -0.0693 -0.2114 -0.2274
 6379TIP3    H243333   0.576   3.186  12.422 -2.1550 -0.5207 -1.8564
 6380TIP3   OH243334   6.917   1.926  11.587 -0.3722 -0.0939  0.6133
 6380TIP3    H143335   6.865   1.892  11.659 -1.0757  0.8107  0.5499
 6380TIP3    H243336   6.867   2.001  11.554 -0.2583 -0.6950 -1.0474
 6381TIP3   OH243337   0.543   3.283  10.580 -0.0086  0.3495  0.0360
 6381TIP3    H143338   0.449   3.264  10.586  0.0381 -0.4095 -1.2280
 6381TIP3    H243339   0.548   3.377  10.566 -0.5441  0.4785  0.6416
 6382TIP3   OH243340   3.682   6.532  10.736  0.2679  0.2987  0.6062
 6382TIP3    H143341   3.676   6.610  10.792  2.0642  0.9277  0.0178
 6382TIP3    H243342   3.759   6.549  10.681 -1.2861 -0.3408 -1.9626
 6383TIP3   OH243343   4.800   5.982  11.653  0.6791 -0.0162  0.2529
 6383TIP3    H143344   4.886   5.941  11.648  1.2246  0.7564  2.3950
 6383TIP3    H243345   4.805   6.055  11.591  1.2844 -0.4119 -0.1850
 6384TIP3   OH243346   4.032   2.883  12.192 -0.6505 -0.7396 -0.0440
 6384TIP3    H143347   4.075   2.860  12.273  1.3241  0.3793 -0.7110
 6384TIP3    H243348   4.075   2.830  12.125 -1.8330 -1.2087 -0.4549
 6385TIP3   OH243349   3.000   1.354  11.676 -0.0010 -0.2214  0.0268
 6385TIP3    H143350   2.960   1.432  11.637  1.1126  0.6214  0.5204
 6385TIP3    H243351   3.049   1.314  11.604 -0.7754 -0.6120 -0.2886
 6386TIP3   OH243352   7.502   2.036  10.869 -0.1760  0.1291  0.0820
 6386TIP3    H143353   7.499   2.091  10.948  0.9995 -0.6318  0.6981
 6386TIP3    H243354   7.521   1.949  10.903  2.8152  0.1982 -1.1850
 6387TIP3   OH243355   0.991   2.074  11.502 -0.0742  0.0487  0.1833
 6387TIP3    H143356   0.939   2.088  11.582 -0.3695 -2.0469  0.4063
 6387TIP3    H243357   0.964   2.145  11.444 -1.6471  0.2231  1.0589
 6388TIP3   OH243358   2.165   4.314  11.270 -0.1253  0.7497 -0.1358
 6388TIP3    H143359   2.082   4.339  11.311 -0.5966 -0.2787 -0.4187
 6388TIP3    H243360   2.226   4.383  11.296 -0.9035  1.1805  0.6304
 6389TIP3   OH243361   7.102   5.897  12.666  0.1960  0.5484  0.0457
 6389TIP3    H143362   7.047   5.878  12.589  0.1359  0.8184  0.0219
 6389TIP3    H243363   7.192   5.892  12.633  0.1548  1.4695 -0.2306
 6390TIP3   OH243364   4.329   4.450  11.667  0.0522 -0.0014 -0.1014
 6390TIP3    H143365   4.400   4.513  11.651  0.7105 -1.0549 -1.4791
 6390TIP3    H243366   4.250   4.504  11.673  0.8105  1.1028  0.4636
 6391TIP3   OH243367   6.112   1.230  13.488 -0.1897  0.7200 -0.2733
 6391TIP3    H143368   6.197   1.203  13.523 -0.1042  0.4858 -0.6645
 6391TIP3    H243369   6.067   1.268  13.564 -0.0346  0.1522  0.1181
 6392TIP3   OH243370   2.895   5.858  12.095  0.1786 -0.0026 -0.0306
 6392TIP3    H143371   2.989   5.877  12.104  0.0826  0.5315 -0.1229
 6392TIP3    H243372   2.856   5.897  12.173  0.3009 -2.2780  1.2833
 6393TIP3   OH243373   7.132   4.230  10.483  0.0972 -0.6121  0.3798
 6393TIP3    H143374   7.118   4.266  10.395 -0.3906  0.3612  0.8388
 6393TIP3    H243375   7.097   4.141  10.479 -1.5427  0.0112  0.0544
 6394TIP3   OH243376   0.044   0.598  10.566 -0.9477  0.5182  0.4090
 6394TIP3    H143377  -0.047   0.570  10.553 -0.3723 -0.2623 -2.5987
 6394TIP3    H243378   0.052   0.678  10.515  0.4428 -0.3056 -0.7170
 6395TIP3   OH243379   5.677   5.827  10.925 -0.1010 -0.2220  0.3881
 6395TIP3    H143380   5.677   5.866  11.012  1.8505  1.1401 -0.1643
 6395TIP3    H243381   5.656   5.900  10.866  1.1004 -0.5370 -0.4647
 6396TIP3   OH243382   3.218   1.599  18.335  0.0331 -0.3859 -0.0648
 6396TIP3    H143383   3.142   1.642  18.296 -0.0431 -0.8190 -0.4034
 6396TIP3    H243384   3.257   1.550  18.263  1.5449  1.0612 -0.2730
 6397TIP3   OH243385   4.863   4.130  10.814  0.5844  0.0580  0.5652
 6397TIP3    H143386   4.864   4.179  10.732  0.6830 -1.1212 -0.1663
 6397TIP3    H243387   4.955   4.127  10.841  0.9553 -1.7578 -0.6898
 6398TIP3   OH243388   0.513   5.974  12.355 -0.6477 -0.0574 -0.4671
 6398TIP3    H143389   0.441   5.914  12.334 -0.1641 -0.4700 -0.9811
 6398TIP3    H243390   0.503   6.046  12.293  0.0994 -0.7162 -1.3839
 6399TIP3   OH243391   7.146   0.913  10.863 -0.1951  0.7929  0.7706
 6399TIP3    H143392   7.058   0.897  10.898 -0.2160  0.7062  0.6771
 6399TIP3    H243393   7.165   1.004  10.888 -0.3307  0.8286  0.7476
 6400TIP3   OH243394   6.176   0.974  12.538  0.3913  0.0166 -0.8177
 6400TIP3    H143395   6.102   0.915  12.553  0.7512 -0.1394  0.5147
 6400TIP3    H243396   6.162   1.008  12.450 -0.8340 -0.6177 -0.8970
 6401TIP3   OH243397   2.780   1.176  12.417  0.1897 -0.0260  0.7655
 6401TIP3    H143398   2.794   1.082  12.431  2.9647  0.3891  1.3095
 6401TIP3    H243399   2.848   1.219  12.469  0.5145  2.2128 -1.3175
 6402TIP3   OH243400   6.348   1.052  10.891 -0.0377  1.1042 -0.2218
 6402TIP3    H143401   6.347   1.138  10.934  1.3296  0.8482  0.3957
 6402TIP3    H243402   6.428   1.010  10.924 -1.2378 -0.8630  0.3855
 6403TIP3   OH243403   4.983   5.057  12.434 -0.3181  0.0898  0.0989
 6403TIP3    H143404   4.936   5.096  12.361 -0.3996  1.0293  0.6393
 6403TIP3    H243405   5.009   4.971  12.403 -0.4779  0.4254 -0.9843
 6404TIP3   OH243406   6.636   6.284  10.603 -0.5053 -0.2891  0.0739
 6404TIP3    H143407   6.563   6.274  10.543 -0.4127  1.8972 -0.4691
 6404TIP3    H243408   6.641   6.378  10.620 -0.1318 -0.7481  3.0240
 6405TIP3   OH243409   1.412   3.989  12.679 -0.4738  0.4856 -0.3290
 6405TIP3    H143410   1.453   3.927  12.618 -1.4052 -1.2820  0.7606
 6405TIP3    H243411   1.483   4.013  12.739 -0.7347 -1.9518  1.0803
 6406TIP3   OH243412   1.700   4.076  12.823 -0.4508  0.0194  0.1330
 6406TIP3    H143413   1.695   3.988  12.861 -1.6037  0.7083  1.6429
 6406TIP3    H243414   1.739   4.130  12.891  0.3013  0.6945 -0.8037
 6407TIP3   OH243415   5.534   3.100  12.219  0.1482  0.2865 -0.6788
 6407TIP3    H143416   5.577   3.108  12.304 -1.4050 -0.0217  0.1780
 6407TIP3    H243417   5.550   3.184  12.176 -0.1569  0.9498  0.4643
 6408TIP3   OH243418   3.373   2.838  12.170 -0.0888 -0.2417  0.0215
 6408TIP3    H143419   3.352   2.747  12.193 -0.5399 -0.3816 -0.8853
 6408TIP3    H243420   3.417   2.831  12.085 -1.2819  0.4670 -0.6845
 6409TIP3   OH243421   6.222   4.375  10.446  0.0105  0.3033  0.3308
 6409TIP3    H143422   6.288   4.311  10.419 -1.2702 -1.4332  1.1272
 6409TIP3    H243423   6.182   4.337  10.524 -2.2949  1.0450 -0.4099
 6410TIP3   OH243424   7.001   1.083  12.586 -0.2456 -0.1587  0.2069
 6410TIP3    H143425   7.034   1.045  12.505 -1.8975 -0.0668 -0.5472
 6410TIP3    H243426   7.079   1.110  12.633  0.7435  0.4435 -1.6827
 6411TIP3   OH243427   0.637   6.957  10.404  0.4454 -0.2721  0.1524
 6411TIP3    H143428   0.713   6.977  10.350  0.4190 -1.4846 -0.3652
 6411TIP3    H243429   0.589   7.040  10.411 -0.4642 -0.4118 -3.1018
 6412TIP3   OH243430   7.189   1.525  12.723  0.3545 -0.5475  0.0004
 6412TIP3    H143431   7.115   1.485  12.771  0.4385 -1.6282 -0.7394
 6412TIP3    H243432   7.256   1.539  12.790 -0.8574  1.4401  0.9009
 6413TIP3   OH243433   5.164   2.293  12.812 -0.2719  0.4306 -0.3114
 6413TIP3    H143434   5.116   2.294  12.729 -1.1039  0.1125  0.1599
 6413TIP3    H243435   5.255   2.277  12.786 -0.6483 -0.5383 -1.1084
 6414TIP3   OH243436   5.227   1.570  12.688  0.2565  0.6217  0.5919
 6414TIP3    H143437   5.249   1.489  12.643 -0.8216  0.2682  0.6719
 6414TIP3    H243438   5.280   1.570  12.768  1.7994  1.0055 -0.3929
 6415TIP3   OH243439   7.271   5.052  12.148 -0.4167  0.4160  0.0938
 6415TIP3    H143440   7.367   5.061  12.143 -0.6348  2.6825 -2.6888
 6415TIP3    H243441   7.249   5.084  12.235  1.2770  1.4038  0.2101
 6416TIP3   OH243442   6.187   0.934  11.149 -0.2740 -0.0850 -0.1759
 6416TIP3    H143443   6.250   0.961  11.216 -0.1735 -0.3276 -0.1732
 6416TIP3    H243444   6.240   0.893  11.081 -0.2996  0.8178 -0.7471
 6417TIP3   OH243445   0.348   6.311  10.723 -0.2403 -0.0197  0.6511
 6417TIP3    H143446   0.288   6.256  10.672 -1.7292  1.1242  1.0902
 6417TIP3    H243447   0.389   6.368  10.658  0.7815 -1.1466  0.2834
 6418TIP3   OH243448   1.931   5.893  13.410 -0.3991  0.9863 -0.2185
 6418TIP3    H143449   2.002   5.944  13.450  0.5935 -0.5935  0.1286
 6418TIP3    H243450   1.851   5.935  13.442  0.3585  2.5436 -0.2640
 6419TIP3   OH243451   2.201   6.384  11.071  0.1167  0.4052  0.5655
 6419TIP3    H143452   2.238   6.367  11.158  0.3568  0.1727  0.4194
 6419TIP3    H243453   2.147   6.462  11.083 -2.0966 -1.1916  1.5786
 6420TIP3   OH243454   5.650   0.426  11.472 -0.5740  0.3229 -0.1862
 6420TIP3    H143455   5.574   0.479  11.494 -0.9348 -0.1598 -0.2603
 6420TIP3    H243456   5.658   0.364  11.544  1.8478  2.5533  1.6749
 6421TIP3   OH243457   4.675   2.197  12.127  0.4138 -0.0862  0.2814
 6421TIP3    H143458   4.656   2.131  12.194  0.5879 -1.2768 -0.8129
 6421TIP3    H243459   4.760   2.233  12.154 -0.7336  1.3803  2.1544
 6422TIP3   OH243460   4.014   4.382  11.896 -0.3060 -0.6127  0.0521
 6422TIP3    H143461   4.025   4.423  11.810  1.5075  0.0891  0.5837
 6422TIP3    H243462   3.981   4.294  11.877 -1.6536  0.1362 -1.2482
 6423TIP3   OH243463   1.181   0.329  12.059 -0.1536 -0.3023  0.7276
 6423TIP3    H143464   1.181   0.345  12.153 -0.8722 -0.2732  0.7256
 6423TIP3    H243465   1.165   0.415  12.020  0.2296 -0.2981  0.5686
 6424TIP3   OH243466   7.621   6.545  11.509 -0.1657  0.3798  0.2454
 6424TIP3    H143467   7.604   6.477  11.575  0.6596  1.5075  1.6993
 6424TIP3    H243468   7.594   6.626  11.552  0.6567  1.1778 -0.7134
 6425TIP3   OH243469   2.690   6.395  12.799  0.1867  0.1312  0.0908
 6425TIP3    H143470   2.598   6.389  12.774 -0.2904  0.8229  1.5730
 6425TIP3    H243471   2.737   6.348  12.730 -1.2011  0.4082 -1.0821
 6426TIP3   OH243472   1.081   5.613  12.706 -0.1652  0.1560  0.1901
 6426TIP3    H143473   1.081   5.633  12.799  1.8854 -0.5717  0.3803
 6426TIP3    H243474   1.082   5.699  12.663 -0.4350  0.4888  0.8339
 6427TIP3   OH243475   3.934   5.060  12.387  0.0530  0.0083  0.1692
 6427TIP3    H143476   4.005   5.051  12.450 -0.2860 -1.4129  0.3772
 6427TIP3    H243477   3.959   5.003  12.314  1.0561  2.5485 -1.6294
 6428TIP3   OH243478   5.339   5.761  12.367  0.2944 -0.2650  0.2933
 6428TIP3    H143479   5.396   5.715  12.305  1.4112  4.0145 -2.3126
 6428TIP3    H243480   5.259   5.780  12.317  0.4124  1.6152  0.7269
 6429TIP3   OH243481   2.611   5.938  12.127  0.5730 -0.2070  0.4924
 6429TIP3    H143482   2.628   6.030  12.145  2.9515 -0.4646 -0.1276
 6429TIP3    H243483   2.677   5.913  12.062 -1.5559 -1.7544 -1.2192
 6430TIP3   OH243484   7.098   0.166  11.396 -0.2420  0.5420  0.1796
 6430TIP3    H143485   7.113   0.095  11.333 -2.2471  0.4303 -0.2226
 6430TIP3    H243486   7.070   0.122  11.476 -0.1356  0.8107  0.3642
 6431TIP3   OH243487   6.654   3.051  11.627  0.3509 -0.2090 -0.3997
 6431TIP3    H143488   6.560   3.052  11.612  0.2469  0.4699  0.2250
 6431TIP3    H243489   6.693   3.061  11.540 -0.1845  0.8555 -0.5389
 6432TIP3   OH243490   7.066   6.527  12.759 -0.3459 -0.7975  0.4575
 6432TIP3    H143491   7.075   6.469  12.684 -0.2141 -0.4265  0.1838
 6432TIP3    H243492   7.154   6.528  12.799 -0.4917 -1.2376  0.8018
 6433TIP3   OH243493   0.524   5.446  12.816  0.2407 -0.8498  0.2593
 6433TIP3    H143494   0.532   5.493  12.733  0.2321 -1.1375  0.0961
 6433TIP3    H243495   0.438   5.404  12.812  0.4861 -1.3434  0.1676
 6434TIP3   OH243496   5.221   5.856  12.776  0.2125  0.1632 -0.0965
 6434TIP3    H143497   5.296   5.886  12.726  0.3444  0.1970  0.1211
 6434TIP3    H243498   5.148   5.858  12.713  0.3675  0.2424 -0.2755
 6435TIP3   OH243499   0.257   4.231  12.988  0.2295 -0.1006 -0.7788
 6435TIP3    H143500   0.325   4.287  12.952 -0.1961  0.3468 -0.9009
 6435TIP3    H243501   0.181   4.245  12.932 -0.1880 -0.0276 -0.2111
 6436TIP3   OH243502   1.208   2.615  11.683  0.2365 -0.7131 -0.2589
 6436TIP3    H143503   1.172   2.561  11.613 -2.2052  2.1981 -1.5208
 6436TIP3    H243504   1.178   2.573  11.764 -0.1451 -2.1139 -1.1036
 6437TIP3   OH243505   3.518   3.296  11.038  0.4959 -0.0766  0.0141
 6437TIP3    H143506   3.428   3.265  11.047 -0.2304  1.9723  0.3156
 6437TIP3    H243507   3.544   3.321  11.127  1.0351  0.1996 -0.2160
 6438TIP3   OH243508   3.572   2.146  10.972  0.0709  0.3506 -0.0122
 6438TIP3    H143509   3.582   2.201  11.049 -2.1659 -0.1088  0.6857
 6438TIP3    H243510   3.480   2.155  10.947 -0.3023 -2.6202 -0.1518
 6439TIP3   OH243511   7.184   3.291  11.170 -1.1296  0.1855  0.4151
 6439TIP3    H143512   7.249   3.360  11.187  0.4319 -1.0415 -0.3350
 6439TIP3    H243513   7.234   3.220  11.130 -3.3224  0.1612 -2.6634
 6440TIP3   OH243514   1.648   7.381  11.846 -0.5333 -0.6516 -0.5315
 6440TIP3    H143515   1.708   7.307  11.845  1.0221  0.4751  1.4656
 6440TIP3    H243516   1.689   7.446  11.788 -0.4290 -0.3230 -0.0937
 6441TIP3   OH243517   4.527   4.278  12.215 -0.0334 -0.9438 -0.1638
 6441TIP3    H143518   4.458   4.214  12.197 -0.8292 -0.8014  2.1581
 6441TIP3    H243519   4.489   4.337  12.280  1.4933  0.5384 -0.5536
 6442TIP3   OH243520   0.151   6.259  11.618 -0.0097  0.2281  0.1997
 6442TIP3    H143521   0.158   6.349  11.650  0.8148  0.7159 -1.2563
 6442TIP3    H243522   0.238   6.222  11.630  0.0633  0.1227 -0.5635
 6443TIP3   OH243523   1.408   6.240  10.992  0.1219  0.5593  0.1379
 6443TIP3    H143524   1.415   6.332  10.965  0.1747  0.6960  0.6152
 6443TIP3    H243525   1.498   6.208  10.994  0.0087 -0.0150 -1.7487
 6444TIP3   OH243526   5.628   7.710  10.489 -0.2649 -0.4927  0.0882
 6444TIP3    H143527   5.683   7.671  10.556  0.8290  2.2059  0.9273
 6444TIP3    H243528   5.566   7.765  10.537  0.6067  1.5823 -1.0316
 6445TIP3   OH243529   5.624   2.499  12.580 -0.0648  0.4908 -0.4100
 6445TIP3    H143530   5.687   2.443  12.626  0.7219  1.7139  0.0345
 6445TIP3    H243531   5.622   2.580  12.631 -1.5468  0.7087 -0.7708
 6446TIP3   OH243532   2.658   5.484  10.904  0.1625 -0.4796 -0.3882
 6446TIP3    H143533   2.635   5.444  10.988  1.1468 -1.3848 -0.5318
 6446TIP3    H243534   2.680   5.575  10.926  1.7031 -1.0375  0.5725
 6447TIP3   OH243535   4.579   5.832  11.605  0.0174 -0.4978  0.2664
 6447TIP3    H143536   4.633   5.758  11.580 -1.1571 -0.8658 -1.3336
 6447TIP3    H243537   4.641   5.898  11.637  1.3225 -1.1701 -0.8225
 6448TIP3   OH243538   5.645   6.208  11.131  0.7331  0.4474 -0.3602
 6448TIP3    H143539   5.686   6.185  11.048  0.3302  2.8347 -1.3025
 6448TIP3    H243540   5.680   6.145  11.193  2.1816 -0.5050 -2.0386
 6449TIP3   OH243541   1.167   2.212  11.046 -0.0140  0.3701  0.2883
 6449TIP3    H143542   1.126   2.199  10.960 -0.0129 -1.0827  0.4938
 6449TIP3    H243543   1.113   2.161  11.107  0.9310  0.0657  0.8898
 6450TIP3   OH243544   7.621   1.199  11.545 -0.2128  0.4189  0.0692
 6450TIP3    H143545   7.538   1.193  11.499 -0.1881  0.6107 -0.0030
 6450TIP3    H243546   7.636   1.293  11.555 -0.8189  0.3978  1.5488
 6451TIP3   OH243547   5.130   0.972  12.641  0.5254  0.0883 -0.0585
 6451TIP3    H143548   5.205   0.995  12.695 -0.1147  0.1658  0.8249
 6451TIP3    H243549   5.122   0.877  12.650  0.8668  0.0031 -0.6261
 6452TIP3   OH243550   6.341   3.574  11.190  0.0940 -0.2747  0.0147
 6452TIP3    H143551   6.315   3.482  11.191 -3.4064  0.5360 -1.6589
 6452TIP3    H243552   6.406   3.581  11.120  1.0526 -1.5320  0.7339
 6453TIP3   OH243553   5.980   7.172  11.607 -0.3453  0.2099  0.2791
 6453TIP3    H143554   6.015   7.111  11.672 -0.5983 -2.2913 -1.7373
 6453TIP3    H243555   6.040   7.163  11.532 -1.3087  1.2545 -0.6564
 6454TIP3   OH243556   6.425   3.753  11.380 -0.1817 -0.2995 -0.2048
 6454TIP3    H143557   6.378   3.713  11.306 -0.3310 -0.4125 -0.0475
 6454TIP3    H243558   6.366   3.821  11.412 -1.3688 -2.0999  1.6117
 6455TIP3   OH243559   2.960   2.734  12.647  0.0917 -0.4019  0.1046
 6455TIP3    H143560   3.027   2.702  12.707 -0.0078  2.4009  1.8758
 6455TIP3    H243561   2.886   2.675  12.660  1.5851 -2.6095 -0.7620
 6456TIP3   OH243562   1.657   0.250  11.287 -0.1161  0.0261 -0.0934
 6456TIP3    H143563   1.709   0.262  11.366 -1.1251 -0.9769  0.7622
 6456TIP3    H243564   1.578   0.302  11.301 -0.6380 -0.7426 -0.0905
 6457TIP3   OH243565   2.378   3.421  12.397  0.4492  0.0387  0.0040
 6457TIP3    H143566   2.449   3.393  12.340  1.0769  0.8811  0.3529
 6457TIP3    H243567   2.300   3.418  12.342  0.7126 -1.0694 -0.3356
 6458TIP3   OH243568   3.407   0.463  12.279  0.1810 -0.1379  0.2120
 6458TIP3    H143569   3.391   0.468  12.373  2.7898  1.4196  0.6560
 6458TIP3    H243570   3.365   0.541  12.243  1.3940  0.6821  0.5089
 6459TIP3   OH243571   2.629   6.002  11.040 -0.4277 -0.4385 -0.2851
 6459TIP3    H143572   2.628   6.070  10.973  1.8018 -0.9964 -0.9738
 6459TIP3    H243573   2.572   6.035  11.109 -2.4122  0.3886 -2.1953
 6460TIP3   OH243574   4.552   4.362  11.133  0.0886 -0.0279 -0.5456
 6460TIP3    H143575   4.601   4.354  11.051  1.7511 -0.1180  0.4191
 6460TIP3    H243576   4.603   4.311  11.196 -1.5351 -0.5346  0.4005
 6461TIP3   OH243577   1.748   2.973  12.518  0.0876 -0.1977 -0.2982
 6461TIP3    H143578   1.747   3.054  12.467 -0.5092  0.9750  1.4522
 6461TIP3    H243579   1.737   2.904  12.454 -1.7217  1.2590 -1.6792
 6462TIP3   OH243580   2.046   0.124  10.897  0.1936  0.2997 -0.5286
 6462TIP3    H143581   2.055   0.198  10.837  0.1406  0.5322 -0.2503
 6462TIP3    H243582   1.980   0.152  10.960 -2.4918 -1.2961 -2.4317
 6463TIP3   OH243583   7.468   4.042  11.521 -0.4282  0.0253 -0.4566
 6463TIP3    H143584   7.494   3.966  11.469 -1.2111 -0.0426 -0.7671
 6463TIP3    H243585   7.374   4.052  11.503 -1.1493 -1.0058  2.2318
 6464TIP3   OH243586   4.830   1.998  10.697 -0.0888  0.0840 -0.1979
 6464TIP3    H143587   4.802   2.074  10.646  3.1312  2.0292  0.6311
 6464TIP3    H243588   4.883   2.035  10.767  0.5664 -2.8913  1.0132
 6465TIP3   OH243589   0.626   5.259  10.951 -0.1772  0.0062 -0.4143
 6465TIP3    H143590   0.661   5.255  10.862  0.9937 -0.3737  0.0437
 6465TIP3    H243591   0.601   5.350  10.963  1.4949  0.5051 -0.4735
 6466TIP3   OH243592   0.188   1.427  13.213 -0.4340 -0.6123  0.6250
 6466TIP3    H143593   0.215   1.399  13.300 -1.2465 -2.4768  0.3111
 6466TIP3    H243594   0.247   1.381  13.153  0.3178  0.8855  0.1651
 6467TIP3   OH243595   3.229   0.928  12.443  0.5092  0.0346  0.6703
 6467TIP3    H143596   3.292   0.860  12.464  0.9047  0.5377  1.1550
 6467TIP3    H243597   3.223   0.980  12.523  2.1275  2.0882 -0.4638
 6468TIP3   OH243598   2.638   0.374  10.719 -0.0323 -0.1510  0.1260
 6468TIP3    H143599   2.702   0.422  10.665 -0.6999 -0.2938 -0.8239
 6468TIP3    H243600   2.578   0.442  10.750 -1.2713 -0.3673 -1.6288
 6469TIP3   OH243601   3.671   1.125  11.512 -0.0514  0.1143 -0.1437
 6469TIP3    H143602   3.596   1.085  11.556 -0.3167  0.4254 -0.3090
 6469TIP3    H243603   3.740   1.128  11.579 -0.8284  1.7012  0.6342
 6470TIP3   OH243604   2.651   0.663  12.416  0.4048 -0.0676  0.1563
 6470TIP3    H143605   2.724   0.681  12.357  0.2780  0.8078  0.2529
 6470TIP3    H243606   2.613   0.582  12.383 -0.8975  1.3831 -2.2502
 6471TIP3   OH243607   4.332   1.221  11.839  0.3292  0.4817  0.0289
 6471TIP3    H143608   4.328   1.317  11.831  2.6358  0.5055 -2.4121
 6471TIP3    H243609   4.295   1.188  11.758  0.2314 -0.7033  0.5303
 6472TIP3   OH243610   6.985   1.255  11.522 -0.4798  0.2906 -0.9830
 6472TIP3    H143611   7.005   1.213  11.606  1.2699 -2.6345 -2.6834
 6472TIP3    H243612   6.895   1.231  11.504 -0.7271  0.5669 -0.1678
 6473TIP3   OH243613   1.593   6.655  12.964 -0.4078  0.2413  0.1997
 6473TIP3    H143614   1.571   6.741  12.999 -1.5471 -0.1066  0.3815
 6473TIP3    H243615   1.590   6.597  13.039  1.0134  0.1292  0.1999
 6474TIP3   OH243616   5.692   6.833  11.847  0.1544 -0.5423 -0.4878
 6474TIP3    H143617   5.605   6.825  11.809  0.0414  0.2307 -0.3985
 6474TIP3    H243618   5.690   6.777  11.925  0.0012 -1.1656 -0.9396
 6475TIP3   OH243619   4.521   5.898  11.005 -0.3901 -0.3317  0.0642
 6475TIP3    H143620   4.495   5.990  10.996 -0.1567  0.0272  2.5138
 6475TIP3    H243621   4.440   5.853  11.030 -0.1819 -0.5285  0.3825
 6476TIP3   OH243622   3.588   3.613  12.124  0.8294  0.2025  0.6768
 6476TIP3    H143623   3.527   3.547  12.156  1.6650 -1.8337 -1.6134
 6476TIP3    H243624   3.674   3.572  12.129  1.2273  0.4883 -2.0835
 6477TIP3   OH243625   4.447   5.679  10.580 -0.8698  0.0979 -0.2160
 6477TIP3    H143626   4.489   5.765  10.578 -2.1825  0.9072  2.2288
 6477TIP3    H243627   4.363   5.691  10.535 -1.0687  0.1444  0.1548
 6478TIP3   OH243628   7.340   2.447  10.990  0.4655  0.5719  0.2126
 6478TIP3    H143629   7.355   2.419  11.080 -0.0919  1.7882  0.7112
 6478TIP3    H243630   7.384   2.532  10.984 -0.4516  1.0272 -0.3238
 6479TIP3   OH243631   1.484   1.086  12.890  0.6460 -0.3696  0.2339
 6479TIP3    H143632   1.503   1.075  12.984  0.5367  2.8661  0.7651
 6479TIP3    H243633   1.570   1.098  12.850  0.5652  0.5082  0.3138
 6480TIP3   OH243634   3.395   4.891  10.731  0.5275 -0.0311  0.4946
 6480TIP3    H143635   3.422   4.884  10.822  2.1658 -1.6049 -0.0623
 6480TIP3    H243636   3.452   4.830  10.684 -2.9825 -2.3975 -1.0602
 6481TIP3   OH243637   1.643   2.227  12.321 -0.8288 -0.3241  0.4178
 6481TIP3    H143638   1.695   2.281  12.262 -1.0819  1.3618  1.6912
 6481TIP3    H243639   1.569   2.198  12.268  0.5473 -1.5149 -0.9783
 6482TIP3   OH243640   2.639   2.424  11.157 -0.9891 -0.3573 -0.0410
 6482TIP3    H143641   2.649   2.329  11.167  1.2591 -0.1605 -0.0603
 6482TIP3    H243642   2.728   2.457  11.152 -1.7492  1.7246 -0.5820
 6483TIP3   OH243643   3.578   3.724  11.510 -0.2412  0.2592  0.0995
 6483TIP3    H143644   3.492   3.742  11.472 -0.2198  0.9511  0.3531
 6483TIP3    H243645   3.566   3.642  11.558 -0.4260 -0.3020 -0.8862
 6484TIP3   OH243646   4.741   3.383  11.591  0.3602  0.2231  0.1248
 6484TIP3    H143647   4.806   3.453  11.593 -0.4083  1.0391 -1.5064
 6484TIP3    H243648   4.695   3.391  11.675 -0.3963  2.3912 -0.4339
 6485TIP3   OH243649   0.432   7.051  12.169  0.0607  0.2344  0.3191
 6485TIP3    H143650   0.433   7.079  12.260  0.0696 -1.8290  0.9860
 6485TIP3    H243651   0.444   6.956  12.172 -2.3659 -0.2437 -1.7037
 6486TIP3   OH243652   1.367   4.912  11.344 -0.3859  0.1749  0.3952
 6486TIP3    H143653   1.427   4.949  11.410 -0.8173 -1.0018  1.4950
 6486TIP3    H243654   1.392   4.820  11.338 -0.8734  0.0900 -0.5281
 6487TIP3   OH243655   3.835   2.725  11.800  0.3366  0.3909 -0.2057
 6487TIP3    H143656   3.909   2.725  11.739  0.4539 -0.0511 -0.0667
 6487TIP3    H243657   3.850   2.649  11.856  0.1518  0.7132  0.2863
 6488TIP3   OH243658   7.077   5.930  11.558  0.2915  0.1130  0.0185
 6488TIP3    H143659   7.132   5.905  11.484  0.0125  0.3525 -0.2726
 6488TIP3    H243660   7.086   5.858  11.621 -0.7560 -0.8841 -0.9401
 6489TIP3   OH243661   2.333   6.834  11.642 -0.5161  0.2304  0.0404
 6489TIP3    H143662   2.388   6.756  11.629  0.5815  1.2122 -1.4484
 6489TIP3    H243663   2.314   6.866  11.554 -1.5507  1.2457  0.6079
 6490TIP3   OH243664   5.314   3.476  12.767  0.0987  0.1104 -0.1138
 6490TIP3    H143665   5.241   3.419  12.792  0.2155 -0.3082 -0.6993
 6490TIP3    H243666   5.281   3.565  12.777  0.2001 -0.0290  1.6860
 6491TIP3   OH243667   5.402   5.474  12.162  0.0166 -0.3141  0.0385
 6491TIP3    H143668   5.360   5.397  12.123 -1.9824 -0.2142  1.8046
 6491TIP3    H243669   5.372   5.548  12.109  0.1137 -0.5309 -0.3163
 6492TIP3   OH243670   0.348   1.892  11.567 -0.3480 -0.2559 -0.5444
 6492TIP3    H143671   0.308   1.953  11.629 -0.8739 -0.8987 -0.2405
 6492TIP3    H243672   0.285   1.885  11.496 -0.6434 -1.0103 -0.2232
 6493TIP3   OH243673   4.633   0.607  12.029 -0.0104 -0.7925  0.4461
 6493TIP3    H143674   4.623   0.529  11.975 -0.0528 -0.1950 -0.4157
 6493TIP3    H243675   4.635   0.680  11.968 -0.1075 -0.0930  1.2480
 6494TIP3   OH243676   4.667   3.615  12.316 -0.1253  0.2064 -0.9697
 6494TIP3    H143677   4.671   3.519  12.317  0.4451  0.2122  1.4856
 6494TIP3    H243678   4.735   3.641  12.253  0.9229 -0.9727 -0.3622
 6495TIP3   OH243679   5.324   1.802  11.447 -0.1158 -0.2153 -0.2678
 6495TIP3    H143680   5.397   1.861  11.430 -0.3073  0.0138 -0.3078
 6495TIP3    H243681   5.349   1.754  11.526  0.4443 -0.7327 -0.7467
 6496TIP3   OH243682   3.837   1.360  11.761 -0.4553 -0.3682  0.2711
 6496TIP3    H143683   3.774   1.375  11.690 -1.3349 -2.7310  0.4640
 6496TIP3    H243684   3.898   1.296  11.725  0.2259 -0.1375  1.0131
 6497TIP3   OH243685   4.513   2.045  11.068 -0.0365  0.3337  0.2265
 6497TIP3    H143686   4.599   2.002  11.064 -0.0312  0.4491 -1.2832
 6497TIP3    H243687   4.452   1.974  11.090  0.2977  0.0359  0.2001
 6498TIP3   OH243688   7.344   6.314  12.720  0.0148  0.2192 -0.5497
 6498TIP3    H143689   7.268   6.276  12.764  0.7239  1.1526  1.6183
 6498TIP3    H243690   7.410   6.321  12.788  0.7496  3.0072 -1.4142
 6499TIP3   OH243691   0.608   7.099  10.960 -0.2927 -0.7076  0.2541
 6499TIP3    H143692   0.703   7.086  10.966  0.0904  1.7215  0.1521
 6499TIP3    H243693   0.579   7.035  10.894  1.3508 -1.0536 -0.1713
 6500TIP3   OH243694   2.678   4.910  11.920  0.4024  0.0577 -0.5261
 6500TIP3    H143695   2.760   4.928  11.965 -0.1367 -0.1058  0.5505
 6500TIP3    H243696   2.691   4.943  11.831  1.4002  0.6062 -0.1828
 6501TIP3   OH243697   7.484   4.995  10.885 -0.0060  0.0710 -0.4039
 6501TIP3    H143698   7.565   5.031  10.849  0.1746 -0.2214 -0.2869
 6501TIP3    H243699   7.462   5.053  10.958  0.8826 -0.6886  0.4948
 6502TIP3   OH243700   1.415   1.615  11.755  0.2429  0.2821 -0.1603
 6502TIP3    H143701   1.381   1.618  11.845 -0.8610 -0.3568 -0.5491
 6502TIP3    H243702   1.373   1.539  11.716 -0.1649  1.2232 -1.5905
 6503TIP3   OH243703   3.733   2.648  11.019 -0.1202  1.1038 -0.2159
 6503TIP3    H143704   3.666   2.580  11.031  1.6549 -0.8006 -0.5335
 6503TIP3    H243705   3.734   2.664  10.925  1.1396 -0.2957 -0.4708
 6504TIP3   OH243706   2.196   3.612  11.585  0.1625 -0.3450  0.5760
 6504TIP3    H143707   2.179   3.627  11.492  1.4492  0.6864  0.4673
 6504TIP3    H243708   2.208   3.517  11.592  1.5353 -0.3146 -0.6204
 6505TIP3   OH243709   2.566   5.492  12.863  0.4906  0.3412  0.0950
 6505TIP3    H143710   2.517   5.411  12.846  1.0080  0.1838 -0.6872
 6505TIP3    H243711   2.600   5.482  12.951 -2.7232  1.3997  1.6129
 6506TIP3   OH243712   6.694   0.556  12.113 -0.0273 -0.1778 -0.5172
 6506TIP3    H143713   6.637   0.633  12.104  0.9759  1.1939  2.9620
 6506TIP3    H243714   6.635   0.486  12.141 -0.5198  0.2389 -0.4859
 6507TIP3   OH243715   3.134   5.634  12.836 -0.6965 -0.2702  0.5128
 6507TIP3    H143716   3.172   5.549  12.859 -0.7127 -0.8734 -1.5060
 6507TIP3    H243717   3.064   5.648  12.900  0.6897 -0.7289  2.2049
 6508TIP3   OH243718   4.335   5.933  10.751  0.8051 -0.3309 -0.0651
 6508TIP3    H143719   4.289   5.960  10.830  0.8250 -1.8025  0.4750
 6508TIP3    H243720   4.428   5.940  10.774  0.8267  0.0935 -0.2675
 6509TIP3   OH243721   0.832   4.338  12.461  0.3523  0.1639  0.1874
 6509TIP3    H143722   0.884   4.408  12.500  0.3166  0.8570 -0.9349
 6509TIP3    H243723   0.880   4.314  12.381  0.4644 -1.2480  0.6486
 6510TIP3   OH243724   0.287   2.824  11.156  0.1700 -0.1677 -0.3265
 6510TIP3    H143725   0.302   2.875  11.236  1.0443 -0.2910 -0.4068
 6510TIP3    H243726   0.372   2.784  11.136 -0.8480 -3.1290  0.7296
 6511TIP3   OH243727   7.506   4.750  12.229  0.4947  0.0497 -0.4675
 6511TIP3    H143728   7.511   4.759  12.134 -1.1014 -0.6058 -0.6348
 6511TIP3    H243729   7.534   4.836  12.262  1.5295  0.1340 -1.4919
 6512TIP3   OH243730   4.780   5.016  10.587  0.5325  0.0488 -0.0139
 6512TIP3    H143731   4.790   5.029  10.493  0.7949  0.3637  0.0568
 6512TIP3    H243732   4.851   5.067  10.626  0.0447  0.4416  0.3832
 6513TIP3   OH243733   6.266   5.458  12.101 -0.0169  0.5270  0.0890
 6513TIP3    H143734   6.262   5.504  12.185  0.3861 -3.1200  2.3433
 6513TIP3    H243735   6.175   5.437  12.081 -0.0214  0.2989  0.3365
 6514TIP3   OH243736   3.157   4.690  10.733  0.0711 -1.0201  0.4335
 6514TIP3    H143737   3.212   4.767  10.722 -2.0671  0.5622  0.2362
 6514TIP3    H243738   3.213   4.628  10.781  1.6518  0.8756  1.2124
 6515TIP3   OH243739   4.484   3.193  11.766 -0.0227 -0.2434 -0.2481
 6515TIP3    H143740   4.532   3.260  11.815 -2.3614  0.1394  1.7439
 6515TIP3    H243741   4.438   3.242  11.698  0.4138 -0.2234 -0.5262
 6516TIP3   OH243742   5.272   0.588  12.945 -0.3558  0.3285 -0.0461
 6516TIP3    H143743   5.356   0.550  12.972 -0.8627  1.0564  2.8919
 6516TIP3    H243744   5.207   0.524  12.973 -0.8892  0.6635 -0.5163
 6517TIP3   OH243745   4.947   4.036  11.929  0.4412  0.1541  0.4669
 6517TIP3    H143746   5.020   4.020  11.869  0.0111 -0.7192  0.1599
 6517TIP3    H243747   4.870   4.004  11.881 -0.0564  0.4911  1.0351
 6518TIP3   OH243748   6.077   6.017  11.669  0.0622 -0.0783  0.6599
 6518TIP3    H143749   6.080   6.019  11.574 -0.1791 -0.4384  0.6415
 6518TIP3    H243750   6.073   5.924  11.691 -1.7793  0.0263  0.9426
 6519TIP3   OH243751   0.920   0.363  12.273 -0.3399 -0.1420  0.1527
 6519TIP3    H143752   0.832   0.401  12.266 -0.3601 -0.3040 -0.6541
 6519TIP3    H243753   0.905   0.275  12.308 -0.3458  0.3754  1.4865
 6520TIP3   OH243754   2.723   7.500  11.321  0.0918  0.2561 -0.5906
 6520TIP3    H143755   2.763   7.423  11.282 -0.6011 -1.3393  1.6278
 6520TIP3    H243756   2.636   7.505  11.281  0.9812  1.3501 -2.4750
 6521TIP3   OH243757   0.710   0.702  11.268  0.4361  0.1168 -0.2372
 6521TIP3    H143758   0.669   0.615  11.272  1.0637 -0.2253 -1.0560
 6521TIP3    H243759   0.723   0.726  11.360 -0.3488 -0.3557  0.0121
 6522TIP3   OH243760   6.495   4.539  11.175  0.9894  0.2383 -1.2450
 6522TIP3    H143761   6.585   4.505  11.177  0.1903 -2.0453 -1.3333
 6522TIP3    H243762   6.444   4.470  11.132 -0.9411  1.1505 -0.5434
 6523TIP3   OH243763   1.118   6.966  12.787  0.4594 -0.1365  0.5389
 6523TIP3    H143764   1.190   6.978  12.725 -0.3296  1.4090 -0.1612
 6523TIP3    H243765   1.135   7.030  12.856 -0.5003  0.6659  0.0663
 6524TIP3   OH243766   0.140   2.011  12.282  0.0346 -0.1613  0.3072
 6524TIP3    H143767   0.208   1.947  12.258 -0.6334 -0.5432 -0.6332
 6524TIP3    H243768   0.058   1.966  12.263 -0.5041  0.2076  1.6686
 6525TIP3   OH243769   5.881   2.774  11.887  0.6245  0.2065  1.0332
 6525TIP3    H143770   5.901   2.815  11.971 -0.6627  0.9104  1.0184
 6525TIP3    H243771   5.799   2.726  11.902 -0.6780  1.8774 -0.2469
 6526TIP3   OH243772   2.138   1.299  11.613  0.1041 -0.1042  0.2126
 6526TIP3    H143773   2.160   1.216  11.571 -1.7974 -0.8591  0.6346
 6526TIP3    H243774   2.085   1.345  11.548 -2.1082 -0.9091  1.3364
 6527TIP3   OH243775   3.037   1.341  13.299 -0.0656  0.2506  0.0806
 6527TIP3    H143776   3.074   1.371  13.382  0.5678 -1.9846  0.6577
 6527TIP3    H243777   2.959   1.291  13.324  0.0458 -0.3234 -0.6808
 6528TIP3   OH243778   2.367   7.411  12.396 -0.2278  0.3272  0.3852
 6528TIP3    H143779   2.335   7.478  12.337  0.1287 -0.5754 -0.8707
 6528TIP3    H243780   2.450   7.383  12.358  3.1103  3.6105  4.2188
 6529TIP3   OH243781   4.100   1.481  12.568  0.8228  0.0644  0.4159
 6529TIP3    H143782   4.005   1.479  12.580  0.3695 -1.0713 -2.5672
 6529TIP3    H243783   4.118   1.412  12.504  3.2704  2.1677 -1.3844
 6530TIP3   OH243784   1.208   4.753  12.050  0.2284 -0.3234 -0.0626
 6530TIP3    H143785   1.193   4.686  12.118  1.7001 -1.3590 -0.6943
 6530TIP3    H243786   1.127   4.755  12.000 -0.0727 -1.1837  0.3629
 6531TIP3   OH243787   2.254   2.783  11.144  0.1191 -0.5966  0.0739
 6531TIP3    H143788   2.341   2.752  11.118  0.4438 -0.1542  0.6200
 6531TIP3    H243789   2.265   2.814  11.234 -0.8437 -1.5360  0.5440
 6532TIP3   OH243790   6.960   5.282  10.871  0.2816 -0.6653  0.1685
 6532TIP3    H143791   6.902   5.358  10.883 -1.0169 -1.3545 -1.3443
 6532TIP3    H243792   6.902   5.206  10.875  1.2083 -1.4449 -0.5890
 6533TIP3   OH243793   5.913   0.161  11.919  0.6539 -0.0465  0.0434
 6533TIP3    H143794   5.860   0.240  11.923  2.2699  1.1063 -0.2436
 6533TIP3    H243795   5.924   0.135  12.010  0.9897  0.6947  0.2229
 6534TIP3   OH243796   6.363   6.319  11.358 -0.2739  0.6962 -0.0077
 6534TIP3    H143797   6.402   6.234  11.379  2.1703  1.8289  0.3815
 6534TIP3    H243798   6.273   6.313  11.390 -0.3830 -1.9388 -0.5963
 6535TIP3   OH243799   6.922   7.321  11.309  0.2840  0.0566 -0.0723
 6535TIP3    H143800   6.882   7.327  11.222  3.3535  2.1670 -1.5068
 6535TIP3    H243801   6.953   7.231  11.314 -1.9691 -0.7918 -0.0856
 6536TIP3   OH243802   6.228   1.580  10.536 -0.1226 -0.2460 -0.1902
 6536TIP3    H143803   6.133   1.596  10.537  0.2950  2.8693 -0.9588
 6536TIP3    H243804   6.248   1.551  10.625 -1.4531  1.8871  0.8895
 6537TIP3   OH243805   6.700   2.130  11.537 -0.2162 -0.0811  0.5299
 6537TIP3    H143806   6.766   2.192  11.508 -1.5741  1.0910 -0.2111
 6537TIP3    H243807   6.673   2.162  11.623 -0.2504 -0.2098  0.5680
 6538TIP3   OH243808   1.262   3.267  12.349 -0.6463  0.4730 -0.1624
 6538TIP3    H143809   1.254   3.362  12.362  1.8510  0.7085  0.2213
 6538TIP3    H243810   1.318   3.258  12.272 -0.0821 -0.6680  0.3634
 6539TIP3   OH243811   5.886   3.356  11.924 -0.0035  0.1276  0.1679
 6539TIP3    H143812   5.857   3.439  11.960 -2.7672 -0.8348  0.3488
 6539TIP3    H243813   5.827   3.339  11.850  0.4589 -1.6870  0.1601
 6540TIP3   OH243814   3.587   3.219  12.400  0.3019  0.1116  0.4662
 6540TIP3    H143815   3.535   3.154  12.354  1.1953  0.3860 -0.9888
 6540TIP3    H243816   3.607   3.285  12.335 -0.8353  2.0438  1.9910
 6541TIP3   OH243817   5.800   7.238  12.188 -0.0687 -0.5736 -0.1024
 6541TIP3    H143818   5.848   7.239  12.105 -0.4284  0.3628 -0.3158
 6541TIP3    H243819   5.860   7.279  12.250  0.7666 -2.5446  0.4579
 6542TIP3   OH243820   6.066   1.483  12.091 -0.7879  0.6961  0.5873
 6542TIP3    H143821   6.151   1.465  12.053 -1.3296 -0.9549  0.0906
 6542TIP3    H243822   6.047   1.573  12.065 -1.7482 -0.6813 -4.4386
 6543TIP3   OH243823   0.277   5.032  11.225  0.4484 -0.4820 -0.0556
 6543TIP3    H143824   0.295   4.975  11.301  0.5908 -0.8594 -0.3659
 6543TIP3    H243825   0.312   5.117  11.250 -0.4527 -0.3130  0.7307
 6544TIP3   OH243826   2.251   5.559  12.302 -0.3697  0.0274 -0.0016
 6544TIP3    H143827   2.294   5.506  12.235  0.6477  0.2580  0.4583
 6544TIP3    H243828   2.190   5.614  12.253  0.9100  0.7432 -0.8526
 6545TIP3   OH243829   5.868   2.304  10.909  0.0508 -0.3188  0.4345
 6545TIP3    H143830   5.867   2.366  10.981  2.9446  0.4963 -0.1035
 6545TIP3    H243831   5.879   2.359  10.831  1.1512 -1.3985 -0.1965
 6546TIP3   OH243832   6.023   7.624  12.876  0.2358 -0.0402 -0.2780
 6546TIP3    H143833   6.088   7.694  12.867  1.8582 -1.0222  2.3369
 6546TIP3    H243834   6.067   7.546  12.843  1.0357 -0.9575  2.6128
 6547TIP3   OH243835   0.692   5.062  12.635  0.5155 -0.0579  0.3538
 6547TIP3    H143836   0.719   4.971  12.632  0.7669 -0.0202  1.2617
 6547TIP3    H243837   0.612   5.062  12.688 -0.2634  0.0825 -0.7699
 6548TIP3   OH243838   4.304   4.820  11.506 -0.3566  0.3817  0.6348
 6548TIP3    H143839   4.347   4.817  11.420 -0.1543 -0.8382  0.7589
 6548TIP3    H243840   4.221   4.774  11.492  0.0983 -0.6736  1.3047
 6549TIP3   OH243841   0.964   0.324  11.707  0.2031 -0.2029  0.6671
 6549TIP3    H143842   0.916   0.407  11.706  1.9726  0.9080 -1.6545
 6549TIP3    H243843   0.936   0.281  11.788 -0.6012  2.7627  2.1085
 6550TIP3   OH243844   0.909   3.073  12.111  0.3613  0.1491  0.1742
 6550TIP3    H143845   0.844   3.135  12.144 -0.3327 -0.0816 -0.7200
 6550TIP3    H243846   0.866   2.987  12.120  0.2128  0.0645 -1.1516
 6551TIP3   OH243847   0.541   6.749  12.126 -0.3182 -0.2256 -0.1248
 6551TIP3    H143848   0.577   6.664  12.101  1.8035  0.6485 -0.3041
 6551TIP3    H243849   0.450   6.731  12.151 -0.6491 -2.1405 -2.3842
 6552TIP3   OH243850   1.202   4.131  11.361  0.5459  0.2498  0.3393
 6552TIP3    H143851   1.192   4.184  11.282 -1.0330 -1.4336 -0.6777
 6552TIP3    H243852   1.121   4.143  11.410  0.9782  0.2814  1.0600
 6553TIP3   OH243853   7.247   0.485  10.760  0.4612 -0.2606  1.0678
 6553TIP3    H143854   7.173   0.441  10.718  1.4399  0.0945 -1.1637
 6553TIP3    H243855   7.324   0.436  10.733  1.2707  0.8404  1.2773
 6554TIP3   OH243856   3.870   2.287  11.116 -0.1668 -0.3102  0.2139
 6554TIP3    H143857   3.895   2.376  11.093 -0.7409  0.1225  1.2093
 6554TIP3    H243858   3.950   2.235  11.104  0.1420  0.3087 -0.4559
 6555TIP3   OH243859   4.291   5.513  11.528  0.2974 -0.0902  0.0667
 6555TIP3    H143860   4.229   5.443  11.511 -0.9342  0.9972 -0.0684
 6555TIP3    H243861   4.376   5.469  11.536 -0.4361 -1.5703 -0.0385
 6556TIP3   OH243862   5.928   3.466  12.268 -0.0824  0.4381  0.1001
 6556TIP3    H143863   5.862   3.512  12.320 -0.2075  0.4780 -0.0921
 6556TIP3    H243864   5.929   3.513  12.184 -2.4895 -1.7672 -1.3152
 6557TIP3   OH243865   4.503   4.186  12.871  0.7018 -0.0235 -0.2008
 6557TIP3    H143866   4.493   4.157  12.962 -0.6500 -1.3577 -0.7133
 6557TIP3    H243867   4.424   4.153  12.827  1.7022 -0.1230 -2.0318
 6558TIP3   OH243868   5.506   5.703  13.229  0.1847  0.3551 -0.6352
 6558TIP3    H143869   5.416   5.723  13.201 -1.0068 -0.3237  2.3689
 6558TIP3    H243870   5.514   5.608  13.217 -0.3072  0.0717  1.0726
 6559TIP3   OH243871   0.155   6.594  12.891 -0.9135 -0.5387  0.0758
 6559TIP3    H143872   0.183   6.502  12.886 -0.1578 -0.2423 -1.9367
 6559TIP3    H243873   0.228   6.638  12.935  0.9481 -0.1839 -3.0463
 6560TIP3   OH243874   2.097   3.778  13.272 -0.3566  0.2188  0.2151
 6560TIP3    H143875   2.010   3.777  13.232 -0.0721  0.3136 -0.4184
 6560TIP3    H243876   2.140   3.700  13.237 -0.0509  0.3896  0.2102
 6561TIP3   OH243877   1.467   1.689  11.254  0.5218  0.3585  0.1164
 6561TIP3    H143878   1.543   1.632  11.247 -0.5916 -1.0206 -2.5355
 6561TIP3    H243879   1.399   1.635  11.294  0.1947  0.7019  0.0380
 6562TIP3   OH243880   5.636   2.842  12.148 -0.1679  0.1244 -0.0079
 6562TIP3    H143881   5.721   2.835  12.193  1.0595 -0.6468 -2.2468
 6562TIP3    H243882   5.610   2.933  12.159  0.5617  0.1975  1.3613
 6563TIP3   OH243883   1.652   6.738  11.102 -0.2511  0.4908 -0.2771
 6563TIP3    H143884   1.599   6.717  11.026 -0.2072 -0.5161 -0.0336
 6563TIP3    H243885   1.735   6.770  11.065  0.1816 -1.0321 -0.6654
 6564TIP3   OH243886   6.942   3.590  11.888  0.3921 -0.1290 -0.5082
 6564TIP3    H143887   7.016   3.616  11.834  1.3795  0.3878  1.0157
 6564TIP3    H243888   6.959   3.498  11.909  1.3451  0.3197  0.8820
 6565TIP3   OH243889   3.232   5.191  13.655  0.1225 -0.2125  0.3687
 6565TIP3    H143890   3.272   5.155  13.734 -0.2852 -0.2844  0.5470
 6565TIP3    H243891   3.227   5.116  13.595  0.0950 -0.2472  0.4133
 6566TIP3   OH243892   6.289   3.014  10.867 -0.3288 -0.1503 -0.7223
 6566TIP3    H143893   6.361   2.962  10.903  1.6455  1.6472 -1.8731
 6566TIP3    H243894   6.210   2.969  10.898  1.2268 -1.4189  1.7590
 6567TIP3   OH243895   3.981   5.252  10.409  0.4152 -0.1189  0.5713
 6567TIP3    H143896   3.977   5.346  10.392  0.6476  0.1103  1.7078
 6567TIP3    H243897   3.933   5.240  10.491  1.6699 -0.7740  1.2417
 6568TIP3   OH243898   7.311   5.907  12.500 -0.2025 -0.3522  0.8392
 6568TIP3    H143899   7.302   5.819  12.465 -0.7165  0.1772 -0.4325
 6568TIP3    H243900   7.397   5.937  12.471 -0.4782 -0.0476  0.3111
 6569TIP3   OH243901   5.583   5.931  11.181 -0.0513  0.3753  0.1732
 6569TIP3    H143902   5.603   5.856  11.238 -0.1633  0.0884 -0.1568
 6569TIP3    H243903   5.503   5.968  11.218 -0.7776 -0.5048 -0.4501
 6570TIP3   OH243904   2.657   3.346  12.701  0.1259  0.7836  0.1117
 6570TIP3    H143905   2.583   3.401  12.725 -0.7309 -1.0060  1.9067
 6570TIP3    H243906   2.618   3.260  12.681  1.4965  0.4761 -1.4781
 6571TIP3   OH243907   5.964   6.943  12.117  0.1146  0.0603  0.2803
 6571TIP3    H143908   6.057   6.935  12.138  0.3771 -0.1276 -0.8927
 6571TIP3    H243909   5.960   7.016  12.055 -0.6107  0.4926  0.8216
 6572TIP3   OH243910   3.217   4.904  13.216 -0.2226 -0.3925  0.6307
 6572TIP3    H143911   3.162   4.978  13.192  2.0610  0.7551 -1.5027
 6572TIP3    H243912   3.161   4.827  13.206 -2.2679  0.9071  1.6374
 6573TIP3   OH243913   3.019   4.446  12.778 -0.1825 -0.2000 -0.3719
 6573TIP3    H143914   2.975   4.492  12.850 -0.0801 -0.3925 -0.1889
 6573TIP3    H243915   3.066   4.515  12.731 -2.2139  0.3640 -1.7139
 6574TIP3   OH243916   1.209   5.950  11.258 -0.1246 -0.7094 -0.2023
 6574TIP3    H143917   1.295   5.976  11.291  0.3940 -1.8370 -0.6053
 6574TIP3    H243918   1.185   6.018  11.195  0.5743 -0.4929 -0.2388
 6575TIP3   OH243919   3.818   5.353  10.950 -0.3698 -0.5297  0.0957
 6575TIP3    H143920   3.862   5.437  10.934 -0.9269 -0.7514 -3.1610
 6575TIP3    H243921   3.725   5.374  10.947 -0.5282 -0.9679  1.3978
 6576TIP3   OH243922   0.633   0.946  12.242  0.2598  0.4136 -0.2419
 6576TIP3    H143923   0.552   0.935  12.292  1.0486 -0.5838  0.8838
 6576TIP3    H243924   0.618   1.023  12.188 -1.2953  0.4755  0.2331
 6577TIP3   OH243925   4.756   1.990  12.644 -0.1576 -0.2422  0.4504
 6577TIP3    H143926   4.795   2.075  12.625 -0.8758 -0.1003 -0.4454
 6577TIP3    H243927   4.784   1.933  12.572 -3.3615  0.4487 -1.5453
 6578TIP3   OH243928   4.175   1.130  10.779 -0.5776 -0.0110 -0.3171
 6578TIP3    H143929   4.176   1.183  10.859  2.6344 -0.3514 -0.0039
 6578TIP3    H243930   4.157   1.041  10.810  2.0099 -0.3889  0.3347
 6579TIP3   OH243931   6.744   4.871  10.572 -0.0997  0.2219  0.1904
 6579TIP3    H143932   6.694   4.891  10.652 -1.2264  1.5371 -0.7968
 6579TIP3    H243933   6.765   4.957  10.536  0.9794 -0.3604 -0.5907
 6580TIP3   OH243934   0.501   4.859  13.013 -0.0827  0.0311  0.2206
 6580TIP3    H143935   0.470   4.769  13.021 -0.8514  0.1055 -1.5675
 6580TIP3    H243936   0.588   4.858  13.053 -0.7898 -1.0606  1.8531
 6581TIP3   OH243937   2.725   4.763  11.634  0.6911 -0.4031 -0.1860
 6581TIP3    H143938   2.667   4.831  11.669 -1.3860 -0.5608 -2.9949
 6581TIP3    H243939   2.780   4.808  11.570  0.3536 -1.0485 -0.9578
 6582TIP3   OH243940   2.212   0.830  10.614 -0.1101  0.2372 -0.1215
 6582TIP3    H143941   2.165   0.835  10.697  0.3257 -0.5315  0.1863
 6582TIP3    H243942   2.302   0.808  10.639 -0.0790 -0.4894 -0.8111
 6583TIP3   OH243943   0.449   3.567  11.367  0.0043  0.1413  0.6632
 6583TIP3    H143944   0.524   3.581  11.309  0.2472  2.3646  1.4536
 6583TIP3    H243945   0.444   3.646  11.420 -1.0625 -1.2308  2.7519
 6584TIP3   OH243946   2.695   0.089  12.370  0.0361  0.4295  0.0110
 6584TIP3    H143947   2.695   0.018  12.435  0.8947 -0.0407 -0.4932
 6584TIP3    H243948   2.602   0.109  12.357 -0.1792  0.0023  0.8050
 6585TIP3   OH243949   2.170   0.155  12.872 -0.1777 -0.4480 -0.4707
 6585TIP3    H143950   2.195   0.073  12.914  0.7115 -1.2263 -2.3874
 6585TIP3    H243951   2.219   0.222  12.921 -0.7148 -1.0497  0.9546
 6586TIP3   OH243952   3.431   1.025  10.981  0.3019 -0.2367  0.2819
 6586TIP3    H143953   3.471   0.939  10.966  0.5250 -0.2182  0.7420
 6586TIP3    H243954   3.504   1.081  11.007  0.0842 -0.0248  0.4453
 6587TIP3   OH243955   0.892   3.419  13.391  0.1237 -0.5665  0.0525
 6587TIP3    H143956   0.870   3.502  13.349  0.0520 -0.2157  0.7736
 6587TIP3    H243957   0.808   3.383  13.419  0.3652  1.8427  4.8468
 6588TIP3   OH243958   3.816   3.410  11.670  0.0209 -0.0951 -0.3252
 6588TIP3    H143959   3.854   3.496  11.690  0.5959 -0.6899  1.2702
 6588TIP3    H243960   3.854   3.387  11.585  0.4655  0.8802 -0.4118
 6589TIP3   OH243961   5.477   1.351  13.177 -0.2286  0.1689 -0.2537
 6589TIP3    H143962   5.415   1.296  13.225  0.2939 -0.0181  0.2227
 6589TIP3    H243963   5.447   1.441  13.194 -0.3411  0.0830  0.0047
 6590TIP3   OH243964   4.735   2.533  10.577 -0.1795  0.5474  0.0201
 6590TIP3    H143965   4.820   2.531  10.534  0.3942  0.5626  1.1123
 6590TIP3    H243966   4.706   2.624  10.567 -0.6038  0.2881 -1.3200
 6591TIP3   OH243967   6.742   1.708  12.067  0.1133  0.2497 -0.0686
 6591TIP3    H143968   6.817   1.767  12.065  0.9902 -0.7526  1.3342
 6591TIP3    H243969   6.707   1.717  12.156 -1.1473  0.3357 -0.5547
 6592TIP3   OH243970   6.823   1.061  11.713 -1.1018 -0.9470 -0.1390
 6592TIP3    H143971   6.806   1.082  11.805 -2.2212  0.0670 -0.5505
 6592TIP3    H243972   6.744   1.087  11.667 -0.7504 -1.8909 -1.3457
 6593TIP3   OH243973   6.655   5.319  10.858  0.9438 -0.2702  0.1949
 6593TIP3    H143974   6.679   5.240  10.907  0.2108 -0.6484 -0.0286
 6593TIP3    H243975   6.564   5.335  10.883  0.4210 -0.6974 -1.3140
 6594TIP3   OH243976   0.330   3.122  11.999 -0.1994  0.5188  0.7597
 6594TIP3    H143977   0.326   3.113  11.903  1.8570  1.1039  0.5658
 6594TIP3    H243978   0.239   3.133  12.026 -0.9205 -0.5402 -1.0262
 6595TIP3   OH243979   5.205   0.956  11.910  0.1154 -0.3795 -0.1152
 6595TIP3    H143980   5.187   0.869  11.945  0.0080  0.0601  0.9525
 6595TIP3    H243981   5.301   0.958  11.900  0.2956 -0.0464  1.4551
 6596TIP3   OH243982   4.694   4.632  10.817  0.0827 -1.0021 -0.1639
 6596TIP3    H143983   4.780   4.638  10.776  0.0295 -2.8928 -0.6785
 6596TIP3    H243984   4.711   4.643  10.911  0.3794  2.0198 -0.4803
 6597TIP3   OH243985   2.251   4.188  12.695 -0.2980  0.0227  0.2131
 6597TIP3    H143986   2.166   4.150  12.716 -0.8649  0.3041 -1.3823
 6597TIP3    H243987   2.277   4.235  12.774 -0.9299 -1.2790  1.2193
 6598TIP3   OH243988   6.424   6.405  11.612 -0.3364 -0.1954 -0.5697
 6598TIP3    H143989   6.405   6.393  11.519 -1.4879  0.1680 -0.3972
 6598TIP3    H243990   6.508   6.361  11.625 -0.5799 -1.0057 -1.5953
 6599TIP3   OH243991   4.197  -0.007  12.997  0.0161 -0.5903  0.0531
 6599TIP3    H143992   4.156  -0.071  13.055 -0.3140 -1.5772 -1.2393
 6599TIP3    H243993   4.132   0.064  12.992 -0.7399 -1.3009 -0.4993
 6600TIP3   OH243994   6.716   1.472  10.492 -0.2890  0.5063 -0.5373
 6600TIP3    H143995   6.645   1.492  10.430  0.8758 -0.3143 -2.2230
 6600TIP3    H243996   6.780   1.541  10.477 -0.8402  1.4954  1.2890
 6601TIP3   OH243997   4.121   0.412  12.847 -0.1269 -0.3211 -0.2026
 6601TIP3    H143998   4.061   0.341  12.869 -0.5033  0.4531  1.4685
 6601TIP3    H243999   4.200   0.393  12.898  0.3457 -0.3274 -0.9216
 6602TIP3   OH244000   1.867   3.775  12.845 -0.0071 -0.4620 -0.0110
 6602TIP3    H144001   1.943   3.742  12.891  0.6787  0.2936 -0.5581
 6602TIP3    H244002   1.796   3.770  12.908  1.1070  1.4705  1.5096
 6603TIP3   OH244003   0.877   0.706  10.870  0.4275  0.1195  0.1251
 6603TIP3    H144004   0.823   0.639  10.830  1.0289 -0.0656 -0.3935
 6603TIP3    H244005   0.896   0.672  10.958 -0.2166  0.1512  0.2805
 6604TIP3   OH244006   1.600   6.924  11.304 -0.5096 -0.1374  0.0680
 6604TIP3    H144007   1.522   6.897  11.353  0.0946  0.6249  1.5149
 6604TIP3    H244008   1.598   6.871  11.225 -1.7674 -1.1161  0.7176
 6605TIP3   OH244009   5.760   2.155  11.408 -0.2819  0.0628  0.2820
 6605TIP3    H144010   5.743   2.234  11.357  1.6301  1.2773  1.3943
 6605TIP3    H244011   5.843   2.121  11.372 -1.1225 -1.5420 -0.2502
 6606TIP3   OH244012   2.695   1.053  12.805  0.0213  0.5440  0.0642
 6606TIP3    H144013   2.736   1.117  12.863  1.1371 -0.2362  0.1727
 6606TIP3    H244014   2.767   1.020  12.751 -0.7339  0.1913 -0.7563
 6607TIP3   OH244015   2.373   1.299  12.064  0.4256  0.2139 -0.0430
 6607TIP3    H144016   2.456   1.344  12.043  0.1159  0.7860 -0.0700
 6607TIP3    H244017   2.400   1.219  12.108  0.9773  0.6771  0.4789
 6608TIP3   OH244018   6.786   0.202  12.532 -0.0754  0.6203 -0.0754
 6608TIP3    H144019   6.703   0.186  12.487 -0.7851 -0.3385  1.4835
 6608TIP3    H244020   6.797   0.297  12.529 -1.8756  0.8970  0.7158
 6609TIP3   OH244021   0.386   6.238  11.195  0.0564 -0.2929 -0.1590
 6609TIP3    H144022   0.314   6.175  11.195  0.0942 -0.4343  1.9803
 6609TIP3    H244023   0.364   6.299  11.265  1.8042 -0.1056  0.2764
 6610TIP3   OH244024   2.113   5.084  18.122  0.1134 -0.2526 -0.1963
 6610TIP3    H144025   2.176   5.023  18.163 -0.4070  0.5689  1.9719
 6610TIP3    H244026   2.042   5.027  18.093 -0.3862 -0.7469  1.8302
 6611TIP3   OH244027   5.579   1.538  12.104  0.0620 -0.2528 -0.4805
 6611TIP3    H144028   5.486   1.534  12.126 -0.7086  1.2329 -3.0337
 6611TIP3    H244029   5.624   1.519  12.186 -2.4653 -1.4377  0.7405
 6612TIP3   OH244030   2.747   4.333  12.222 -0.0421 -0.0878  0.3636
 6612TIP3    H144031   2.794   4.325  12.139 -1.2403 -1.4881 -0.2345
 6612TIP3    H244032   2.771   4.254  12.270 -1.2007 -0.4809  0.3281
 6613TIP3   OH244033   4.568   6.815  13.093  0.2563 -0.6381  0.5721
 6613TIP3    H144034   4.629   6.885  13.072  1.2784 -2.2293 -2.2845
 6613TIP3    H244035   4.601   6.778  13.175  0.0652  1.6931  1.7904
 6614TIP3   OH244036   6.502   1.965  11.531 -0.1194 -0.1169  0.2230
 6614TIP3    H144037   6.578   2.022  11.539  0.0512 -0.3885  0.5411
 6614TIP3    H244038   6.537   1.876  11.537 -0.2567 -0.3015 -1.2117
 6615TIP3   OH244039   1.571   7.592  11.311  0.4126  0.4825 -0.0915
 6615TIP3    H144040   1.655   7.625  11.342  0.1892  0.7792  0.2193
 6615TIP3    H244041   1.540   7.659  11.250  0.9501 -0.2038 -1.1531
 6616TIP3   OH244042   0.104   4.294  10.632 -0.6486  0.3096  0.5434
 6616TIP3    H144043   0.048   4.224  10.665 -1.8521 -0.1131 -2.1239
 6616TIP3    H244044   0.045   4.348  10.579  0.7914  1.8889  0.4775
 6617TIP3   OH244045   0.739   3.298  12.143 -0.0984 -0.5692 -0.8385
 6617TIP3    H144046   0.786   3.381  12.154 -0.0512 -0.7720  0.7573
 6617TIP3    H244047   0.679   3.314  12.070 -0.3136  0.9873 -0.3665
 6618TIP3   OH244048   3.356   5.996  12.811 -0.0937 -0.3512  0.0770
 6618TIP3    H144049   3.345   5.971  12.903  0.6600 -1.7968 -0.1988
 6618TIP3    H244050   3.269   5.983  12.772 -0.9048  1.9977  0.9162
 6619TIP3   OH244051   1.491   3.264  12.150  0.2351  0.4821  0.6725
 6619TIP3    H144052   1.579   3.301  12.147  0.6960 -0.6142 -0.0007
 6619TIP3    H244053   1.501   3.174  12.119 -1.0539  0.1933  1.0055
 6620TIP3   OH244054   2.799   3.538  11.822 -0.0738  0.4610 -0.3054
 6620TIP3    H144055   2.773   3.523  11.913  0.7147  1.3628  0.0870
 6620TIP3    H244056   2.888   3.571  11.828  0.7953 -1.5332 -1.5514
 6621TIP3   OH244057   4.906   3.363  13.207 -0.2058 -0.0114  0.4071
 6621TIP3    H144058   4.916   3.269  13.220 -0.5873 -0.1507 -0.2933
 6621TIP3    H244059   4.901   3.374  13.112  2.3143  0.9467  0.3004
 6622TIP3   OH244060   6.251   4.593  11.014  0.6710 -0.2705  0.7012
 6622TIP3    H144061   6.182   4.645  11.054  1.4473  1.6523 -0.3441
 6622TIP3    H244062   6.220   4.578  10.924  0.6351 -1.3489  0.8722
 6623TIP3   OH244063   5.491   2.019  11.794 -0.1127  0.5027  0.3603
 6623TIP3    H144064   5.510   2.062  11.711 -2.7136 -0.5414 -0.9200
 6623TIP3    H244065   5.428   1.950  11.771  1.0448 -1.5755  2.8347
 6624TIP3   OH244066   4.114   0.542  12.135 -0.0475  1.1421  0.6124
 6624TIP3    H144067   4.103   0.600  12.211  2.2112  0.7861  1.2973
 6624TIP3    H244068   4.028   0.502  12.123 -0.2519  0.3424  3.7588
 6625TIP3   OH244069   5.869   1.237  13.327 -0.2218 -0.2251  0.1461
 6625TIP3    H144070   5.946   1.235  13.384  0.5671 -4.9547 -0.6335
 6625TIP3    H244071   5.806   1.292  13.373  1.7528 -0.5552  3.5693
 6626TIP3   OH244072   3.439   1.886  13.610  0.1664 -0.1272 -0.2740
 6626TIP3    H144073   3.399   1.799  13.612 -0.9450  0.3899  0.6815
 6626TIP3    H244074   3.455   1.902  13.517 -2.7653  0.0276 -0.8399
 6627TIP3   OH244075   2.173   7.111  12.266 -0.3566 -0.1766 -0.5677
 6627TIP3    H144076   2.207   7.191  12.226 -0.8091 -0.0322 -0.6730
 6627TIP3    H244077   2.226   7.099  12.344 -1.3692  1.1801  0.3859
 6628TIP3   OH244078   7.077   1.580  10.601 -0.8184 -0.0332 -0.0225
 6628TIP3    H144079   7.068   1.552  10.692  2.1182 -1.3568 -0.0067
 6628TIP3    H244080   7.136   1.515  10.562 -3.7832 -0.9183 -3.5858
 6629TIP3   OH244081   2.090   2.582  11.581  0.2481 -0.0092  0.4572
 6629TIP3    H144082   2.133   2.567  11.665 -0.9309  0.0652  1.0956
 6629TIP3    H244083   2.110   2.504  11.529  0.4103 -0.3713  1.0543
 6630TIP3   OH244084   0.073   6.672  11.311  0.3601 -0.4658 -0.5141
 6630TIP3    H144085   0.038   6.617  11.381 -0.5613 -0.8149 -1.2224
 6630TIP3    H244086   0.091   6.756  11.352 -1.2658 -0.2971 -0.0912
 6631TIP3   OH244087   0.230   6.214  12.585  0.0285  0.1991 -0.1813
 6631TIP3    H144088   0.210   6.240  12.494 -0.6068  0.2408 -0.0367
 6631TIP3    H244089   0.299   6.148  12.576 -0.5344 -0.3341 -0.7490
 6632TIP3   OH244090   2.570   2.098  11.951  0.7942 -0.4032  0.4095
 6632TIP3    H144091   2.637   2.059  12.007 -0.4394 -1.2855  1.3174
 6632TIP3    H244092   2.592   2.191  11.948 -0.3155  0.1665  4.2921
 6633TIP3   OH244093   3.593   0.740  12.407 -0.2261 -0.6136  0.1175
 6633TIP3    H144094   3.593   0.671  12.341  0.6462  0.2491 -0.8260
 6633TIP3    H244095   3.508   0.731  12.451 -1.0653 -0.8754 -1.4824
 6634TIP3   OH244096   7.088   5.138  12.839 -0.4050  0.2409 -0.6650
 6634TIP3    H144097   7.132   5.118  12.756 -1.5240 -1.3799 -0.9110
 6634TIP3    H244098   7.017   5.074  12.845 -1.1710  1.1760  0.9232
 6635TIP3   OH244099   4.237   7.256  13.054  0.3282  0.3595  0.1247
 6635TIP3    H144100   4.196   7.314  12.990 -2.0867  0.2332  1.4510
 6635TIP3    H244101   4.216   7.168  13.023 -2.8037  0.2788  2.1048
 6636TIP3   OH244102   1.201   2.492  11.016  0.1665  0.5095  0.6365
 6636TIP3    H144103   1.197   2.401  11.044  1.3864  0.4377  0.6439
 6636TIP3    H244104   1.211   2.488  10.921  1.1201  0.5882  0.7197
 6637TIP3   OH244105   2.313   4.155  11.114  0.5514 -0.3147  0.0952
 6637TIP3    H144106   2.375   4.211  11.068  0.2334 -0.3991 -0.4421
 6637TIP3    H244107   2.262   4.215  11.169  2.5877 -0.4564  2.3475
 6638TIP3   OH244108   4.608   4.689  11.320  0.4495  0.3193 -0.3618
 6638TIP3    H144109   4.577   4.633  11.391 -1.2982  1.1419 -0.4164
 6638TIP3    H244110   4.662   4.755  11.364  0.2733  0.1854  0.0631
 6639TIP3   OH244111   1.976   3.703  12.590 -0.8178 -0.2381 -0.4209
 6639TIP3    H144112   1.905   3.708  12.525 -1.2163  2.4020  0.1221
 6639TIP3    H244113   1.932   3.716  12.674 -0.2358 -3.1478  0.4513
 6640TIP3   OH244114   6.301   2.400  10.396 -0.7645  0.3805  0.1844
 6640TIP3    H144115   6.241   2.451  10.342 -1.0628 -2.3473 -2.3180
 6640TIP3    H244116   6.245   2.346  10.451 -0.6114 -0.2104 -0.2164
 6641TIP3   OH244117   3.809   4.885  11.984 -0.4249  0.0040 -0.1639
 6641TIP3    H144118   3.755   4.828  12.038 -0.7734 -0.4240 -0.9416
 6641TIP3    H244119   3.874   4.828  11.945 -0.2944  0.2705 -0.3406
 6642TIP3   OH244120   5.496   5.899  12.543  0.2026 -0.5040  0.1440
 6642TIP3    H144121   5.563   5.845  12.502 -1.1792 -2.1651 -0.0498
 6642TIP3    H244122   5.418   5.885  12.489 -0.4659  0.9057  0.6973
 6643TIP3   OH244123   4.160   2.426  11.823  0.6132  0.2716 -0.1497
 6643TIP3    H144124   4.224   2.470  11.766 -0.9563  1.2614 -1.2468
 6643TIP3    H244125   4.207   2.352  11.861  2.5301  1.2608 -0.5148
 6644TIP3   OH244126   6.135   6.323  11.486 -0.1614 -0.2762  0.0401
 6644TIP3    H144127   6.171   6.411  11.485  1.5266 -0.9018  1.1806
 6644TIP3    H244128   6.040   6.336  11.493 -0.0691  1.4177 -1.2145
 6645TIP3   OH244129   1.695   7.215  11.459 -0.3320 -0.7025 -0.4494
 6645TIP3    H144130   1.757   7.160  11.505 -1.9816 -2.7639 -0.5303
 6645TIP3    H244131   1.736   7.302  11.457  1.2605 -1.3135  1.8935
 6646TIP3   OH244132   4.833   5.057  12.178  0.6011  0.3655 -0.0075
 6646TIP3    H144133   4.758   5.115  12.191  0.9239  1.9907 -3.8610
 6646TIP3    H244134   4.794   4.971  12.161 -0.6016  1.3187 -2.6532
 6647TIP3   OH244135   7.294   0.184  11.747 -0.1384  0.2052 -0.1492
 6647TIP3    H144136   7.267   0.120  11.814 -0.4128 -0.9669 -1.3402
 6647TIP3    H244137   7.365   0.141  11.700  0.0954  1.0383 -0.5703
 6648TIP3   OH244138   6.629   3.797  11.179  0.1433 -0.0749 -0.0206
 6648TIP3    H144139   6.716   3.798  11.218  0.8936  0.7449 -1.5880
 6648TIP3    H244140   6.570   3.777  11.251  1.2583  2.8293  1.8920
 6649TIP3   OH244141   1.679   4.175  11.123  0.2330  0.5280  0.6808
 6649TIP3    H144142   1.771   4.152  11.129  0.4334  1.4005  1.1904
 6649TIP3    H244143   1.636   4.097  11.088  1.2138  0.2382  0.0991
 6650TIP3   OH244144   5.784   1.858  11.573  0.3444  0.3999 -0.3131
 6650TIP3    H144145   5.862   1.913  11.575  0.8728 -0.3493  0.0736
 6650TIP3    H244146   5.748   1.871  11.485  1.8378 -0.5142 -1.0998
 6651TIP3   OH244147   3.828   1.916  12.377  0.3643 -0.1349 -0.5643
 6651TIP3    H144148   3.854   1.978  12.445 -0.0880 -0.3866 -0.1521
 6651TIP3    H244149   3.869   1.950  12.297  0.4787  0.4534 -0.2676
 6652TIP3   OH244150   7.558   1.059  11.143  0.2664  0.3346  0.0037
 6652TIP3    H144151   7.630   1.016  11.190  0.9311 -1.2654 -2.2659
 6652TIP3    H244152   7.481   1.045  11.198  1.1335 -0.6999  1.0145
 6653TIP3   OH244153   2.124   5.135  11.818 -0.4902  0.2648 -0.1897
 6653TIP3    H144154   2.172   5.170  11.894 -0.5185  1.1159 -0.5522
 6653TIP3    H244155   2.061   5.074  11.856  1.2658 -1.3592  0.2490
 6654TIP3   OH244156   3.146   5.964  12.424  0.4583  0.0136  0.4810
 6654TIP3    H144157   3.082   5.956  12.495  0.4843  2.2300  0.8171
 6654TIP3    H244158   3.230   5.976  12.468  1.0088 -1.7760  0.0323
 6655TIP3   OH244159   3.917   6.269  13.103  0.1827 -0.7067  0.1515
 6655TIP3    H144160   3.936   6.212  13.178  2.0463 -2.4900 -1.5333
 6655TIP3    H244161   3.856   6.219  13.049  0.6102 -0.4304 -0.6014
 6656TIP3   OH244162   2.115   1.955  11.573  0.2254  0.3153  0.9002
 6656TIP3    H144163   2.209   1.955  11.595  0.3271  2.7291  0.7106
 6656TIP3    H244164   2.080   2.030  11.621 -1.3160  0.3572 -0.2371
 6657TIP3   OH244165   3.501   5.374  12.191 -0.3779 -0.3447 -0.2448
 6657TIP3    H144166   3.437   5.440  12.218  1.5225  1.2663  0.5650
 6657TIP3    H244167   3.505   5.382  12.096  0.4020  1.3521 -0.1115
 6658TIP3   OH244168   5.350   4.415  10.636  0.1065 -0.6459  0.3211
 6658TIP3    H144169   5.384   4.369  10.560  0.6182 -0.8608  0.6677
 6658TIP3    H244170   5.418   4.404  10.703 -0.7209 -1.2131  1.0872
 6659TIP3   OH244171   2.267   7.108  12.567 -0.3911 -0.0943 -0.5085
 6659TIP3    H144172   2.199   7.095  12.634  2.3575 -1.3738  2.2924
 6659TIP3    H244173   2.285   7.202  12.570 -1.7743  0.2183 -1.0890
 6660TIP3   OH244174   6.250   6.823  10.539  0.4133 -0.6051 -0.4012
 6660TIP3    H144175   6.279   6.844  10.450 -0.7130 -0.9613 -0.8659
 6660TIP3    H244176   6.175   6.881  10.554  1.0750  0.0245  0.6324
 6661TIP3   OH244177   2.309   7.279  10.900  0.2326 -0.3964  0.1898
 6661TIP3    H144178   2.287   7.341  10.830 -2.0322 -0.9307  0.3499
 6661TIP3    H244179   2.403   7.267  10.893  0.3883  1.3492 -1.2751
 6662TIP3   OH244180   1.850   4.419  12.847  0.1011  0.5528 -0.3079
 6662TIP3    H144181   1.936   4.460  12.843  0.2736  0.3183  0.7916
 6662TIP3    H244182   1.862   4.341  12.901 -1.2484  1.7125  1.8103
 6663TIP3   OH244183   6.552   3.773  10.917 -0.1848  0.0857 -0.4310
 6663TIP3    H144184   6.502   3.692  10.928  1.4177 -0.9743 -0.5536
 6663TIP3    H244185   6.592   3.788  11.003  0.1274  0.3170 -0.6124
 6664TIP3   OH244186   0.011   1.815  11.308 -0.0971  0.3496  0.2114
 6664TIP3    H144187   0.060   1.733  11.295  1.0619  1.0020  0.3792
 6664TIP3    H244188  -0.068   1.787  11.353  2.2270 -0.2524  4.4541
 6665TIP3   OH244189   1.799   6.837  11.451 -0.0044 -0.3610  0.4939
 6665TIP3    H144190   1.718   6.857  11.403  0.6954 -1.6282 -1.3492
 6665TIP3    H244191   1.773   6.768  11.513 -0.8413  1.0329  1.7746
 6666TIP3   OH244192   4.066   6.146  10.784 -0.3412 -0.2836  0.0760
 6666TIP3    H144193   4.080   6.069  10.839  0.7655 -0.2452 -0.1247
 6666TIP3    H244194   4.023   6.112  10.706  0.1914 -0.7206 -0.0369
 6667TIP3   OH244195   4.822   5.519  13.069  0.0391 -0.4840  0.1973
 6667TIP3    H144196   4.912   5.531  13.099 -0.1873 -1.7442  1.5512
 6667TIP3    H244197   4.830   5.488  12.979  0.9568 -0.3091  0.2109
 6668TIP3   OH244198   2.030   2.367  11.921  0.3861 -0.0950 -0.9027
 6668TIP3    H144199   1.981   2.304  11.974  1.2245 -0.4023 -0.4737
 6668TIP3    H244200   1.968   2.438  11.903 -0.0187 -0.1767  0.1552
 6669TIP3   OH244201   7.168   5.660  10.403  0.2647 -0.3117 -0.0639
 6669TIP3    H144202   7.157   5.645  10.309 -1.6818 -0.0119  0.0597
 6669TIP3    H244203   7.240   5.722  10.410  0.4656 -0.3783 -1.3609
 6670TIP3   OH244204   6.756   2.397  10.587 -1.1352 -0.2057 -0.1833
 6670TIP3    H144205   6.719   2.328  10.642  0.4519 -1.6457 -0.8327
 6670TIP3    H244206   6.741   2.367  10.497  1.2074 -0.7104 -0.4752
 6671TIP3   OH244207   2.387   2.370  11.047  0.1469  0.2962 -0.0422
 6671TIP3    H144208   2.477   2.375  11.078  0.4370  0.3261 -0.8921
 6671TIP3    H244209   2.350   2.294  11.094  0.7175  0.0573  0.0252
 6672TIP3   OH244210   5.826   1.816  12.217 -0.3566 -0.1265  0.0065
 6672TIP3    H144211   5.754   1.872  12.245 -0.7082 -0.6231  0.1111
 6672TIP3    H244212   5.815   1.736  12.268  0.7035  0.0717  0.5712
 6673TIP3   OH244213   2.670   5.234  11.607 -0.9130 -0.3287 -0.3100
 6673TIP3    H144214   2.686   5.279  11.524 -1.3671  0.3600 -0.0347
 6673TIP3    H244215   2.742   5.260  11.663  0.2490 -2.0003 -0.9315
 6674TIP3   OH244216   6.994   2.918  10.554 -0.1121 -0.2745 -0.4082
 6674TIP3    H144217   7.033   2.993  10.511  1.5319  0.7758  2.6349
 6674TIP3    H244218   6.904   2.945  10.572 -0.2331  0.0019 -1.3556
 6675TIP3   OH244219   4.238   1.219  12.546  0.2948  0.3528  0.1115
 6675TIP3    H144220   4.280   1.179  12.622  3.3054  0.7298 -1.2325
 6675TIP3    H244221   4.252   1.157  12.475 -0.6093  0.9532 -0.6272
 6676TIP3   OH244222   1.670   3.587  11.024  0.5963  0.2422  0.7238
 6676TIP3    H144223   1.712   3.623  10.946 -0.0184  2.6187  1.3996
 6676TIP3    H244224   1.597   3.536  10.991 -1.6296  3.7706 -0.3451
 6677TIP3   OH244225   4.930   0.233  10.648 -0.2155  0.2989  0.6234
 6677TIP3    H144226   4.946   0.180  10.569 -0.9404  0.6605  0.2265
 6677TIP3    H244227   4.980   0.313  10.633  0.1884  0.0914  0.8389
 6678TIP3   OH244228   3.848   6.928  12.107  0.0107  0.9197 -0.2128
 6678TIP3    H144229   3.856   7.021  12.130  0.1773  0.7941  0.2526
 6678TIP3    H244230   3.770   6.923  12.052  0.3494  1.4279 -0.7537
 6679TIP3   OH244231   5.959   5.099  11.057  0.4851 -0.4720  0.0658
 6679TIP3    H144232   5.938   5.060  11.142 -0.2441 -0.3653 -0.0519
 6679TIP3    H244233   6.054   5.092  11.049  0.4079 -1.8657  0.2128
 6680TIP3   OH244234   5.278   0.441  11.652 -0.5286  0.5088 -0.1628
 6680TIP3    H144235   5.340   0.478  11.589 -1.1563 -0.0759 -1.1487
 6680TIP3    H244236   5.213   0.510  11.666 -0.0088  0.8916  0.3855
 6681TIP3   OH244237   7.195   1.175  12.818 -0.1309 -0.9977  0.1851
 6681TIP3    H144238   7.287   1.173  12.792 -0.3896  0.2650 -0.9192
 6681TIP3    H244239   7.193   1.239  12.890 -0.5796  1.4322 -1.8696
 6682TIP3   OH244240   3.321   6.320  11.319 -0.0315 -0.2657 -0.5186
 6682TIP3    H144241   3.266   6.273  11.381 -0.3817 -0.2618 -0.8212
 6682TIP3    H244242   3.366   6.251  11.270 -0.2669 -0.2815 -0.7142
 6683TIP3   OH244243   5.991   0.880  10.559  0.2734 -0.3294 -0.6750
 6683TIP3    H144244   6.028   0.891  10.646  0.7998  0.9177 -1.0345
 6683TIP3    H244245   6.026   0.797  10.528  0.0093 -0.8317  0.3298
 6684TIP3   OH244246   3.929   6.003  10.604 -0.1367  0.5589 -0.5882
 6684TIP3    H144247   3.937   5.968  10.515  0.3813 -1.5358  0.2266
 6684TIP3    H244248   3.855   5.956  10.642  1.1033 -0.3513  0.8240
 6685TIP3   OH244249   1.441   2.233  12.036  0.5343 -0.5563  0.3256
 6685TIP3    H144250   1.453   2.256  11.944  1.6347  1.0258  0.8298
 6685TIP3    H244251   1.476   2.144  12.043  0.2538 -0.7671 -0.8108
 6686TIP3   OH244252   1.488   4.425  10.957 -0.0138  0.5526 -0.1812
 6686TIP3    H144253   1.460   4.431  11.048  1.2226 -1.2739  0.3775
 6686TIP3    H244254   1.447   4.500  10.914 -2.2816  0.3156  1.4236
 6687TIP3   OH244255   2.243   0.792  11.920  0.0291  0.3277 -0.2631
 6687TIP3    H144256   2.225   0.751  12.004  1.5023  1.1396  0.4782
 6687TIP3    H244257   2.156   0.818  11.888 -0.7871 -2.0155 -0.1061
 6688TIP3   OH244258   7.402   1.203  10.437 -0.3178  0.7896 -0.6787
 6688TIP3    H144259   7.403   1.135  10.370  0.1349 -0.6476  0.7437
 6688TIP3    H244260   7.481   1.187  10.488 -2.7170 -0.9205  2.8440
 6689TIP3   OH244261   1.347   6.460  10.799 -0.2798  0.3842  0.3352
 6689TIP3    H144262   1.309   6.542  10.769  0.3929  0.4365 -0.4206
 6689TIP3    H244263   1.355   6.407  10.719 -0.0416 -0.1306  0.6948
 6690TIP3   OH244264   3.417   6.005  12.477  0.0322 -0.8088  0.1035
 6690TIP3    H144265   3.457   5.920  12.458  0.0378 -0.6777 -0.4945
 6690TIP3    H244266   3.490   6.061  12.506  0.3534 -0.4756 -1.2967
 6691TIP3   OH244267   4.937   5.845  12.315  0.1295  0.3403  0.1509
 6691TIP3    H144268   4.892   5.929  12.316  1.2979  1.1011 -2.4367
 6691TIP3    H244269   4.869   5.781  12.336 -1.0771  1.7961  0.8868
 6692TIP3   OH244270   0.534   0.019  12.748  0.1768  0.0420  0.4812
 6692TIP3    H144271   0.478  -0.036  12.803  0.1522 -1.4407 -0.9756
 6692TIP3    H244272   0.590  -0.043  12.702  0.8787  1.3230 -0.4253
 6693TIP3   OH244273   2.406   4.760  10.756 -0.0915  0.0053  0.3365
 6693TIP3    H144274   2.403   4.704  10.678  0.8360  0.3177  0.0629
 6693TIP3    H244275   2.318   4.755  10.793 -0.3756 -0.6127 -0.4054
 6694TIP3   OH244276   6.555   2.630  12.508  0.1710 -0.4398  0.1875
 6694TIP3    H144277   6.585   2.698  12.568  0.4833  0.2892 -0.7571
 6694TIP3    H244278   6.633   2.608  12.457  0.2474 -2.0293  0.9421
 6695TIP3   OH244279   0.388   5.777  12.180 -0.3006 -0.4068  0.5934
 6695TIP3    H144280   0.406   5.798  12.089 -0.3832  1.6884  1.0111
 6695TIP3    H244281   0.303   5.818  12.198  0.1246 -0.0265  1.8341
 6696TIP3   OH244282   0.945   1.604  13.354  0.1632  0.0682  0.4463
 6696TIP3    H144283   0.863   1.568  13.389  0.7119  0.3114  2.0828
 6696TIP3    H244284   0.918   1.666  13.287 -0.9621 -0.3205  0.5174
 6697TIP3   OH244285   4.185   5.898  12.672  0.4677  0.4975  0.3606
 6697TIP3    H144286   4.129   5.943  12.608 -0.1249  0.6362  0.9582
 6697TIP3    H244287   4.172   5.948  12.753 -1.3808 -1.5660  1.4659
 6698TIP3   OH244288   4.979   3.430  12.151 -0.5897 -0.8737  0.3644
 6698TIP3    H144289   4.931   3.512  12.141 -1.5350 -1.1006  2.5495
 6698TIP3    H244290   4.982   3.393  12.062  0.6668  1.8932 -0.8635
 6699TIP3   OH244291   2.627   5.902  12.816 -0.0300  0.2654 -0.3777
 6699TIP3    H144292   2.550   5.925  12.867  0.3296  0.3842  0.1107
 6699TIP3    H244293   2.700   5.939  12.864  0.3017  0.5176 -1.0618
 6700TIP3   OH244294   1.539   3.500  11.703  0.0538  0.0770  0.1280
 6700TIP3    H144295   1.484   3.506  11.781 -0.6102 -0.9059 -0.2337
 6700TIP3    H244296   1.501   3.427  11.653  0.2985  0.8565 -1.2444
 6701TIP3   OH244297   7.121   7.347  12.481  0.6440 -0.0795  0.3811
 6701TIP3    H144298   7.126   7.388  12.568 -1.8625  0.2146  0.4661
 6701TIP3    H244299   7.083   7.414  12.425 -0.8369 -1.2813 -0.1450
 6702TIP3   OH244300   0.141   6.477  11.780  0.2372 -0.2955  0.2119
 6702TIP3    H144301   0.122   6.569  11.760  1.1208  0.0486  0.8903
 6702TIP3    H244302   0.235   6.474  11.796  0.3283 -1.4569 -0.4514
 6703TIP3   OH244303   5.896   5.500  11.570 -0.0278 -0.4979  0.0587
 6703TIP3    H144304   5.886   5.463  11.482  1.3773 -1.9097  0.4501
 6703TIP3    H244305   5.945   5.581  11.556 -3.7583  1.8346 -0.8854
 6704TIP3   OH244306   1.163   6.483  11.046 -0.0536 -0.0017 -0.2383
 6704TIP3    H144307   1.168   6.576  11.066 -0.7355  0.2846 -1.3605
 6704TIP3    H244308   1.232   6.468  10.983  0.1522 -0.2961  0.0530
 6705TIP3   OH244309   2.177   1.023  11.587  0.4652  0.2381 -0.0073
 6705TIP3    H144310   2.254   0.968  11.571  1.3393  0.7743  2.0323
 6705TIP3    H244311   2.136   0.986  11.665 -0.8542  0.4995 -0.5532
 6706TIP3   OH244312   5.733   0.965  11.710  0.0154  0.2978 -0.1181
 6706TIP3    H144313   5.772   0.939  11.626  0.9486  0.5017  0.2309
 6706TIP3    H244314   5.639   0.956  11.697  0.1573  0.1047 -1.1131
 6707TIP3   OH244315   4.005   4.579  11.680  0.6127  0.1187  0.0774
 6707TIP3    H144316   4.035   4.668  11.660  3.4094 -0.6815  0.2711
 6707TIP3    H244317   3.913   4.589  11.703  0.6643  2.8492 -0.6059
 6708TIP3   OH244318   4.575   4.447  11.890  0.2130  0.5074  0.3151
 6708TIP3    H144319   4.636   4.519  11.903 -0.8349  2.0963 -2.7764
 6708TIP3    H244320   4.488   4.486  11.901 -0.3786 -0.2552 -1.4050
 6709TIP3   OH244321   7.492   3.482  13.093  0.4010  0.2131 -0.0566
 6709TIP3    H144322   7.470   3.517  13.179 -0.5688  0.5926 -0.4543
 6709TIP3    H244323   7.581   3.447  13.103 -0.2571 -1.1214  1.5140
 6710TIP3   OH244324   3.335   5.271  12.594 -0.0257  0.4188 -0.1076
 6710TIP3    H144325   3.404   5.321  12.638 -0.2023  0.4467  0.1390
 6710TIP3    H244326   3.263   5.332  12.585  0.5968  0.9377 -1.9738
 6711TIP3   OH244327   0.686   2.458  12.276  0.3513  0.2569 -0.0035
 6711TIP3    H144328   0.654   2.369  12.263  1.7101 -0.3839  0.8425
 6711TIP3    H244329   0.726   2.482  12.193  1.8838 -0.7731  0.3901
 6712TIP3   OH244330   3.830   7.563  11.031  0.3847  0.2035  0.6923
 6712TIP3    H144331   3.900   7.555  10.966 -0.9926  1.2709 -1.0329
 6712TIP3    H244332   3.796   7.652  11.018 -0.9986 -0.1378  1.7705
 6713TIP3   OH244333   5.883   3.202  12.326 -0.0066  0.2177 -0.1138
 6713TIP3    H144334   5.951   3.150  12.284  0.7021  0.7356  0.3673
 6713TIP3    H244335   5.905   3.293  12.303  0.0766  0.4649  0.9025
 6714TIP3   OH244336   2.565   2.669  12.534 -0.1377  0.2609  0.8700
 6714TIP3    H144337   2.654   2.649  12.507 -0.3342  0.1996  0.2422
 6714TIP3    H244338   2.574   2.716  12.617  0.6056  2.3298 -0.3233
 6715TIP3   OH244339   7.140   6.169  11.685 -0.0038  0.1980 -0.4399
 6715TIP3    H144340   7.123   6.090  11.633  0.8269  0.1253 -0.6185
 6715TIP3    H244341   7.075   6.167  11.755  0.7657 -1.2910  0.2731
 6716TIP3   OH244342   4.726   0.071  11.267 -0.0962 -0.0155 -0.0276
 6716TIP3    H144343   4.634   0.045  11.266 -0.2657  0.5637 -0.6013
 6716TIP3    H244344   4.730   0.144  11.205  0.5367  0.6634  0.7784
 6717TIP3   OH244345   0.781   6.829  11.871 -0.2872 -0.0098  0.6393
 6717TIP3    H144346   0.814   6.796  11.955  0.7557  0.1586  0.3172
 6717TIP3    H244347   0.709   6.887  11.895 -1.4086 -1.5952  1.2740
 6718TIP3   OH244348   4.512   4.001  11.778 -0.6304  0.3289  0.2424
 6718TIP3    H144349   4.507   3.965  11.689  1.2826  0.3019  0.1182
 6718TIP3    H244350   4.575   4.073  11.771 -0.7614  0.5813  1.5054
 6719TIP3   OH244351   2.681   4.227  12.526 -0.4606 -0.0052 -0.3625
 6719TIP3    H144352   2.647   4.181  12.603  0.8660 -1.4061 -0.5836
 6719TIP3    H244353   2.685   4.160  12.458  1.6159  0.3837 -0.6717
 6720TIP3   OH244354   5.872   2.542  11.021  0.7556  0.3007  0.6132
 6720TIP3    H144355   5.964   2.561  11.039  0.6160  0.3220  1.3107
 6720TIP3    H244356   5.828   2.626  11.034  0.6639  0.3394  0.0729
 6721TIP3   OH244357   5.594   5.418  12.947 -0.1075 -0.1641 -0.2112
 6721TIP3    H144358   5.505   5.438  12.975  0.7648  2.1097  1.2194
 6721TIP3    H244359   5.615   5.487  12.884  0.7364 -0.4993 -0.3106
 6722TIP3   OH244360   4.018   4.704  13.247  0.2855 -0.5082 -0.5349
 6722TIP3    H144361   3.968   4.637  13.201  0.0858 -2.1745  1.8631
 6722TIP3    H244362   3.979   4.706  13.335  0.5853  2.5026 -0.3829
 6723TIP3   OH244363   0.377   4.025  11.616  0.2557  0.3650  0.3331
 6723TIP3    H144364   0.288   4.000  11.589  0.0040  1.8922 -0.3549
 6723TIP3    H244365   0.388   4.114  11.583  2.0652  0.2030  0.3967
 6724TIP3   OH244366   2.167   1.120  11.884  0.3026  0.0643  0.5059
 6724TIP3    H144367   2.083   1.156  11.857  0.2293  0.0367  0.6895
 6724TIP3    H244368   2.157   1.106  11.978  0.9453  1.2293  0.7656
 6725TIP3   OH244369   4.473   3.079  12.499 -0.4864 -0.4792  0.6510
 6725TIP3    H144370   4.548   3.101  12.554  0.3951  0.1884 -0.7700
 6725TIP3    H244371   4.417   3.157  12.504 -0.2745 -0.3090  0.3933
 6726TIP3   OH244372   6.031   1.848  13.181  0.0970  0.4055 -0.0160
 6726TIP3    H144373   6.077   1.795  13.116 -0.1368 -2.2065  1.8078
 6726TIP3    H244374   5.950   1.800  13.199  0.1784  0.9636  2.2014
 6727TIP3   OH244375   2.003   2.624  13.248  0.0191 -0.4240 -0.2053
 6727TIP3    H144376   1.933   2.575  13.292 -1.2895  1.0183 -0.5943
 6727TIP3    H244377   2.082   2.602  13.297 -0.5780 -2.5439 -0.0985
 6728TIP3   OH244378   0.222   3.061  12.519 -0.1009  0.1354 -0.0698
 6728TIP3    H144379   0.141   3.069  12.468 -0.4349 -0.2477  0.3898
 6728TIP3    H244380   0.204   2.991  12.582  0.8622 -0.4888 -0.4669
 6729TIP3   OH244381   4.454   4.240  11.553 -0.2296 -0.1259  0.0104
 6729TIP3    H144382   4.380   4.294  11.580 -1.2821 -1.5604  0.1258
 6729TIP3    H244383   4.498   4.217  11.636 -0.4689 -0.3737  0.0725
 6730TIP3   OH244384   7.240   1.668  11.021 -0.6858 -0.2531 -0.0040
 6730TIP3    H144385   7.209   1.754  10.993  0.9579 -0.0434 -1.3312
 6730TIP3    H244386   7.333   1.681  11.040 -0.8507 -1.3279  1.6782
 6731TIP3   OH244387   1.575   3.179  11.311  0.4075  0.0769  0.3494
 6731TIP3    H144388   1.608   3.233  11.239 -1.3745  1.6310  0.6068
 6731TIP3    H244389   1.599   3.089  11.287  2.6000  0.8537 -0.5975
 6732TIP3   OH244390   1.085   0.437  10.570 -0.4334  0.4827  0.3021
 6732TIP3    H144391   1.022   0.415  10.638 -1.3252  0.8345 -0.3870
 6732TIP3    H244392   1.077   0.367  10.505  1.4256 -0.6263  1.1802
 6733TIP3   OH244393   5.933   6.220  11.254  0.8225 -0.4132 -0.0604
 6733TIP3    H144394   5.872   6.181  11.316 -2.3590  0.0941 -2.6295
 6733TIP3    H244395   5.922   6.314  11.265  0.4636 -0.3194 -1.1203
 6734TIP3   OH244396   0.083   0.719  10.830  0.3541  0.1674 -0.4859
 6734TIP3    H144397   0.097   0.690  10.741 -0.4960 -0.1294 -0.5305
 6734TIP3    H244398   0.003   0.674  10.858 -1.3639  2.8030 -0.7594
 6735TIP3   OH244399   2.519   4.121  12.711  0.6099 -0.1759  0.1346
 6735TIP3    H144400   2.504   4.116  12.806  1.0894 -0.3865  0.1983
 6735TIP3    H244401   2.431   4.118  12.674  0.4589 -1.3448  0.5195
 6736TIP3   OH244402   0.045   2.722  11.422 -0.0598 -0.0643  0.0236
 6736TIP3    H144403  -0.011   2.766  11.486  0.5219 -0.4234  0.7975
 6736TIP3    H244404   0.134   2.750  11.445  0.1838 -0.4973 -0.3837
 6737TIP3   OH244405   3.118   6.125  13.038 -0.2302  0.2612 -0.3373
 6737TIP3    H144406   3.100   6.112  13.131  2.5338 -1.7388  0.0316
 6737TIP3    H244407   3.161   6.211  13.034 -1.8844  1.1395 -0.0752
 6738TIP3   OH244408   3.671   4.893  12.760  0.4694  0.0484  0.6379
 6738TIP3    H144409   3.716   4.843  12.829 -0.6829  0.4515  1.7277
 6738TIP3    H244410   3.729   4.967  12.743  0.1472  0.7017  2.2048
 6739TIP3   OH244411   0.404   7.473  11.370  0.3610  0.2005 -0.1886
 6739TIP3    H144412   0.338   7.470  11.301 -0.3006 -1.3650  0.4813
 6739TIP3    H244413   0.442   7.561  11.362  0.3201  0.0881 -2.5254
 6740TIP3   OH244414   0.248   2.502  11.495  0.1558  0.2258 -0.4364
 6740TIP3    H144415   0.259   2.596  11.508  1.8887 -0.1052  0.8629
 6740TIP3    H244416   0.167   2.480  11.541 -1.1689  1.2892 -2.1218
 6741TIP3   OH244417   7.602   1.789  12.883  0.5217  0.0428  0.0173
 6741TIP3    H144418   7.675   1.778  12.944 -0.4433  0.4808  1.2873
 6741TIP3    H244419   7.538   1.841  12.931 -0.4789 -0.0059 -1.2101
 6742TIP3   OH244420   5.413   0.853  13.147  0.1582  0.3727 -1.0348
 6742TIP3    H144421   5.473   0.925  13.163  0.8446 -0.1725 -1.1273
 6742TIP3    H244422   5.456   0.800  13.080 -1.2427  0.9443 -2.4568
 6743TIP3   OH244423   4.390   1.001  10.661 -0.1463 -0.0976  0.1289
 6743TIP3    H144424   4.460   1.036  10.605  2.3258 -0.4784  2.7817
 6743TIP3    H244425   4.349   1.078  10.699  1.2203  0.1029  1.2549
 6744TIP3   OH244426   5.423   2.872  11.723  0.0339 -0.4099 -0.7906
 6744TIP3    H144427   5.453   2.820  11.648  0.8248 -1.8049  0.4338
 6744TIP3    H244428   5.350   2.821  11.760 -0.9301  0.7027 -1.0838
 6745TIP3   OH244429   3.742   5.696  11.111  0.1729  0.3453  0.1896
 6745TIP3    H144430   3.672   5.633  11.093  0.9190 -0.5324  0.2657
 6745TIP3    H244431   3.816   5.665  11.058  0.9042  0.5002  1.0943
 6746TIP3   OH244432   1.892   1.279  11.145  0.0895  0.2260  0.5620
 6746TIP3    H144433   1.879   1.270  11.051  0.0056  2.4379  0.3025
 6746TIP3    H244434   1.938   1.200  11.171 -0.9969 -1.0079 -1.0995
 6747TIP3   OH244435   4.729   1.389  10.967 -0.1389  0.2746  0.7266
 6747TIP3    H144436   4.822   1.381  10.943 -0.4302 -1.4313  0.0425
 6747TIP3    H244437   4.721   1.340  11.048 -0.5075  0.1635  0.6217
 6748TIP3   OH244438   0.723   4.336  10.879 -0.4918 -0.2638  0.6803
 6748TIP3    H144439   0.724   4.427  10.909 -0.7742 -0.1501  0.3453
 6748TIP3    H244440   0.755   4.340  10.789  0.0861 -0.5715  0.8661
 6749TIP3   OH244441   7.272   1.907  12.232 -0.6838  0.7130  0.2010
 6749TIP3    H144442   7.271   1.923  12.138 -0.8950  1.2520  0.2919
 6749TIP3    H244443   7.192   1.948  12.265 -1.6168 -1.1080  0.3630
 6750TIP3   OH244444   0.073   0.171  12.830  0.0243 -0.0044 -0.1820
 6750TIP3    H144445   0.104   0.095  12.879 -1.2711 -1.6647 -1.7898
 6750TIP3    H244446   0.085   0.146  12.738 -1.0495  1.4743 -0.7466
 6751TIP3   OH244447   3.491   0.135  12.799  0.5017  0.1829  0.0256
 6751TIP3    H144448   3.493   0.121  12.704  0.8024  1.9118 -0.2637
 6751TIP3    H244449   3.422   0.200  12.812  1.2619  0.8531  0.8466
 6752TIP3   OH244450   4.808   5.628  11.249  0.4370  0.8400 -0.6340
 6752TIP3    H144451   4.896   5.648  11.280  0.8928 -1.2706 -0.4110
 6752TIP3    H244452   4.763   5.713  11.248  2.7268  2.1274 -1.7169
 6753TIP3   OH244453   6.409   7.524  12.828  0.0990  0.2832 -0.6989
 6753TIP3    H144454   6.435   7.515  12.920 -0.6985  0.4233 -0.4553
 6753TIP3    H244455   6.334   7.466  12.818  0.1038  0.3642 -1.2304
 6754TIP3   OH244456   2.892   1.470  12.318 -0.1696 -0.5232  0.0695
 6754TIP3    H144457   2.909   1.413  12.393 -0.1816  0.0232  0.4954
 6754TIP3    H244458   2.836   1.539  12.353  0.8500  0.4349 -0.1363
 6755TIP3   OH244459   4.201   5.880  12.329 -0.0403 -0.2058 -0.6945
 6755TIP3    H144460   4.146   5.869  12.251  0.3625  2.4529 -1.4480
 6755TIP3    H244461   4.172   5.962  12.368  1.1894 -0.4255  0.7819
 6756TIP3   OH244462   3.944   4.057  12.575  0.1268 -0.1248 -0.0653
 6756TIP3    H144463   4.030   4.097  12.567  0.4183 -0.9816 -1.9496
 6756TIP3    H244464   3.917   4.042  12.484 -1.5887 -0.7537  0.5137
 6757TIP3   OH244465   1.147   4.598  10.810  0.3096 -0.5996 -0.0390
 6757TIP3    H144466   1.130   4.504  10.816  1.0310 -0.6493  1.8439
 6757TIP3    H244467   1.087   4.628  10.742 -2.9031 -1.7670  2.0322
 6758TIP3   OH244468   4.407   5.336  13.005  0.0792  0.4464  0.1628
 6758TIP3    H144469   4.425   5.299  12.918 -0.8774  0.3691 -0.0100
 6758TIP3    H244470   4.489   5.324  13.053  0.7985  0.9650 -0.8850
 6759TIP3   OH244471   3.332   3.873  12.948 -0.0545  0.0165  0.6987
 6759TIP3    H144472   3.284   3.791  12.946 -2.1309  1.1808  0.4326
 6759TIP3    H244473   3.412   3.855  12.899 -0.6105 -1.7478  0.3761
 6760TIP3   OH244474   7.565   3.806  11.382  0.0878 -0.0787 -0.8570
 6760TIP3    H144475   7.656   3.833  11.368  0.5522 -0.8688  0.4624
 6760TIP3    H244476   7.558   3.721  11.339  0.0879 -0.1980 -0.6224
 6761TIP3   OH244477   7.654   1.190  12.338  0.3430  0.0255  0.2487
 6761TIP3    H144478   7.618   1.140  12.265  1.3124  1.0167 -0.9682
 6761TIP3    H244479   7.748   1.169  12.338  0.7051  1.4971 -0.0684
 6762TIP3   OH244480   0.629   3.686  12.311 -0.7451 -0.3424 -0.6867
 6762TIP3    H144481   0.587   3.613  12.266 -0.9621  0.6770 -2.2530
 6762TIP3    H244482   0.557   3.740  12.343 -0.5980 -1.4148  1.6010
 6763TIP3   OH244483   5.978   2.556  10.398 -0.0234  0.5616  0.1919
 6763TIP3    H144484   6.004   2.611  10.325 -1.3294  0.8130 -0.1060
 6763TIP3    H244485   6.040   2.578  10.468 -0.2384  2.0947 -0.0616
 6764TIP3   OH244486   0.723   3.357  13.131 -0.6928  0.2077 -0.3261
 6764TIP3    H144487   0.650   3.298  13.150 -0.4763 -0.0648 -0.3313
 6764TIP3    H244488   0.778   3.353  13.209 -0.8347  0.6422 -0.2022
 6765TIP3   OH244489   7.471   0.520  12.692  0.0777 -0.3054 -0.0261
 6765TIP3    H144490   7.541   0.455  12.683  0.3672  0.0283 -0.2051
 6765TIP3    H244491   7.463   0.559  12.605 -0.5158 -0.5261 -0.0752
 6766TIP3   OH244492   0.277   0.151  13.109 -0.0667  0.1979 -0.0843
 6766TIP3    H144493   0.370   0.175  13.102 -0.2333  0.8407 -0.1886
 6766TIP3    H244494   0.272   0.099  13.189  0.3340  0.4273  0.0957
 6767TIP3   OH244495   7.326   5.104  10.463 -0.3367  0.0334  0.1291
 6767TIP3    H144496   7.400   5.044  10.465  0.0830  0.5433  2.0937
 6767TIP3    H244497   7.256   5.054  10.422  0.4856 -1.2035  0.1786
 6768TIP3   OH244498   3.609   6.265  10.807 -0.1614 -0.4127  0.2309
 6768TIP3    H144499   3.689   6.266  10.858  0.4221 -0.5813 -0.6646
 6768TIP3    H244500   3.614   6.344  10.753 -1.7281  0.8814  1.8473
 6769TIP3   OH244501   5.316   1.013  10.693 -0.0069 -0.0045 -0.4855
 6769TIP3    H144502   5.249   0.997  10.626  0.1078 -0.7848 -0.4259
 6769TIP3    H244503   5.300   0.946  10.759  0.1505  0.4966  0.0633
 6770TIP3   OH244504   0.096   0.925  11.307 -0.4845  0.3183 -0.7416
 6770TIP3    H144505   0.033   0.881  11.364  1.5929 -1.0890  0.6526
 6770TIP3    H244506   0.110   0.864  11.235  0.2075 -0.0005 -0.3536
 6771TIP3   OH244507   3.290   5.994  11.655  0.3996  0.1002  0.2617
 6771TIP3    H144508   3.378   6.006  11.690  0.1626 -1.9448  1.7330
 6771TIP3    H244509   3.300   5.926  11.588  0.1684  1.0339 -0.7521
 6772TIP3   OH244510   5.497   1.294  12.730 -0.2054  0.1827 -0.1735
 6772TIP3    H144511   5.460   1.252  12.808  0.4623 -0.1136 -0.0117
 6772TIP3    H244512   5.592   1.285  12.740 -0.0844  0.9114 -0.5995
 6773TIP3   OH244513   4.101   5.600  11.802 -0.1648 -0.2818 -0.3752
 6773TIP3    H144514   4.123   5.539  11.732 -1.1067  0.3869 -1.2818
 6773TIP3    H244515   4.186   5.635  11.830  0.1418  1.0609 -2.6896
 6774TIP3   OH244516   4.531   7.255  11.624  0.3869  0.0211  0.3540
 6774TIP3    H144517   4.496   7.275  11.711  1.6714 -0.7920  1.0854
 6774TIP3    H244518   4.552   7.341  11.587  1.3128  0.3134  1.4923
 6775TIP3   OH244519   2.313   1.381  11.147 -0.4673 -0.1192  0.3697
 6775TIP3    H144520   2.396   1.430  11.141 -0.6703  0.1051 -1.2325
 6775TIP3    H244521   2.252   1.431  11.092 -1.3836 -0.8415  0.7054
 6776TIP3   OH244522   6.401   3.280  10.888 -0.1828  0.4748 -0.6100
 6776TIP3    H144523   6.402   3.294  10.793 -1.3309 -0.7014 -0.8233
 6776TIP3    H244524   6.363   3.193  10.899 -1.5287  1.2138  0.9837
 6777TIP3   OH244525   4.944   5.630  12.014 -0.2044  0.5457  0.3298
 6777TIP3    H144526   4.970   5.716  12.048 -1.3073  0.7591  0.6847
 6777TIP3    H244527   4.940   5.642  11.919  1.4690  0.3537  0.2149
 6778TIP3   OH244528   6.921   1.945  10.747 -0.1312 -0.2433 -0.9778
 6778TIP3    H144529   6.845   1.940  10.805  0.9057 -3.0274  0.3367
 6778TIP3    H244530   6.891   1.905  10.665  0.0034 -1.8987 -0.2631
 6779TIP3   OH244531   7.695   5.834  10.785  0.4329  0.6181 -0.4619
 6779TIP3    H144532   7.659   5.802  10.867 -0.0843  0.1184 -0.8759
 6779TIP3    H244533   7.620   5.844  10.727  1.0742 -2.9373 -2.1969
 6780TIP3   OH244534   3.718   1.852  11.552 -0.0287  0.3076 -0.3045
 6780TIP3    H144535   3.625   1.839  11.568  0.1739 -0.1932  0.5469
 6780TIP3    H244536   3.750   1.898  11.630  1.0104 -2.2873  0.9245
 6781TIP3   OH244537   5.801   7.584  10.681  0.0071 -0.1281  0.3846
 6781TIP3    H144538   5.812   7.645  10.754 -2.4437  0.7001  0.1724
 6781TIP3    H244539   5.888   7.576  10.643  0.3474  4.4107 -0.4344
 6782TIP3   OH244540   1.341   2.745  12.002  0.3031 -0.6936  0.1122
 6782TIP3    H144541   1.406   2.744  11.932  1.6106 -0.1275  1.2727
 6782TIP3    H244542   1.349   2.660  12.044  0.0214 -0.7675  0.0165
 6783TIP3   OH244543   5.589   7.163  10.484 -0.4129  0.3099  0.3678
 6783TIP3    H144544   5.500   7.184  10.455 -1.0585 -1.5821  0.7943
 6783TIP3    H244545   5.641   7.240  10.461 -2.0295  1.1987 -0.4917
 6784TIP3   OH244546   7.076   4.941  11.421 -0.1565  0.2605  0.6059
 6784TIP3    H144547   7.063   5.022  11.470 -0.0231  1.0184 -0.5487
 6784TIP3    H244548   7.071   4.872  11.486  0.9515  1.2709  1.8263
 6785TIP3   OH244549   7.351   1.071  11.637  0.1122  0.2782 -0.3950
 6785TIP3    H144550   7.263   1.042  11.658 -0.1020  0.5286 -0.9259
 6785TIP3    H244551   7.368   1.144  11.698  0.2912 -0.3220  0.2903
 6786TIP3   OH244552   0.976   1.138  11.225 -0.0505 -0.2727 -0.1555
 6786TIP3    H144553   0.910   1.180  11.169 -1.6808 -1.2488  0.9343
 6786TIP3    H244554   0.944   1.152  11.314  1.2018 -0.8432  0.4115
 6787TIP3   OH244555   3.817   1.508  12.555 -0.4124  0.7378  0.0863
 6787TIP3    H144556   3.851   1.519  12.466  1.1366  0.8520  0.6534
 6787TIP3    H244557   3.758   1.582  12.568 -1.6726  0.0249 -1.2598
 6788TIP3   OH244558   7.295   7.133  12.634  0.4373 -0.3564 -0.5856
 6788TIP3    H144559   7.340   7.207  12.595 -0.2862 -0.9007 -2.5531
 6788TIP3    H244560   7.269   7.164  12.721  0.6451  1.4786 -1.1362
 6789TIP3   OH244561   1.438   6.019  12.136  0.3069 -0.3987  0.0787
 6789TIP3    H144562   1.473   6.108  12.135 -0.0132 -0.2270  1.4527
 6789TIP3    H244563   1.350   6.028  12.098  0.0083  0.0164  0.8413
 6790TIP3   OH244564   2.573   7.593  12.922  0.0983  0.1148 -0.5931
 6790TIP3    H144565   2.586   7.498  12.916  0.1160 -0.1799  2.6335
 6790TIP3    H244566   2.649   7.625  12.970 -1.3547  1.2950  1.0139
 6791TIP3   OH244567   5.014   3.246  10.713  0.5244  0.3295  0.4695
 6791TIP3    H144568   5.096   3.236  10.762  0.4966 -0.9120  0.2775
 6791TIP3    H244569   5.013   3.172  10.652  0.0504  1.2708 -0.6980
 6792TIP3   OH244570   6.124   4.976  10.582 -0.2401 -0.3451  0.6703
 6792TIP3    H144571   6.114   4.925  10.502 -2.3096  1.4304 -0.3149
 6792TIP3    H244572   6.219   4.990  10.591  0.1272 -1.9036 -0.5680
 6793TIP3   OH244573   6.053   3.181  11.322  0.1454  0.3343 -0.3683
 6793TIP3    H144574   6.002   3.101  11.309  0.3296 -0.0397  1.0570
 6793TIP3    H244575   6.134   3.166  11.274 -0.0123 -0.1460 -0.4851
 6794TIP3   OH244576   1.709   4.399  12.532 -0.7133 -0.0907  0.1556
 6794TIP3    H144577   1.762   4.331  12.491  0.1849 -0.3073  1.5717
 6794TIP3    H244578   1.625   4.357  12.549 -1.2146  0.1007 -1.6657
 6795TIP3   OH244579   5.006   5.936  11.048 -0.5271 -0.1941  0.0600
 6795TIP3    H144580   4.927   5.885  11.029 -1.4443  1.2410 -0.1156
 6795TIP3    H244581   4.983   5.988  11.125  0.4963 -0.2528  0.4208
 6796TIP3   OH244582   4.414   3.537  12.223 -0.4231  0.5155  0.4576
 6796TIP3    H144583   4.508   3.553  12.214 -0.2248 -0.7007  0.2307
 6796TIP3    H244584   4.398   3.546  12.317 -0.1574  1.0799  0.4549
 6797TIP3   OH244585   2.589   1.123  11.144 -0.2873  0.0171  0.2131
 6797TIP3    H144586   2.535   1.174  11.084  0.8644  1.0935  0.0481
 6797TIP3    H244587   2.560   1.148  11.231  0.3668  1.0975  0.1363
 6798TIP3   OH244588   3.608   6.401  11.316 -0.0925  0.1374  0.0450
 6798TIP3    H144589   3.515   6.390  11.335 -0.8382  2.8525 -1.4213
 6798TIP3    H244590   3.625   6.343  11.242 -0.6632 -0.2461  0.2110
 6799TIP3   OH244591   6.139   0.669  12.449  0.0129  0.3502  0.4504
 6799TIP3    H144592   6.226   0.702  12.425  2.1258 -5.4531 -1.7596
 6799TIP3    H244593   6.146   0.650  12.543  0.8415  0.7631  0.4834
 6800TIP3   OH244594   2.014   1.667  11.201 -0.1007 -0.0906  0.6351
 6800TIP3    H144595   2.102   1.703  11.210  0.6699 -2.1738  2.6242
 6800TIP3    H244596   2.008   1.637  11.110  1.0659  0.4944  0.3582
 6801TIP3   OH244597   4.059   3.732  10.811 -0.5146 -0.6591  0.1489
 6801TIP3    H144598   3.982   3.734  10.868  0.4050  0.3773  1.4281
 6801TIP3    H244599   4.072   3.823  10.785  0.6295 -0.7064  0.4763
 6802TIP3   OH244600   5.995   0.393  12.604  0.0875 -0.0199  0.2368
 6802TIP3    H144601   6.042   0.448  12.667  2.5551 -1.8761  0.1708
 6802TIP3    H244602   5.912   0.372  12.647  0.6426  0.8020  1.7765
 6803TIP3   OH244603   4.169   5.246  10.757  0.0492  0.4498 -0.1682
 6803TIP3    H144604   4.217   5.323  10.788 -0.1208  0.8854 -0.9542
 6803TIP3    H244605   4.193   5.238  10.664 -0.0269 -0.3722 -0.1214
 6804TIP3   OH244606   0.796   5.328  12.851 -0.2646  0.5837 -0.2737
 6804TIP3    H144607   0.823   5.239  12.876 -1.1209 -0.5067 -2.8882
 6804TIP3    H244608   0.703   5.320  12.830 -1.2747  2.9298  2.6587
 6805TIP3   OH244609   5.917   7.412  10.166  0.3605  0.2352 -0.1349
 6805TIP3    H144610   5.824   7.406  10.188  0.0848  0.9914 -1.0644
 6805TIP3    H244611   5.946   7.320  10.162 -0.4372 -0.0182 -0.2496
 6806TIP3   OH244612   3.360   4.576  12.109  0.0509 -0.4061  0.8864
 6806TIP3    H144613   3.302   4.652  12.100  0.6972  0.2003  1.6358
 6806TIP3    H244614   3.340   4.521  12.034  1.4311  1.7558 -1.2049
 6807TIP3   OH244615   1.251   5.385  12.447 -0.2954 -0.1422 -0.2699
 6807TIP3    H144616   1.263   5.332  12.368 -1.3812  0.5452 -0.9170
 6807TIP3    H244617   1.157   5.382  12.464  0.0338 -1.0796  1.5818
 6808TIP3   OH244618   3.163   5.281  10.720  0.0560  0.2314 -0.0569
 6808TIP3    H144619   3.156   5.237  10.636  0.0978  1.1725 -0.5595
 6808TIP3    H244620   3.074   5.305  10.743 -0.0894 -0.8860  0.6602
 6809TIP3   OH244621   5.959   5.890  12.229 -0.4781  0.0549 -0.0191
 6809TIP3    H144622   5.979   5.836  12.305 -0.9727 -1.0033 -0.6183
 6809TIP3    H244623   6.040   5.937  12.211 -0.2456  0.0352  0.9278
 6810TIP3   OH244624   0.489   1.221  12.760 -0.2007 -0.0150  0.4928
 6810TIP3    H144625   0.513   1.163  12.688 -0.4155  0.2513  0.2073
 6810TIP3    H244626   0.430   1.169  12.814  0.0350 -0.2473  0.5337
 6811TIP3   OH244627   0.617   0.483  11.470 -0.3039  0.2701  0.6721
 6811TIP3    H144628   0.644   0.562  11.516  0.8362 -0.1034  0.6833
 6811TIP3    H244629   0.526   0.469  11.496 -0.8093  2.0361  0.0104
 6812TIP3   OH244630   7.138   2.087  11.680  0.6758 -0.3098 -0.0640
 6812TIP3    H144631   7.054   2.057  11.646  1.6281 -0.3699 -2.5713
 6812TIP3    H244632   7.146   2.043  11.765 -0.3045 -3.1058 -1.2805
 6813TIP3   OH244633   1.450   1.764  10.506 -0.3316 -0.2697 -0.0105
 6813TIP3    H144634   1.488   1.818  10.436 -0.1203  1.1507  1.1612
 6813TIP3    H244635   1.357   1.783  10.504 -0.2094  0.4443  0.6335
 6814TIP3   OH244636   1.046   6.905  13.388  0.0994 -0.9329 -0.8456
 6814TIP3    H144637   1.111   6.840  13.360 -1.0221 -1.4521 -2.3537
 6814TIP3    H244638   0.970   6.854  13.414  1.0465 -0.4974  3.4913
 6815TIP3   OH244639   6.606   4.569  10.178  0.0386  0.3754 -0.3516
 6815TIP3    H144640   6.669   4.530  10.118 -0.3760  0.2091 -0.6886
 6815TIP3    H244641   6.655   4.583  10.259  0.7717  1.1834 -0.9178
 6816TIP3   OH244642   1.621   1.841  11.835  0.0399  0.1505  0.6022
 6816TIP3    H144643   1.582   1.796  11.761 -1.4833  0.2111  1.3332
 6816TIP3    H244644   1.673   1.912  11.796  0.9883 -1.0796 -0.4665
 6817TIP3   OH244645   3.018   3.424  12.077  0.1281 -0.4966 -0.2170
 6817TIP3    H144646   3.070   3.461  12.150  0.2716 -1.3457  0.1246
 6817TIP3    H244647   2.928   3.450  12.097  0.4584  1.6852 -1.2349
 6818TIP3   OH244648   0.817   3.966  11.214 -0.1295 -0.0872  0.3559
 6818TIP3    H144649   0.887   3.913  11.176  0.2304  1.8311 -1.8485
 6818TIP3    H244650   0.828   4.053  11.175 -2.9254  0.6575  0.9821
 6819TIP3   OH244651   4.479   1.906  12.680  0.4264 -0.0239  0.0040
 6819TIP3    H144652   4.574   1.910  12.672  0.6623 -0.8800  1.9390
 6819TIP3    H244653   4.451   1.998  12.676  1.5912  0.4588  1.7429
 6820TIP3   OH244654   3.488   5.123  10.936 -0.3365  0.4304 -0.6373
 6820TIP3    H144655   3.400   5.112  10.972  0.1979  1.6082  1.1575
 6820TIP3    H244656   3.485   5.208  10.892  0.0431  0.7312 -0.0879
 6821TIP3   OH244657   2.541   4.003  11.322 -0.3333  0.5865  0.2799
 6821TIP3    H144658   2.544   4.087  11.277  0.3067  0.7675  0.6397
 6821TIP3    H244659   2.620   4.002  11.376 -0.7484  0.0954  0.8945
 6822TIP3   OH244660   6.767   1.859  12.853  0.4202  0.0074 -0.2483
 6822TIP3    H144661   6.724   1.911  12.920 -0.7968  0.7145 -1.5121
 6822TIP3    H244662   6.794   1.779  12.898 -0.5456  0.3659  1.0224
 6823TIP3   OH244663   2.011   5.227  11.543 -0.1425 -0.0857  0.0175
 6823TIP3    H144664   1.942   5.161  11.532 -1.8667  1.6374 -0.1695
 6823TIP3    H244665   2.052   5.205  11.627  0.6652 -2.4828 -0.9157
 6824TIP3   OH244666   6.685   3.518  18.581  0.0349  0.0636  0.0304
 6824TIP3    H144667   6.658   3.556  18.665  1.9551 -0.7083  1.0504
 6824TIP3    H244668   6.641   3.572  18.515 -2.1065  0.2532  1.4993
 6825TIP3   OH244669   6.005   0.706  11.959 -0.0497 -0.3212 -0.3065
 6825TIP3    H144670   5.996   0.709  12.055  1.3601  0.1287 -0.1629
 6825TIP3    H244671   5.965   0.788  11.929  1.6297  0.7159  0.1343
 6826TIP3   OH244672   4.145   4.834  13.011  0.3271  0.5056 -0.3848
 6826TIP3    H144673   4.096   4.802  13.087 -1.2167  0.2054 -1.4473
 6826TIP3    H244674   4.133   4.766  12.945  1.8497  0.6408 -0.8361
 6827TIP3   OH244675   3.638   7.148  12.650  0.1975  0.1079 -0.4778
 6827TIP3    H144676   3.685   7.077  12.694 -2.1250 -0.7719  0.7800
 6827TIP3    H244677   3.633   7.218  12.715  1.2803  0.9243 -1.2399
 6828TIP3   OH244678   4.921   7.249  11.380  0.0825 -0.7851 -0.0289
 6828TIP3    H144679   4.994   7.203  11.339  0.3368 -1.7606  1.4235
 6828TIP3    H244680   4.843   7.210  11.342  0.2516  0.5950 -1.9526
 6829TIP3   OH244681   5.738   0.659  12.420 -0.2139 -0.1668  0.1604
 6829TIP3    H144682   5.695   0.745  12.426  0.9782  0.4738 -0.2105
 6829TIP3    H244683   5.732   0.623  12.509 -2.9647 -0.8646 -0.2023
 6830TIP3   OH244684   7.446   2.379  10.552 -0.2543 -0.2943 -0.0519
 6830TIP3    H144685   7.474   2.443  10.487  0.1213 -0.1280  0.2702
 6830TIP3    H244686   7.486   2.408  10.634  0.2283 -1.1463  0.0251
 6831TIP3   OH244687   5.969   5.381  12.873  0.2839  0.5110 -0.3264
 6831TIP3    H144688   6.045   5.439  12.884 -0.2319  0.9535  1.0223
 6831TIP3    H244689   5.966   5.330  12.953 -1.5522  1.3687  0.2069
 6832TIP3   OH244690   0.440   4.243  11.011  0.5177  0.1559  0.1416
 6832TIP3    H144691   0.389   4.321  11.030 -0.9745 -0.4963 -1.0139
 6832TIP3    H244692   0.518   4.276  10.967  0.3388  1.0474  0.4737
 6833TIP3   OH244693   7.270   5.007  12.641 -0.5970 -0.6436 -0.1202
 6833TIP3    H144694   7.334   5.078  12.654 -1.6013 -0.0814  2.0972
 6833TIP3    H244695   7.322   4.927  12.651  0.4196 -0.2995 -2.0028
 6834TIP3   OH244696   2.924   0.357  11.265  0.5537  0.1454  0.0052
 6834TIP3    H144697   2.868   0.391  11.335  0.7904  0.9711 -0.1922
 6834TIP3    H244698   3.012   0.386  11.289  1.0445 -1.7891  0.7113
 6835TIP3   OH244699   4.793   3.504  12.936 -0.6676  0.1455 -0.3502
 6835TIP3    H144700   4.728   3.462  12.990  0.4936 -0.3409  0.7097
 6835TIP3    H244701   4.793   3.454  12.854 -0.5701 -0.7881  0.2121
 6836TIP3   OH244702   3.009   4.128  11.526 -0.3169 -0.1157 -0.5153
 6836TIP3    H144703   3.013   4.033  11.517 -1.7651 -0.1923 -0.7148
 6836TIP3    H244704   2.915   4.147  11.529 -0.0419  1.2457  0.2484
 6837TIP3   OH244705   5.000   2.593  13.038  0.3678  0.2388  0.7584
 6837TIP3    H144706   4.949   2.512  13.037 -0.3941  0.5790 -3.0135
 6837TIP3    H244707   5.078   2.572  13.089  0.7586 -3.3079 -1.0170
 6838TIP3   OH244708   3.842   7.127  13.105  0.6195  0.2645  0.5799
 6838TIP3    H144709   3.886   7.043  13.090 -0.6770 -0.2090 -0.8044
 6838TIP3    H244710   3.906   7.193  13.079  1.0023 -0.3620 -0.0947
 6839TIP3   OH244711   4.387   3.351  11.556  0.0732 -0.1541  0.1855
 6839TIP3    H144712   4.430   3.436  11.547  1.1992 -0.5696  1.4820
 6839TIP3    H244713   4.382   3.318  11.466 -1.0498  1.5641 -0.4500
 6840TIP3   OH244714   1.387   5.679  12.783  0.3158  0.0133 -0.0097
 6840TIP3    H144715   1.301   5.644  12.760 -1.3681  3.3626  0.5645
 6840TIP3    H244716   1.402   5.648  12.873  0.8032 -2.3490 -0.8406
 6841TIP3   OH244717   3.969   2.717  11.198 -0.5342  0.0776 -0.2916
 6841TIP3    H144718   3.908   2.691  11.267 -1.7390  0.9505 -0.9793
 6841TIP3    H244719   3.946   2.661  11.124  0.6762 -0.7771 -0.0337
 6842TIP3   OH244720   6.395   3.804  13.124  0.2871 -0.4052 -0.1663
 6842TIP3    H144721   6.369   3.893  13.148  0.1192 -0.0814 -1.4718
 6842TIP3    H244722   6.319   3.768  13.078  0.8564 -0.7176 -0.8823
 6843TIP3   OH244723   4.452   7.226  12.512 -0.3118 -0.4369 -0.2497
 6843TIP3    H144724   4.459   7.321  12.502 -1.4426 -0.2606  0.4311
 6843TIP3    H244725   4.527   7.202  12.567 -0.4800  0.1955  0.2704
 6844TIP3   OH244726   4.083   6.381  12.545  0.2565  0.1796  0.2188
 6844TIP3    H144727   4.094   6.331  12.625 -3.6370 -0.2812  0.6576
 6844TIP3    H244728   4.107   6.471  12.569  2.9764 -0.5928  0.6681
 6845TIP3   OH244729   0.123   4.805  11.595  0.2218 -0.0923  0.2937
 6845TIP3    H144730   0.045   4.754  11.613  0.3954 -0.6579 -0.5172
 6845TIP3    H244731   0.137   4.857  11.674 -1.4889  0.6987  0.1079
 6846TIP3   OH244732   7.453   0.464  12.274 -0.0577 -0.2167  0.1782
 6846TIP3    H144733   7.375   0.468  12.219 -0.9920 -0.5597  1.4204
 6846TIP3    H244734   7.509   0.399  12.232 -0.3480  0.1799 -0.8408
 6847TIP3   OH244735   2.184   1.082  13.096 -0.0837  0.3186 -0.6894
 6847TIP3    H144736   2.210   1.126  13.176 -2.5667  0.2335  0.2403
 6847TIP3    H244737   2.204   0.990  13.111 -0.7006  0.2774 -0.0596
 6848TIP3   OH244738   0.685   7.082  11.425  0.6965 -0.0979 -0.5033
 6848TIP3    H144739   0.688   7.014  11.492  1.4184 -2.5451 -2.8401
 6848TIP3    H244740   0.605   7.130  11.444 -1.1406 -3.0628 -0.0056
 6849TIP3   OH244741   1.390   1.185  11.320  0.6608  0.1299 -0.5444
 6849TIP3    H144742   1.374   1.165  11.412 -1.1896 -1.1585 -1.0877
 6849TIP3    H244743   1.478   1.151  11.303 -0.0034 -2.1196  0.1308
 6850TIP3   OH244744   1.336   2.801  11.501  0.1910  0.0332  0.3281
 6850TIP3    H144745   1.315   2.733  11.565  1.6077  0.0266  0.8325
 6850TIP3    H244746   1.420   2.774  11.465  0.5486  1.2701  0.1894
 6851TIP3   OH244747   5.304   2.589  10.888 -0.5448 -0.3428 -0.3445
 6851TIP3    H144748   5.333   2.608  10.977  1.5593 -1.2703 -0.7770
 6851TIP3    H244749   5.350   2.653  10.833  0.8864 -1.9026 -1.0637
 6852TIP3   OH244750   4.998   5.265  12.085 -0.4481 -0.1499 -0.0523
 6852TIP3    H144751   4.936   5.315  12.033 -0.0452 -0.0830 -0.4759
 6852TIP3    H244752   4.948   5.189  12.116 -0.9067  0.2254  0.1334
 6853TIP3   OH244753   7.149   0.574  12.605  0.7013  0.3902 -0.5481
 6853TIP3    H144754   7.155   0.595  12.698  1.9440  0.6595 -0.6699
 6853TIP3    H244755   7.232   0.603  12.569 -0.4480  2.0207 -2.1023
 6854TIP3   OH244756   7.320   3.727  13.037 -0.3336  0.2348 -0.4021
 6854TIP3    H144757   7.279   3.743  13.122  0.4111  0.0351  0.0081
 6854TIP3    H244758   7.397   3.785  13.037 -0.5936  0.5916 -1.1447
 6855TIP3   OH244759   3.848   1.172  12.432 -0.0840  0.3892 -0.1156
 6855TIP3    H144760   3.778   1.147  12.371 -0.4766  2.0448 -0.3963
 6855TIP3    H244761   3.916   1.211  12.377  0.3273  0.3214  0.3330
 6856TIP3   OH244762   3.993   0.854  11.694  0.1135  0.1546  0.3034
 6856TIP3    H144763   3.959   0.859  11.783  0.4018 -0.7692  0.4735
 6856TIP3    H244764   3.918   0.825  11.642 -0.7338  2.9217 -0.1928
 6857TIP3   OH244765   0.280   1.657  10.829 -0.0369  0.5183  0.3183
 6857TIP3    H144766   0.196   1.696  10.804 -0.3695 -0.3828 -0.0135
 6857TIP3    H244767   0.330   1.653  10.747 -0.5394 -1.0083  0.0572
 6858TIP3   OH244768   5.911   0.096  11.594  0.6591 -0.1566 -0.1925
 6858TIP3    H144769   5.846   0.031  11.618 -0.9093  1.0301 -1.0464
 6858TIP3    H244770   5.954   0.060  11.517 -0.7181  0.1259 -1.1168
 6859TIP3   OH244771   6.477   0.265  12.409 -0.0975  0.0792  0.1060
 6859TIP3    H144772   6.383   0.253  12.420 -0.1124 -0.2243 -0.3189
 6859TIP3    H244773   6.493   0.250  12.316  0.0850  2.1998 -0.2514
 6860TIP3   OH244774   1.323   2.744  12.403  0.1296  0.1908 -0.6910
 6860TIP3    H144775   1.228   2.734  12.395  0.0931 -2.4731  1.4799
 6860TIP3    H244776   1.335   2.832  12.439 -1.8056 -0.3552  1.5745
 6861TIP3   OH244777   1.078   3.981  12.029 -0.3224 -0.2872  0.1341
 6861TIP3    H144778   1.013   4.052  12.028 -0.9481 -0.8242 -1.8063
 6861TIP3    H244779   1.111   3.978  11.940  1.7548 -0.6348  0.8754
 6862TIP3   OH244780   6.105   5.196  12.385 -0.6223 -0.3143  0.4614
 6862TIP3    H144781   6.196   5.217  12.403 -0.5491  0.7540 -0.9948
 6862TIP3    H244782   6.061   5.205  12.469  0.3647  0.5554  0.9036
 6863TIP3   OH244783   7.328   6.075  11.073  0.0241 -0.3672 -0.3603
 6863TIP3    H144784   7.235   6.071  11.052  0.3092 -1.2666 -1.6098
 6863TIP3    H244785   7.354   6.165  11.049 -0.5045 -0.1350 -0.0679
 6864TIP3   OH244786   4.697   0.744  12.856 -0.2039  0.2334  0.3608
 6864TIP3    H144787   4.646   0.704  12.785  1.5156  0.9817 -1.4080
 6864TIP3    H244788   4.637   0.805  12.898 -1.4704 -0.7350 -0.0031
 6865TIP3   OH244789   2.873   7.497  10.704 -0.1271  0.1723 -0.7207
 6865TIP3    H144790   2.815   7.532  10.772 -1.5256 -1.5945 -0.9186
 6865TIP3    H244791   2.936   7.444  10.752 -0.0507  0.3059 -0.6733
 6866TIP3   OH244792   3.043   3.862  12.357 -0.2570 -0.2324  0.3292
 6866TIP3    H144793   3.044   3.910  12.439 -0.5882  0.2136  0.0772
 6866TIP3    H244794   3.119   3.804  12.362 -1.1741 -1.3732  1.6193
 6867TIP3   OH244795   4.379   1.409  12.366  0.4076 -0.4685 -0.6753
 6867TIP3    H144796   4.317   1.448  12.304 -0.4611 -0.9586 -0.1407
 6867TIP3    H244797   4.324   1.378  12.438  0.9796 -3.1577 -1.2890
 6868TIP3   OH244798   6.115   2.744  11.258 -0.4006 -0.0044 -0.7757
 6868TIP3    H144799   6.207   2.769  11.267 -0.9148  2.5397 -1.6211
 6868TIP3    H244800   6.117   2.655  11.223  1.6559 -1.0032  1.5758
 6869TIP3   OH244801   0.427   3.480  12.284 -0.6345  0.1795  0.0369
 6869TIP3    H144802   0.341   3.466  12.245 -1.4800  0.2974  1.7839
 6869TIP3    H244803   0.434   3.414  12.352 -0.1996  1.4252  1.2504
 6870TIP3   OH244804   0.806   5.625  12.907 -0.3550  0.1331 -0.1788
 6870TIP3    H144805   0.894   5.646  12.938 -0.8300 -0.3148  1.6122
 6870TIP3    H244806   0.813   5.534  12.878  0.0691  0.5148 -1.3014
 6871TIP3   OH244807   3.390   1.826  12.427 -0.2287  0.0531  0.1342
 6871TIP3    H144808   3.367   1.739  12.396  1.9370  0.2476 -2.3481
 6871TIP3    H244809   3.323   1.883  12.390 -1.4055 -0.4167  1.4179
 6872TIP3   OH244810   0.235   1.966  11.302  0.1710 -0.2707 -0.7350
 6872TIP3    H144811   0.145   1.940  11.319 -0.2834  0.8904 -1.2786
 6872TIP3    H244812   0.260   1.917  11.223 -0.5534  0.6441 -1.5454
 6873TIP3   OH244813   1.254   0.321  11.746 -0.6451  0.1569  0.2716
 6873TIP3    H144814   1.158   0.324  11.743 -0.7336 -1.1473  0.9897
 6873TIP3    H244815   1.275   0.228  11.757  0.7343  0.3533 -0.4484
 6874TIP3   OH244816   1.334   0.122  11.960  0.0236 -0.0410 -0.2545
 6874TIP3    H144817   1.290   0.195  12.004  1.2535  0.0250  0.9460
 6874TIP3    H244818   1.426   0.149  11.955  0.6864 -1.8457  1.0544
 6875TIP3   OH244819   4.313   0.076  11.764 -0.7522 -0.0079  0.1064
 6875TIP3    H144820   4.232   0.044  11.805 -0.3094  1.2175  2.0855
 6875TIP3    H244821   4.379   0.068  11.832  0.4284  0.5857 -0.9271
 6876TIP3   OH244822   0.963   0.241  12.850 -0.4667 -0.0292  0.1358
 6876TIP3    H144823   0.944   0.334  12.834  0.5730  0.5520  1.9788
 6876TIP3    H244824   1.057   0.233  12.832 -0.7094 -0.9385 -0.8012
 6877TIP3   OH244825   7.103   7.555  11.623  0.1895  0.5526 -0.1499
 6877TIP3    H144826   7.089   7.515  11.708  0.0725 -1.0604 -0.8782
 6877TIP3    H244827   7.191   7.592  11.628  1.1185 -1.5022 -0.0017
 6878TIP3   OH244828   2.286   3.916  12.859  0.0911  0.2585 -0.4790
 6878TIP3    H144829   2.289   3.897  12.766  0.1266 -2.4021  0.0049
 6878TIP3    H244830   2.210   3.975  12.869  0.7676  1.5069 -2.2675
 6879TIP3   OH244831   1.514   0.891  11.196  0.4405 -0.0197 -0.3769
 6879TIP3    H144832   1.469   0.967  11.159 -0.5689 -0.1298  0.5520
 6879TIP3    H244833   1.607   0.909  11.184  0.2255  1.4931  0.0338
 6880TIP3   OH244834   6.785   2.878  11.823 -0.3416  0.1673  0.4502
 6880TIP3    H144835   6.795   2.941  11.895  0.3978  0.7032 -0.1014
 6880TIP3    H244836   6.760   2.931  11.748  0.9855 -0.0880 -0.1959
 6881TIP3   OH244837   1.837   0.386  11.442 -0.2474  0.1603  0.1418
 6881TIP3    H144838   1.792   0.380  11.526  0.8004  0.1512  0.7163
 6881TIP3    H244839   1.916   0.333  11.453  0.6088  1.2910 -0.3739
 6882TIP3   OH244840   7.571   7.469  10.966  0.7341  0.5733 -0.5295
 6882TIP3    H144841   7.485   7.461  10.926  0.0039  0.7151  0.9496
 6882TIP3    H244842   7.585   7.385  11.011  0.0381  1.5719  1.6900
 6883TIP3   OH244843   6.378   2.352  12.222  0.0051 -0.0870 -0.2186
 6883TIP3    H144844   6.366   2.434  12.270 -1.1014 -1.2589  1.6160
 6883TIP3    H244845   6.457   2.312  12.260 -0.8282 -0.9797  0.6431
 6884TIP3   OH244846   4.552   7.545  10.946 -0.4413  0.0739  0.2045
 6884TIP3    H144847   4.528   7.452  10.943  2.6298 -0.8340 -2.3376
 6884TIP3    H244848   4.645   7.546  10.924 -0.7896  3.8679 -1.9947
 6885TIP3   OH244849   1.900   0.972  12.166 -0.4877  0.1429 -0.4601
 6885TIP3    H144850   1.896   0.907  12.096 -0.6336  1.0190 -1.2745
 6885TIP3    H244851   1.814   0.968  12.207 -0.1074 -1.0221  0.2992
 6886TIP3   OH244852   6.708   3.277  11.148  0.4450 -0.3894 -0.4739
 6886TIP3    H144853   6.709   3.349  11.085  2.0940 -0.3829 -0.4607
 6886TIP3    H244854   6.633   3.297  11.205 -0.1844  0.3674 -1.5263
 6887TIP3   OH244855   4.232   6.844  11.675 -0.1548 -0.4139  0.2870
 6887TIP3    H144856   4.184   6.847  11.592 -1.2265 -0.7849  0.8639
 6887TIP3    H244857   4.164   6.859  11.741  0.5625 -0.8251  1.1242
 6888TIP3   OH244858   5.964   6.720  13.416 -0.1614  0.1046 -1.2285
 6888TIP3    H144859   5.935   6.804  13.450  0.0495 -0.3865  0.2523
 6888TIP3    H244860   6.047   6.704  13.460 -0.8895 -1.5258 -0.3500
 6889TIP3   OH244861   4.932   3.578  11.599  0.0312 -0.4406  0.1636
 6889TIP3    H144862   4.925   3.580  11.503  1.6133  1.6979  0.0207
 6889TIP3    H244863   5.021   3.549  11.616  0.3815  1.0249  0.9229
 6890TIP3   OH244864   5.650   6.599  13.088  0.5375  0.2217  0.4670
 6890TIP3    H144865   5.601   6.592  13.170  0.6208 -1.9178  0.3703
 6890TIP3    H244866   5.741   6.608  13.115  0.5934 -0.7515  0.6164
 6891TIP3   OH244867   3.899   2.638  12.946  0.2380  0.0693 -0.0370
 6891TIP3    H144868   3.967   2.702  12.967 -0.8617  1.7139 -1.2429
 6891TIP3    H244869   3.833   2.689  12.899 -1.3481 -1.6901  0.2198
 6892TIP3   OH244870   7.146   7.305  11.071 -0.0709  0.0010 -0.6778
 6892TIP3    H144871   7.080   7.312  11.140  0.0887  2.6303 -0.6831
 6892TIP3    H244872   7.217   7.254  11.110 -0.1794  1.0615  0.9828
 6893TIP3   OH244873   5.466   1.101  12.217 -0.1130  0.2760 -0.0209
 6893TIP3    H144874   5.505   1.015  12.233  0.4404  0.8223  1.8442
 6893TIP3    H244875   5.374   1.090  12.240 -0.0935  0.1260 -0.0095
 6894TIP3   OH244876   1.988   5.768  11.060  0.2238 -0.0729  0.9092
 6894TIP3    H144877   1.974   5.676  11.037  1.0505  0.1892 -0.7514
 6894TIP3    H244878   2.083   5.775  11.074  0.0322  0.2985  2.2383
 6895TIP3   OH244879   2.596   6.671  11.580  0.0372 -0.4101 -0.4974
 6895TIP3    H144880   2.639   6.743  11.533  1.6700 -0.9753  0.0554
 6895TIP3    H244881   2.667   6.629  11.629 -0.6183 -3.1327 -1.7029
 6896TIP3   OH244882   2.666   6.574  12.409  0.3748 -0.1237 -0.0976
 6896TIP3    H144883   2.613   6.495  12.422 -0.2812  0.0097 -1.7038
 6896TIP3    H244884   2.668   6.586  12.314  1.9563  0.8026  0.0142
 6897TIP3   OH244885   2.714   4.081  13.406  0.1862 -0.7491  0.2941
 6897TIP3    H144886   2.808   4.068  13.416  0.3048 -2.5770 -2.2951
 6897TIP3    H244887   2.675   3.995  13.423 -1.2519  0.2186  2.5396
 6898TIP3   OH244888   7.483   2.033  11.217  0.1364  0.2421 -0.3290
 6898TIP3    H144889   7.532   1.982  11.153 -0.7758  0.3639 -1.1465
 6898TIP3    H244890   7.549   2.085  11.262  0.6732  1.1941 -2.1141
 6899TIP3   OH244891   1.304   3.247  10.961 -0.1875 -0.0679  0.0279
 6899TIP3    H144892   1.305   3.210  11.049 -0.4794 -1.0686 -0.3862
 6899TIP3    H244893   1.247   3.190  10.911 -0.2411  0.6514 -0.7579
 6900TIP3   OH244894   3.621   7.508  11.219 -0.4691 -0.4495  0.0572
 6900TIP3    H144895   3.643   7.521  11.127 -0.8151 -1.5728 -0.2097
 6900TIP3    H244896   3.701   7.473  11.258 -0.0366  0.8759  0.4093
 6901TIP3   OH244897   2.307   3.692  11.099  0.0576  0.2622 -0.0730
 6901TIP3    H144898   2.365   3.762  11.131 -0.6278  1.5608 -1.5421
 6901TIP3    H244899   2.319   3.692  11.004  0.5287 -2.1188 -0.0625
 6902TIP3   OH244900   3.137   6.920  11.517 -0.7069  0.3982  0.0031
 6902TIP3    H144901   3.147   6.850  11.452 -1.7179  0.3800 -0.1435
 6902TIP3    H244902   3.222   6.925  11.560 -0.1497  0.1281 -1.0434
 6903TIP3   OH244903   4.769   7.601  12.241  0.3895  0.0042 -0.1046
 6903TIP3    H144904   4.785   7.680  12.189  0.6590 -0.6684 -1.0611
 6903TIP3    H244905   4.685   7.618  12.285  0.8366  1.1483  0.3493
 6904TIP3   OH244906   5.348   5.056  12.829 -0.2099 -0.3747 -0.1563
 6904TIP3    H144907   5.314   4.976  12.790 -1.5764 -0.1358  0.4976
 6904TIP3    H244908   5.272   5.115  12.833  0.9559  1.3498 -1.5846
 6905TIP3   OH244909   3.910   2.486  11.912 -0.2314  0.5642 -0.6567
 6905TIP3    H144910   3.887   2.393  11.909  0.2635  0.4449 -0.8051
 6905TIP3    H244911   3.995   2.491  11.870 -0.2634  1.0913 -0.6645
 6906TIP3   OH244912   5.563   6.493  11.195  0.3893 -0.3065 -0.0050
 6906TIP3    H144913   5.504   6.505  11.121 -1.0289 -0.1615  1.1065
 6906TIP3    H244914   5.614   6.416  11.172  0.7234  0.3404 -1.5847
 6907TIP3   OH244915   2.997   7.054  11.736 -0.5656 -0.1782 -0.0073
 6907TIP3    H144916   3.043   6.990  11.681 -0.7912  0.1324 -0.5680
 6907TIP3    H244917   3.065   7.113  11.767 -0.5075 -0.0495 -0.3777
 6908TIP3   OH244918   1.431   6.421  12.553  0.5606  0.8912  0.0694
 6908TIP3    H144919   1.483   6.494  12.589  4.1880 -0.6442 -1.5147
 6908TIP3    H244920   1.443   6.350  12.615 -1.2397  0.9900  0.5707
 6909TIP3   OH244921   5.395   6.248  10.995  0.0106 -0.2964 -0.2531
 6909TIP3    H144922   5.475   6.244  11.048 -2.0663 -0.3340  3.1348
 6909TIP3    H244923   5.341   6.176  11.028 -1.9139  0.4421 -1.6406
 6910TIP3   OH244924   2.561   5.670  12.657 -0.0444  0.8757  0.8593
 6910TIP3    H144925   2.566   5.612  12.733 -2.6856  0.7705  1.0282
 6910TIP3    H244926   2.559   5.758  12.694  0.3738  0.9093  0.8048
 6911TIP3   OH244927   6.186   1.193  11.615  0.2122  0.1725 -0.5319
 6911TIP3    H144928   6.211   1.275  11.656  0.5362  0.9083 -2.1216
 6911TIP3    H244929   6.243   1.186  11.538 -1.0951 -0.5812 -1.4816
 6912TIP3   OH244930   6.564   2.128  10.990 -0.1303 -0.6764  0.2049
 6912TIP3    H144931   6.482   2.080  10.985 -1.0629  0.8774  0.1316
 6912TIP3    H244932   6.584   2.132  11.083 -1.9189  1.7512  0.5824
 6913TIP3   OH244933   6.858   5.369  11.783 -0.7348 -0.1696  0.4490
 6913TIP3    H144934   6.946   5.355  11.819 -1.2223 -2.0465  1.0222
 6913TIP3    H244935   6.874   5.413  11.699  0.5622  1.9408  1.6851
 6914TIP3   OH244936   5.389   7.372  11.194  0.4567  0.0137 -0.7478
 6914TIP3    H144937   5.475   7.410  11.176 -0.3757  2.0625 -0.7005
 6914TIP3    H244938   5.327   7.431  11.151 -1.0357 -0.3481  0.8008
 6915TIP3   OH244939   2.186   0.229  11.226 -0.2849 -0.2024  0.7024
 6915TIP3    H144940   2.094   0.250  11.214  0.1015  0.4762 -1.3783
 6915TIP3    H244941   2.192   0.135  11.211 -0.5487 -0.1471  0.2544
 6916TIP3   OH244942   6.894   7.087  11.649 -0.0454  0.0937  0.4715
 6916TIP3    H144943   6.890   7.006  11.700  1.7075 -1.4375 -1.6167
 6916TIP3    H244944   6.803   7.109  11.632 -0.5770 -1.6206  0.8760
 6917TIP3   OH244945   4.826   4.370  10.653 -1.0698 -0.0648 -0.1430
 6917TIP3    H144946   4.917   4.380  10.683 -1.7454  0.2913  1.9592
 6917TIP3    H244947   4.808   4.450  10.605  0.2278 -0.8829 -2.1092
 6918TIP3   OH244948   6.869   7.078  11.942  0.1843  0.0239  0.2544
 6918TIP3    H144949   6.802   7.110  11.883  0.9757 -0.2164 -0.8048
 6918TIP3    H244950   6.854   6.984  11.947  2.9004 -0.8226 -3.4031
 6919TIP3   OH244951   1.068   7.389  11.246  0.2323 -0.1886 -0.4551
 6919TIP3    H144952   1.028   7.305  11.271  0.3023  0.0018  0.3313
 6919TIP3    H244953   1.161   7.369  11.236  0.5136  0.0745  1.2361
 6920TIP3   OH244954   4.389   1.623  13.235  0.0384  0.3405 -0.0938
 6920TIP3    H144955   4.404   1.563  13.308 -0.9047  1.1113  0.7635
 6920TIP3    H244956   4.294   1.628  13.227  0.0890  1.7220 -0.1234
 6921TIP3   OH244957   1.539   3.055  11.669  0.0767  0.1059  0.1231
 6921TIP3    H144958   1.533   3.131  11.612 -2.3063  0.5532  0.8803
 6921TIP3    H244959   1.481   2.990  11.628  1.2762 -0.9495  0.0405
 6922TIP3   OH244960   3.067   5.101  13.133  0.6876 -0.2713  0.7874
 6922TIP3    H144961   3.074   5.196  13.149  1.0792  0.2835 -2.0825
 6922TIP3    H244962   3.029   5.095  13.045 -0.2361 -2.8402  1.2775
 6923TIP3   OH244963   3.742   6.277  12.244  0.2089  0.2179  0.1316
 6923TIP3    H144964   3.795   6.337  12.296  0.4390 -0.8723  1.2012
 6923TIP3    H244965   3.786   6.193  12.252 -0.9770 -0.4461 -0.0155
 6924TIP3   OH244966   6.369   1.215  11.418 -0.5971 -0.2014 -0.0048
 6924TIP3    H144967   6.368   1.160  11.340 -0.8180  0.5149 -0.5207
 6924TIP3    H244968   6.401   1.300  11.386 -0.2503 -0.0304  0.7754
 6925TIP3   OH244969   0.046   6.744  12.008  0.1174 -0.2498 -0.6991
 6925TIP3    H144970   0.065   6.745  11.914  1.4581 -0.8266 -0.4528
 6925TIP3    H244971  -0.049   6.759  12.013 -0.0625 -0.6884 -2.1687
 6926TIP3   OH244972   0.184   7.346  10.550 -0.5983 -0.8290  0.1484
 6926TIP3    H144973   0.192   7.292  10.628 -1.0697  0.0195  0.7959
 6926TIP3    H244974   0.105   7.314  10.507 -0.7115 -0.8527  0.3737
 6927TIP3   OH244975   6.536   4.623  12.181  0.0667  0.7043  0.1626
 6927TIP3    H144976   6.613   4.666  12.143  1.4740 -0.0497  1.9984
 6927TIP3    H244977   6.561   4.607  12.272 -1.7033 -0.9505  0.4051
 6928TIP3   OH244978   0.222   0.151  11.226 -0.2763 -0.2984  0.0963
 6928TIP3    H144979   0.305   0.109  11.249 -0.1632 -0.0489  0.1459
 6928TIP3    H244980   0.179   0.088  11.168  0.5624  0.1721 -1.0653
 6929TIP3   OH244981   7.582   2.469  10.769 -0.0521 -0.2070  0.5362
 6929TIP3    H144982   7.644   2.531  10.731 -1.1666 -0.0742 -1.1446
 6929TIP3    H244983   7.504   2.521  10.789  0.1901 -0.4449  2.2831
 6930TIP3   OH244984   0.172   6.065  11.341 -0.0619  0.3991 -0.4431
 6930TIP3    H144985   0.151   6.153  11.374 -0.0220  0.3973 -0.4131
 6930TIP3    H244986   0.089   6.031  11.309 -0.0598  0.4841 -0.5400
 6931TIP3   OH244987   1.830   3.489  12.760  0.0515 -0.1930  0.8433
 6931TIP3    H144988   1.895   3.552  12.790 -0.7653  0.0948  2.0856
 6931TIP3    H244989   1.753   3.506  12.815 -0.9934 -0.6779 -0.4241
 6932TIP3   OH244990   7.289   7.157  12.114  0.1116  0.0109 -0.0956
 6932TIP3    H144991   7.306   7.174  12.021 -0.6215  1.3716 -0.0030
 6932TIP3    H244992   7.295   7.243  12.155  0.3620 -0.5681  1.1185
 6933TIP3   OH244993   5.815  -0.013  11.234  0.3787 -0.5369  0.0715
 6933TIP3    H144994   5.801   0.079  11.256 -0.3218 -0.9566  1.5224
 6933TIP3    H244995   5.888  -0.041  11.288  2.6361 -0.1262 -2.5483
 6934TIP3   OH244996   3.398   5.151  10.642  0.0452 -0.3091  0.1279
 6934TIP3    H144997   3.319   5.172  10.691  0.6428  0.5180  0.7891
 6934TIP3    H244998   3.405   5.056  10.646 -0.7682 -0.3628  0.2996
 6935TIP3   OH244999   2.736   2.610  12.076  0.2625 -0.0998 -0.4941
 6935TIP3    H145000   2.780   2.681  12.029  1.2617  0.3545  1.0441
 6935TIP3    H245001   2.734   2.639  12.167 -1.1150 -1.1920 -0.1354
 6936TIP3   OH245002   4.149   5.321  12.212 -0.6300  0.1373 -0.0265
 6936TIP3    H145003   4.236   5.309  12.251 -1.0990 -1.5021  0.6204
 6936TIP3    H245004   4.089   5.280  12.275 -1.4384 -2.5032 -2.3079
 6937TIP3   OH245005   7.384   0.800  10.739  0.7367 -0.0644  0.2707
 6937TIP3    H145006   7.392   0.742  10.815  0.9993  0.6884  0.8182
 6937TIP3    H245007   7.303   0.849  10.755  0.5150 -0.2690 -0.1941
 6938TIP3   OH245008   6.696   2.294  12.565 -0.3020 -0.2439  1.0760
 6938TIP3    H145009   6.705   2.311  12.659  0.8291 -1.3482  1.2009
 6938TIP3    H245010   6.785   2.296  12.531 -0.8228  1.7590 -0.3178
 6939TIP3   OH245011   0.860   6.517  13.363 -0.3795  0.4171  0.5924
 6939TIP3    H145012   0.852   6.575  13.438 -0.2351  0.1263  0.8384
 6939TIP3    H245013   0.948   6.480  13.371 -0.7892 -0.5130  0.9441
 6940TIP3   OH245014   6.994   3.332  12.341  0.0762  0.3719 -0.6596
 6940TIP3    H145015   6.984   3.399  12.274 -3.3180 -0.3970 -1.0665
 6940TIP3    H245016   6.913   3.335  12.392 -0.3968 -3.5164 -0.8774
 6941TIP3   OH245017   4.540   5.932  10.544 -0.4935  0.3604 -0.5224
 6941TIP3    H145018   4.572   5.980  10.621 -4.1631  1.5426  0.5063
 6941TIP3    H245019   4.522   6.001  10.479  1.0403 -0.4758 -1.9102
 6942TIP3   OH245020   3.989   3.662  12.620  0.1303  0.0249  0.6065
 6942TIP3    H145021   4.076   3.670  12.581  0.6090 -3.3470  0.7024
 6942TIP3    H245022   4.003   3.677  12.713  0.7095 -0.8560  0.6702
 6943TIP3   OH245023   5.606   3.953  11.792 -0.2111 -0.3366 -0.6490
 6943TIP3    H145024   5.684   3.964  11.847 -0.6976 -1.2795  0.2638
 6943TIP3    H245025   5.541   4.012  11.831  0.0001  0.4015 -1.3715
 6944TIP3   OH245026   5.478   4.845  10.684 -0.0441  0.1333 -0.3622
 6944TIP3    H145027   5.480   4.857  10.779  0.3960 -1.1346 -0.1999
 6944TIP3    H245028   5.551   4.899  10.652  0.8874 -0.7703  0.1866
 6945TIP3   OH245029   4.137   2.008  12.460  0.3472 -0.3342 -0.1940
 6945TIP3    H145030   4.129   1.945  12.532  1.3493 -2.3787 -1.7368
 6945TIP3    H245031   4.228   2.036  12.463  1.3243 -2.7877 -2.3187
 6946TIP3   OH245032   4.423   0.224  13.229 -0.3276  0.1420  0.2585
 6946TIP3    H145033   4.391   0.141  13.263  0.1393  0.5776  1.8399
 6946TIP3    H245034   4.515   0.228  13.257  0.7639 -0.3386 -2.7718
 6947TIP3   OH245035   6.184   5.919  12.939 -0.3233 -1.0906 -0.0542
 6947TIP3    H145036   6.099   5.915  12.982  0.1618 -0.0352  1.0833
 6947TIP3    H245037   6.247   5.893  13.007  0.4854  0.8320  0.0202
 6948TIP3   OH245038   4.081   0.862  10.867  0.1908  0.5055  0.1415
 6948TIP3    H145039   4.060   0.769  10.876  0.4509  0.2686 -1.4591
 6948TIP3    H245040   3.996   0.905  10.862 -0.0282  0.7286  3.5457
 6949TIP3   OH245041   1.600   0.926  12.013  0.3067 -0.5851 -0.0216
 6949TIP3    H145042   1.596   0.963  12.101  2.0539 -1.2497  0.3852
 6949TIP3    H245043   1.610   0.832  12.027 -1.3208 -0.9532 -0.9977
 6950TIP3   OH245044   1.158   7.161  10.899  0.0661 -0.1401 -0.0580
 6950TIP3    H145045   1.103   7.239  10.910  1.4726  0.8557  0.1918
 6950TIP3    H245046   1.245   7.196  10.880  0.9867 -1.6292  1.1824
 6951TIP3   OH245047   2.165   2.568  12.119 -0.1499 -0.5053 -0.0433
 6951TIP3    H145048   2.261   2.559  12.125 -0.1118 -1.7216 -1.8058
 6951TIP3    H245049   2.133   2.478  12.121 -1.3133 -0.0845  0.9109
 6952TIP3   OH245050   7.095   7.243  10.775 -0.1149  0.1920  0.3048
 6952TIP3    H145051   7.182   7.204  10.782  0.0532  0.5579  0.2748
 6952TIP3    H245052   7.074   7.272  10.864 -0.3641 -0.2293  0.3850
 6953TIP3   OH245053   0.409   7.202  11.414  0.1006  0.2672  0.3512
 6953TIP3    H145054   0.339   7.199  11.479 -0.3685  0.1930 -0.1564
 6953TIP3    H245055   0.413   7.294  11.387 -0.3865  0.1120 -0.2542
 6954TIP3   OH245056   6.929   6.220  11.901 -0.1729  0.0232 -0.2335
 6954TIP3    H145057   6.867   6.289  11.925 -0.4919  0.0832 -1.1856
 6954TIP3    H245058   6.874   6.146  11.874  0.1619 -0.6661  0.8797
 6955TIP3   OH245059   1.144   1.102  12.601  0.6613 -0.2404  0.2541
 6955TIP3    H145060   1.163   1.096  12.694  0.7264 -0.0445  0.2532
 6955TIP3    H245061   1.147   1.196  12.581  2.0206 -0.3526 -0.2239
 6956TIP3   OH245062   3.981   3.113  10.967 -0.4710  0.6047  0.1623
 6956TIP3    H145063   3.932   3.189  10.935  1.7291  1.6189 -1.0505
 6956TIP3    H245064   4.016   3.141  11.052 -0.4974  0.5621  0.1879
 6957TIP3   OH245065   6.060   6.347  11.923 -0.6855  0.1286 -0.2315
 6957TIP3    H145066   6.147   6.311  11.903 -1.8192 -2.1598 -1.4199
 6957TIP3    H245067   6.049   6.418  11.860  0.2932  0.4434 -0.0765
 6958TIP3   OH245068   6.821   2.422  10.305 -0.4313  0.2792  0.3964
 6958TIP3    H145069   6.844   2.505  10.347 -0.8868  0.3385  0.5290
 6958TIP3    H245070   6.726   2.422  10.302 -0.4186 -0.0222 -0.0427
 6959TIP3   OH245071   2.863   0.972  12.624 -0.1756 -0.6937  0.0795
 6959TIP3    H145072   2.921   0.917  12.676  1.2485  1.7691  1.2622
 6959TIP3    H245073   2.895   0.963  12.534  2.2782  0.6749  0.7043
 6960TIP3   OH245074   4.873   1.183  11.442 -0.0151  0.0212 -0.8198
 6960TIP3    H145075   4.921   1.241  11.502 -0.7363 -0.3975  0.2008
 6960TIP3    H245076   4.941   1.138  11.392  0.8871 -2.2336  2.1310
 6961TIP3   OH245077   6.139   3.689  11.349  0.6617  0.2122 -0.3606
 6961TIP3    H145078   6.203   3.656  11.286  0.6871  1.0090 -0.7701
 6961TIP3    H245079   6.055   3.656  11.318  0.8735 -0.9357  0.2438
 6962TIP3   OH245080   3.333   2.298  10.952  0.1499  0.1129 -0.1179
 6962TIP3    H145081   3.253   2.330  10.993  0.1692 -0.6216  0.4931
 6962TIP3    H245082   3.307   2.218  10.907  0.1267  0.9023 -1.5744
 6963TIP3   OH245083   7.463   0.285  10.767 -0.3390  0.3485  0.1570
 6963TIP3    H145084   7.406   0.208  10.767 -1.1065  0.9011  0.1464
 6963TIP3    H245085   7.518   0.274  10.844 -0.4907 -0.1726  0.1962
 6964TIP3   OH245086   2.042   3.150  10.845 -0.1859 -0.5438 -0.2239
 6964TIP3    H145087   1.953   3.143  10.811 -0.7043 -0.3691  1.0481
 6964TIP3    H245088   2.033   3.202  10.925  1.0402 -0.6563  0.0019
 6965TIP3   OH245089   7.144   3.664  11.688  0.2384  0.0387 -0.2729
 6965TIP3    H145090   7.201   3.713  11.629  0.9376 -0.5468 -0.0972
 6965TIP3    H245091   7.145   3.575  11.653 -1.6637  0.2812 -1.0770
 6966TIP3   OH245092   3.902   3.943  12.815  0.0958 -0.3500  0.3335
 6966TIP3    H145093   3.905   3.990  12.732 -1.1542 -3.7008 -1.8258
 6966TIP3    H245094   3.835   3.988  12.866  1.7546  2.5499  0.1669
 6967TIP3   OH245095   2.511   0.484  12.774  0.2176  0.4013 -0.3625
 6967TIP3    H145096   2.418   0.506  12.785  0.0652  1.0996 -2.5700
 6967TIP3    H245097   2.542   0.468  12.863 -1.8909  0.6469  0.4855
 6968TIP3   OH245098   2.518   0.693  11.927  0.5968  0.3633 -0.0568
 6968TIP3    H145099   2.555   0.686  11.840 -0.4235  0.1522 -0.4837
 6968TIP3    H245100   2.434   0.736  11.914 -0.1964 -0.9161  0.6500
 6969TIP3   OH245101   5.524   1.798  10.588 -0.5988 -0.0444 -0.2444
 6969TIP3    H145102   5.437   1.760  10.591 -0.9462  0.8050  1.7351
 6969TIP3    H245103   5.567   1.766  10.667  0.7363 -0.0743 -0.9547
 6970TIP3   OH245104   1.901   5.305  12.172 -0.2717 -0.1956  0.2720
 6970TIP3    H145105   1.836   5.288  12.241  1.2756 -1.8150  1.4245
 6970TIP3    H245106   1.858   5.277  12.091 -1.2825 -0.5129  0.8957
 6971TIP3   OH245107   5.375   0.939  12.828 -0.0447 -0.0661 -0.9410
 6971TIP3    H145108   5.375   1.024  12.872 -0.4592 -0.5995  0.1241
 6971TIP3    H245109   5.448   0.891  12.867 -0.4811 -0.5860 -0.7514
 6972TIP3   OH245110   7.402   5.709  12.152  0.5885 -0.5426 -0.5939
 6972TIP3    H145111   7.347   5.667  12.218 -0.1317 -0.5202 -1.1737
 6972TIP3    H245112   7.431   5.790  12.194 -1.0952  0.2168 -0.8293
 6973TIP3   OH245113   1.885   7.379  10.876 -0.1598  0.2647 -0.0163
 6973TIP3    H145114   1.929   7.388  10.960  1.8781  2.7548 -1.2124
 6973TIP3    H245115   1.811   7.439  10.881  0.0663  0.5473 -0.0682
 6974TIP3   OH245116   4.266   2.559  11.320  0.2674 -0.3889 -0.3900
 6974TIP3    H145117   4.349   2.604  11.304 -0.2966  0.7675 -0.1849
 6974TIP3    H245118   4.199   2.621  11.292 -0.5416 -1.1811 -0.2573
 6975TIP3   OH245119   1.307   0.366  10.710  0.0933  0.1753  0.0524
 6975TIP3    H145120   1.227   0.395  10.666 -0.0676  1.1280  0.9244
 6975TIP3    H245121   1.367   0.344  10.639 -0.9428 -0.5738 -0.6094
 6976TIP3   OH245122   5.414   3.870  11.349  0.2834 -0.1652 -0.1961
 6976TIP3    H145123   5.364   3.921  11.412  1.6586 -1.6006  2.2095
 6976TIP3    H245124   5.496   3.918  11.339 -0.2601  0.5365 -1.7155
 6977TIP3   OH245125   5.637   4.829  11.112  0.2039  0.3748  0.0848
 6977TIP3    H145126   5.689   4.814  11.033  2.3373  0.8225  1.3277
 6977TIP3    H245127   5.561   4.878  11.081 -0.0111 -1.1324 -1.9516
 6978TIP3   OH245128   6.633   2.245  11.759 -0.0442 -0.0797 -0.3434
 6978TIP3    H145129   6.558   2.294  11.791 -0.1235  0.4087 -1.2341
 6978TIP3    H245130   6.658   2.188  11.831 -1.0381  0.0251  0.0906
 6979TIP3   OH245131   0.799   4.566  12.269  0.4660  0.0916  0.2505
 6979TIP3    H145132   0.855   4.520  12.206 -2.5160 -1.0121 -1.8207
 6979TIP3    H245133   0.782   4.501  12.337 -1.2877 -0.9910 -1.1205
 6980TIP3   OH245134   3.853   3.254  10.742  0.3142 -0.1086  0.1976
 6980TIP3    H145135   3.910   3.221  10.672  0.7525  3.0745 -1.1498
 6980TIP3    H245136   3.770   3.210  10.728  1.2390 -1.7692 -0.4144
 6981TIP3   OH245137   1.320   1.042  10.658 -0.0645 -0.2728  0.2107
 6981TIP3    H145138   1.319   0.977  10.588 -0.5943 -1.1739  1.0233
 6981TIP3    H245139   1.330   0.990  10.738 -1.2213  0.5783  0.9323
 6982TIP3   OH245140   6.668   0.629  13.106 -0.0519 -0.4341  0.2441
 6982TIP3    H145141   6.658   0.622  13.201  1.4876 -0.3668  0.4344
 6982TIP3    H245142   6.614   0.703  13.081  0.4204  0.2579  1.2344
 6983TIP3   OH245143   1.483   6.288  12.801 -0.2114  0.2214 -0.2647
 6983TIP3    H145144   1.512   6.202  12.770 -0.4784 -0.1456  0.4787
 6983TIP3    H245145   1.483   6.280  12.897 -1.8694  0.4940 -0.2127
 6984TIP3   OH245146   4.087   0.232  12.284  0.0836 -0.0309  0.2929
 6984TIP3    H145147   4.041   0.224  12.368 -0.5208 -1.8506 -0.1811
 6984TIP3    H245148   4.109   0.142  12.260  0.6457  0.5068 -1.3019
 6985TIP3   OH245149   0.509   1.177  11.000 -0.2576  0.3300  0.2156
 6985TIP3    H145150   0.486   1.242  10.933  1.0789 -0.3812 -0.9814
 6985TIP3    H245151   0.517   1.094  10.952  1.6890 -0.0250  1.0345
 6986TIP3   OH245152   3.402   1.552  12.374 -0.0772  0.2236  0.1988
 6986TIP3    H145153   3.371   1.550  12.283  0.2742 -0.3657  0.0823
 6986TIP3    H245154   3.490   1.514  12.370 -0.9165 -2.0229  1.0946
 6987TIP3   OH245155   0.381   6.758  11.592  0.2811  0.3159  0.5195
 6987TIP3    H145156   0.450   6.820  11.614  0.9840  0.0455 -0.7816
 6987TIP3    H245157   0.402   6.679  11.642  0.4921  0.4780  0.6878
 6988TIP3   OH245158   2.017   7.339  11.116 -0.4640 -0.3962 -0.3255
 6988TIP3    H145159   2.076   7.263  11.114 -1.0720 -0.8742 -1.1207
 6988TIP3    H245160   2.074   7.414  11.104  0.2108 -0.6838  0.9616
 6989TIP3   OH245161   3.882   2.389  11.518 -0.2156 -0.4087 -0.1030
 6989TIP3    H145162   3.973   2.359  11.515 -0.2006 -0.3807  0.0321
 6989TIP3    H245163   3.831   2.309  11.532 -0.0646 -0.2272  1.7028
 6990TIP3   OH245164   6.621   3.028  10.930  0.3483 -0.0237  0.8381
 6990TIP3    H145165   6.615   3.124  10.930  0.8712  0.0447 -0.9820
 6990TIP3    H245166   6.713   3.010  10.950  0.7447 -0.0263 -0.7764
 6991TIP3   OH245167   3.271   7.056  12.525  0.3505  0.4302 -0.2702
 6991TIP3    H145168   3.277   7.040  12.619  0.1818 -0.4868 -0.4042
 6991TIP3    H245169   3.178   7.077  12.510  0.0789 -0.7850 -0.4127
 6992TIP3   OH245170   6.318   1.929  11.336  0.3977  0.1382  0.4849
 6992TIP3    H145171   6.366   1.948  11.417  1.9209  0.7192 -0.5290
 6992TIP3    H245172   6.284   1.840  11.349  0.6170  0.2222  1.7621
 6993TIP3   OH245173   7.054   3.563  10.415  0.0188  0.5501  0.4599
 6993TIP3    H145174   7.059   3.554  10.320 -0.7165 -0.8069  0.5290
 6993TIP3    H245175   7.145   3.566  10.444  0.2527  0.1732 -0.2212
 6994TIP3   OH245176   4.716   2.144  11.854  0.6094  0.1207 -0.5312
 6994TIP3    H145177   4.707   2.192  11.936  1.0214  0.3063 -0.5890
 6994TIP3    H245178   4.770   2.201  11.799  0.6301 -0.1587 -0.8039
 6995TIP3   OH245179   5.783   6.299  10.899  0.4439  0.2717  0.1785
 6995TIP3    H145180   5.869   6.257  10.907  0.2544 -0.0950  0.3440
 6995TIP3    H245181   5.802   6.393  10.899  0.8439  0.1935  0.2192
 6996TIP3   OH245182   0.975   1.654  10.485  0.0348  0.4406  0.1243
 6996TIP3    H145183   1.034   1.601  10.538  0.2714 -0.4002 -0.9569
 6996TIP3    H245184   0.929   1.709  10.549 -0.4633 -1.2707  1.3062
 6997TIP3   OH245185   7.567   6.957  12.660  0.1021  0.5984  0.6358
 6997TIP3    H145186   7.642   7.006  12.694 -0.7569  1.3750  1.4717
 6997TIP3    H245187   7.493   7.018  12.668 -0.7517 -0.3973  0.5187
 6998TIP3   OH245188   2.331   6.374  11.309 -0.3980 -0.6515 -0.3690
 6998TIP3    H145189   2.345   6.380  11.404 -0.3162 -3.0983 -0.1818
 6998TIP3    H245190   2.406   6.325  11.276 -1.3229 -1.3806 -1.4421
 6999TIP3   OH245191   5.732   2.370  11.277 -0.1843 -0.1351  0.7657
 6999TIP3    H145192   5.795   2.434  11.311  1.4150 -1.2708  0.0829
 6999TIP3    H245193   5.721   2.394  11.185 -1.8296  0.8552  1.1845
 7000TIP3   OH245194   2.928   3.040  12.201 -0.7429 -0.9564  0.2567
 7000TIP3    H145195   2.975   2.959  12.220  1.2464  0.5915  2.5869
 7000TIP3    H245196   2.938   3.052  12.106  1.0385 -2.2001  0.2345
 7001TIP3   OH245197   2.096   2.661  10.767  0.4537  0.2681 -0.0287
 7001TIP3    H145198   2.157   2.626  10.832  3.5252  1.5283 -1.9647
 7001TIP3    H245199   2.083   2.752  10.793 -0.5438  0.0310  0.3157
 7002TIP3   OH245200   7.028   7.048  11.359  0.0735  0.4046 -0.5956
 7002TIP3    H145201   6.985   7.069  11.441 -1.7798  0.3587 -1.5013
 7002TIP3    H245202   7.080   6.970  11.378 -1.4741 -0.4711  0.1931
 7003TIP3   OH245203   0.297   1.670  13.191  0.0794 -0.0315  0.0933
 7003TIP3    H145204   0.372   1.664  13.250  2.0227 -0.0920 -2.2188
 7003TIP3    H245205   0.254   1.585  13.199  1.9696 -1.1167 -0.5666
 7004TIP3   OH245206   0.983   4.822  11.155 -0.2030  0.0796 -0.6297
 7004TIP3    H145207   0.934   4.817  11.072 -0.0098 -1.5291 -0.6924
 7004TIP3    H245208   0.934   4.885  11.208 -1.0084  0.2493 -1.5413
 7005TIP3   OH245209   3.517   6.929  12.920 -0.4282 -0.2548  0.3106
 7005TIP3    H145210   3.517   6.912  13.015 -0.8202 -0.2105  0.3183
 7005TIP3    H245211   3.608   6.916  12.894 -0.2665 -0.0064  0.7415
 7006TIP3   OH245212   6.484   0.898  11.746 -0.1785  0.4751 -0.3009
 7006TIP3    H145213   6.508   0.978  11.700  0.6492  0.5619  0.2655
 7006TIP3    H245214   6.390   0.890  11.733 -0.0435  0.7701 -1.5807
 7007TIP3   OH245215   2.016   6.871  10.666  0.0096 -0.3108 -0.4308
 7007TIP3    H145216   1.959   6.918  10.606 -0.6274 -0.2002  0.2510
 7007TIP3    H245217   2.062   6.940  10.714  0.7054 -0.3982 -0.9500
 7008TIP3   OH245218   7.321   4.840  10.757 -0.1794  0.7126  0.1448
 7008TIP3    H145219   7.402   4.885  10.782  1.4646 -1.9010 -0.1112
 7008TIP3    H245220   7.293   4.795  10.836 -0.6784  0.5825 -0.1001
 7009TIP3   OH245221   6.890   1.080  10.871  0.2208  0.2780  0.1868
 7009TIP3    H145222   6.876   1.163  10.916  1.4947  0.1543  0.8740
 7009TIP3    H245223   6.956   1.100  10.805  0.3201 -0.1168  0.1637
 7010TIP3   OH245224   7.042   0.938  11.478  0.6320  0.3482 -0.8052
 7010TIP3    H145225   7.083   0.961  11.395 -1.0900  0.8236 -1.5738
 7010TIP3    H245226   6.952   0.968  11.469  0.6151  1.2381  1.6000
 7011TIP3   OH245227   6.352   0.593  11.249  0.0147 -0.4093  0.7725
 7011TIP3    H145228   6.335   0.639  11.331 -0.5650 -1.4174  1.2228
 7011TIP3    H245229   6.402   0.516  11.274  0.5973 -0.2723  0.0664
 7012TIP3   OH245230   1.502   2.563  11.698 -0.1095  0.1154 -0.0315
 7012TIP3    H145231   1.520   2.642  11.749 -0.4089 -1.1135  2.0977
 7012TIP3    H245232   1.411   2.572  11.672 -0.2336  0.3569  0.4625
 7013TIP3   OH245233   5.984   3.858  10.440 -0.0036  0.0074 -0.3239
 7013TIP3    H145234   5.941   3.782  10.481  0.0188 -0.8301 -1.7994
 7013TIP3    H245235   6.077   3.837  10.445 -0.0044 -0.1200 -0.8397
 7014TIP3   OH245236   7.637   6.980  10.911  0.6625 -0.0669  0.6203
 7014TIP3    H145237   7.602   6.893  10.933  0.9714 -0.1517  0.7707
 7014TIP3    H245238   7.731   6.972  10.924  0.8931 -0.2015 -0.9970
 7015TIP3   OH245239   7.209   5.628  11.578  0.1687  0.0116  0.1755
 7015TIP3    H145240   7.274   5.566  11.546  2.7168  0.6639  3.5270
 7015TIP3    H245241   7.257   5.711  11.587 -0.6227  0.2412  3.9473
 7016TIP3   OH245242   5.954   0.804  12.654  0.8096  0.0614  0.4605
 7016TIP3    H145243   5.878   0.747  12.652 -0.2141  1.3546 -2.4260
 7016TIP3    H245244   6.025   0.748  12.685 -0.8345 -1.7687  1.1326
 7017TIP3   OH245245   1.019   0.132  11.023 -0.6496  0.2594  1.0084
 7017TIP3    H145246   1.087   0.120  11.089 -1.1275 -0.4779  1.3760
 7017TIP3    H245247   0.964   0.054  11.031 -0.0735 -0.4316 -1.0117
 7018TIP3   OH245248   0.298   0.672  11.367 -0.1845 -0.3300 -0.4015
 7018TIP3    H145249   0.234   0.717  11.313 -1.3602 -0.2083  1.0170
 7018TIP3    H245250   0.335   0.741  11.423  0.6375 -0.5308 -0.6911
 7019TIP3   OH245251   6.788   0.848  12.417 -0.0159  0.6197  0.0256
 7019TIP3    H145252   6.724   0.787  12.378 -0.5923  1.3556 -0.2116
 7019TIP3    H245253   6.868   0.797  12.424 -0.2353  0.0917 -1.0133
 7020TIP3   OH245254   1.611   7.170  11.196 -0.3994  0.3822 -0.0579
 7020TIP3    H145255   1.640   7.226  11.268 -2.3180  0.1425  0.9647
 7020TIP3    H245256   1.620   7.081  11.231 -0.7437  0.2366 -0.3394
 7021TIP3   OH245257   0.179   7.208  10.839 -0.7372 -0.2459 -0.1488
 7021TIP3    H145258   0.129   7.197  10.919  0.2201  0.3743  0.5626
 7021TIP3    H245259   0.263   7.243  10.868  0.2183 -1.5125 -1.2775
 7022TIP3   OH245260   4.257   0.804  11.388  0.8493  0.3147  0.0717
 7022TIP3    H145261   4.185   0.847  11.342  0.1447 -0.6334  0.2664
 7022TIP3    H245262   4.303   0.755  11.320  0.4106 -0.2742  0.1898
 7023TIP3   OH245263   0.984   7.184  11.535  0.6440  0.0493  0.2849
 7023TIP3    H145264   0.951   7.142  11.456  0.5891 -1.5711  1.1235
 7023TIP3    H245265   0.909   7.234  11.568  0.4252  0.0878 -0.2555
 7024TIP3   OH245266   2.962   0.553  11.533  0.6072  0.4432 -0.3562
 7024TIP3    H145267   3.030   0.505  11.488  1.6287  1.2806  0.2539
 7024TIP3    H245268   2.880   0.515  11.501  1.3547 -1.8463  0.3027
 7025TIP3   OH245269   5.221   2.768  11.880  0.2853  0.2282 -0.1131
 7025TIP3    H145270   5.128   2.786  11.891  0.2910  0.4401 -0.4125
 7025TIP3    H245271   5.260   2.787  11.966 -0.0322 -0.4103  0.1747
 7026TIP3   OH245272   3.139   4.945  11.317  0.4797  0.0023 -0.0061
 7026TIP3    H145273   3.202   4.914  11.381  0.5141  0.2442  0.0764
 7026TIP3    H245274   3.133   4.874  11.253 -1.0703 -1.1337  1.3285
 7027TIP3   OH245275   4.716   0.975  13.395 -0.2446 -0.5466 -0.0959
 7027TIP3    H145276   4.782   0.936  13.452  0.2039 -0.9788 -0.8917
 7027TIP3    H245277   4.639   0.919  13.404 -0.8338  0.4518  1.5083
 7028TIP3   OH245278   6.994   4.554  10.870 -0.6799  0.1287  0.0919
 7028TIP3    H145279   6.916   4.593  10.830 -1.4201 -0.7969  0.5882
 7028TIP3    H245280   7.043   4.517  10.796 -1.9188 -1.3662 -0.0267
 7029TIP3   OH245281   4.612   4.916  10.823  0.1677  0.0428  0.3741
 7029TIP3    H145282   4.624   4.823  10.804 -0.3304  0.0754 -0.1174
 7029TIP3    H245283   4.659   4.961  10.753 -2.9617  0.1778 -1.8618
 7030TIP3   OH245284   5.017   3.202  11.613 -0.8929  0.0722  0.0309
 7030TIP3    H145285   4.946   3.233  11.557 -2.0537 -0.8703  0.9483
 7030TIP3    H245286   4.986   3.216  11.702  0.3322  0.2047  0.4577
 7031TIP3   OH245287   7.191   3.011  10.857  0.1277 -0.0252 -0.1409
 7031TIP3    H145288   7.272   3.042  10.896  1.0610 -0.9968 -1.2155
 7031TIP3    H245289   7.184   2.920  10.885 -1.4238  0.4755  1.2032
 7032TIP3   OH245290   5.942   0.725  12.255  0.4927 -0.4618  0.1219
 7032TIP3    H145291   5.883   0.665  12.300  0.6584 -0.7977 -0.1046
 7032TIP3    H245292   6.024   0.719  12.304 -0.0503  1.0682  1.3112
 7033TIP3   OH245293   5.244   3.296  11.265 -1.0722  0.0941  0.3528
 7033TIP3    H145294   5.249   3.392  11.272  1.1107  0.1367 -0.9942
 7033TIP3    H245295   5.257   3.264  11.354 -0.4679  1.0203  0.6071
 7034TIP3   OH245296   3.609   1.096  12.365 -0.1714  0.0383 -0.1460
 7034TIP3    H145297   3.584   1.047  12.286  0.7710  0.1486 -0.5281
 7034TIP3    H245298   3.562   1.053  12.436  0.9870 -1.7432 -0.3918
 7035TIP3   OH245299   5.375   0.190  12.129 -0.6327 -0.0008 -0.4054
 7035TIP3    H145300   5.318   0.152  12.196 -2.2249 -0.3459 -1.8484
 7035TIP3    H245301   5.374   0.125  12.058  2.2313 -0.3659 -0.2067
 7036TIP3   OH245302   0.216   6.132  11.977  0.4967  0.1357 -0.0155
 7036TIP3    H145303   0.154   6.143  11.905  0.5037 -2.3315 -0.5069
 7036TIP3    H245304   0.298   6.108  11.934  1.1844  1.0344  0.7402
 7037TIP3   OH245305   7.336   0.331  11.391  0.1768 -0.0266  0.0597
 7037TIP3    H145306   7.253   0.287  11.403  1.1015 -1.3559  2.0385
 7037TIP3    H245307   7.350   0.331  11.296 -1.6944 -0.4245 -0.2464
 7038TIP3   OH245308   1.246   6.111  18.926 -0.1346 -0.5892  0.0903
 7038TIP3    H145309   1.337   6.088  18.947 -0.0090  0.6691  1.0359
 7038TIP3    H245310   1.211   6.144  19.009 -1.3202 -0.6323 -0.3835
 7039TIP3   OH245311   1.260   7.531  12.072 -0.7138  0.1335  0.4427
 7039TIP3    H145312   1.273   7.626  12.077 -3.4249  0.6417 -0.6228
 7039TIP3    H245313   1.237   7.514  11.981 -0.0286 -1.6259  0.5554
 7040TIP3   OH245314   5.809   1.692  13.200  0.1283 -0.2930  0.2978
 7040TIP3    H145315   5.715   1.704  13.187  0.1714 -1.5479 -1.5748
 7040TIP3    H245316   5.825   1.601  13.176  1.7793 -0.2086  0.9465
 7041TIP3   OH245317   4.034   3.341  11.896 -0.7670  0.7797 -0.4388
 7041TIP3    H145318   4.019   3.278  11.825 -1.4259 -0.3205  0.6409
 7041TIP3    H245319   4.124   3.325  11.923 -1.4709 -1.0217  1.0319
 7042TIP3   OH245320   1.918   6.900  11.794 -0.1001 -0.2391  0.3236
 7042TIP3    H145321   1.924   6.960  11.719 -1.7895  0.0212  0.3465
 7042TIP3    H245322   1.840   6.847  11.776  0.0833 -0.9043  1.3889
 7043TIP3   OH245323   4.270   0.854  11.655 -0.1972 -0.1756  0.0956
 7043TIP3    H145324   4.284   0.856  11.560 -0.6672  1.4326  0.0234
 7043TIP3    H245325   4.176   0.866  11.666  0.0395  1.4092  0.7619
 7044TIP3   OH245326   5.429   4.284  12.233  0.6490 -0.2702 -0.0072
 7044TIP3    H145327   5.515   4.269  12.273  0.4347  0.2384  0.6747
 7044TIP3    H245328   5.371   4.221  12.277  0.4886  0.0211  0.1977
 7045TIP3   OH245329   2.336   4.916  11.340  0.3154 -0.1669 -0.0427
 7045TIP3    H145330   2.426   4.946  11.354  0.0723 -0.2667  2.2140
 7045TIP3    H245331   2.308   4.959  11.260  1.8734  1.0659  0.0267
 7046TIP3   OH245332   4.849   2.868  11.746  0.0312  0.2643  0.3088
 7046TIP3    H145333   4.823   2.934  11.682  0.9455  0.2080 -0.1314
 7046TIP3    H245334   4.812   2.786  11.713  1.8217 -0.0602 -1.0362
 7047TIP3   OH245335   7.667   0.027  10.405  0.3437 -0.2449 -0.2634
 7047TIP3    H145336   7.757   0.002  10.425  0.2330  0.0987  0.7126
 7047TIP3    H245337   7.653   0.107  10.455  0.5956  1.6820 -2.9998
 7048TIP3   OH245338   3.216   5.513  11.139 -0.0045 -0.0684  0.5634
 7048TIP3    H145339   3.292   5.571  11.137 -0.3748  0.5929  2.5559
 7048TIP3    H245340   3.231   5.450  11.069  1.9334  0.5828  0.3348
 7049TIP3   OH245341   3.191   6.250  11.794 -0.2692  0.3140  0.4093
 7049TIP3    H145342   3.196   6.174  11.735  0.9556  0.8534 -0.2222
 7049TIP3    H245343   3.112   6.236  11.845 -0.9192 -0.5972 -0.8058
 7050TIP3   OH245344   7.304   7.477  10.870 -0.1048  0.0467 -0.3321
 7050TIP3    H145345   7.210   7.465  10.882 -0.3636  0.1178 -2.0479
 7050TIP3    H245346   7.317   7.571  10.875 -0.2864  0.1148 -0.9619
 7051TIP3   OH245347   5.914   3.636  10.601 -0.4561  0.5121  0.0290
 7051TIP3    H145348   5.850   3.565  10.596 -0.6898  0.5338  1.9011
 7051TIP3    H245349   5.962   3.619  10.681  2.2890  0.2295 -1.5604
 7052TIP3   OH245350   0.160   6.935  13.097 -0.4482 -0.1420  0.4468
 7052TIP3    H145351   0.215   6.995  13.047 -0.3588 -2.4159 -2.4750
 7052TIP3    H245352   0.075   6.978  13.103 -0.0075  0.8694 -0.3598
 7053TIP3   OH245353   0.614   4.710  11.571 -0.2395  0.4452  0.1012
 7053TIP3    H145354   0.576   4.693  11.485  0.5551 -0.8779 -0.0105
 7053TIP3    H245355   0.668   4.788  11.559  2.8052 -1.7329 -1.5975
 7054TIP3   OH245356   4.484   4.667  11.641  0.3033  0.6592 -0.1773
 7054TIP3    H145357   4.421   4.729  11.605 -0.9309 -0.9806 -0.9996
 7054TIP3    H245358   4.551   4.721  11.683 -2.2889  2.4676  1.8983
 7055TIP3   OH245359   4.703   5.382  11.200 -0.4161  0.2470  0.2269
 7055TIP3    H145360   4.728   5.474  11.194 -2.3945  0.7477 -1.3527
 7055TIP3    H245361   4.613   5.384  11.232 -0.1880 -1.2061  1.0328
 7056TIP3   OH245362   6.749   6.444  11.223  0.0352  0.1359 -0.7797
 7056TIP3    H145363   6.765   6.395  11.142 -1.7068 -0.5631 -0.7369
 7056TIP3    H245364   6.655   6.459  11.224  0.0958  0.6031  0.8759
 7057TIP3   OH245365   1.659   3.845  13.036 -0.0292 -0.5892 -0.1552
 7057TIP3    H145366   1.574   3.800  13.034 -0.2173 -0.2764  0.5295
 7057TIP3    H245367   1.637   3.937  13.051  0.4230 -0.4654 -0.2309
 7058TIP3   OH245368   0.127   5.650  11.194  0.3454  0.2814  0.2422
 7058TIP3    H145369   0.105   5.573  11.141  1.8301 -0.4898  0.6795
 7058TIP3    H245370   0.052   5.661  11.253  0.4993 -1.4407  0.8162
 7059TIP3   OH245371   0.795   2.847  13.395 -0.1389 -0.1197 -0.1865
 7059TIP3    H145372   0.861   2.908  13.427  0.3741  0.1461 -1.6593
 7059TIP3    H245373   0.837   2.761  13.402  0.4638  0.0658 -1.2899
 7060TIP3   OH245374   1.790   3.277  10.732 -0.0297  0.8451 -0.3771
 7060TIP3    H145375   1.768   3.206  10.671 -0.0931 -0.1065  0.7165
 7060TIP3    H245376   1.706   3.316  10.754 -0.1426  0.3608  0.0686
 7061TIP3   OH245377   7.455   4.004  11.818 -0.0279  0.4030 -0.0287
 7061TIP3    H145378   7.481   4.028  11.728  2.8238  0.7014  0.7615
 7061TIP3    H245379   7.499   3.920  11.833 -1.3159 -0.1405  0.7703
 7062TIP3   OH245380   4.330   6.324  11.542 -0.0427 -0.4959 -0.3092
 7062TIP3    H145381   4.406   6.328  11.600  0.6134 -0.1128 -1.1810
 7062TIP3    H245382   4.274   6.397  11.571  0.8026  0.3897 -0.8554
 7063TIP3   OH245383   2.246   4.415  12.521 -0.6362  0.2976  0.1167
 7063TIP3    H145384   2.220   4.341  12.577 -0.2135  1.6337  2.1862
 7063TIP3    H245385   2.306   4.377  12.458 -1.0269 -1.2749  0.6432
 7064TIP3   OH245386   6.300   0.181  11.884  0.1325 -0.5433  0.3458
 7064TIP3    H145387   6.360   0.244  11.846 -0.4489  0.6527  1.3355
 7064TIP3    H245388   6.220   0.190  11.831  0.2651 -0.9499  0.0680
 7065TIP3   OH245389   6.235   5.979  11.924 -0.1233  0.2808 -0.2929
 7065TIP3    H145390   6.140   5.967  11.935  0.0558 -0.7050  0.2645
 7065TIP3    H245391   6.242   6.058  11.870 -1.2158  1.3979  1.1155
 7066TIP3   OH245392   1.471   0.071  11.089 -0.2499 -0.3181  0.6725
 7066TIP3    H145393   1.409   0.125  11.039 -1.2292  1.7326  3.8237
 7066TIP3    H245394   1.519   0.133  11.144  1.9551 -2.2674  1.1299
 7067TIP3   OH245395   4.414   0.837  10.909 -0.4516 -0.1799  0.0256
 7067TIP3    H145396   4.339   0.777  10.905 -1.8218  1.5078 -1.1973
 7067TIP3    H245397   4.396   0.903  10.842  1.2659  1.2812  0.9050
 7068TIP3   OH245398   3.075   1.331  10.777 -0.2243  0.2060  0.3916
 7068TIP3    H145399   2.982   1.346  10.793 -0.5858 -1.1735 -0.2395
 7068TIP3    H245400   3.088   1.238  10.795  0.9123  0.2605 -0.0465
 7069TIP3   OH245401   2.048   3.488  12.006 -0.2205  0.1260  0.8357
 7069TIP3    H145402   2.143   3.477  12.015 -0.0787  0.6298 -0.0149
 7069TIP3    H245403   2.037   3.565  11.951 -1.1278 -0.0322  0.7736
 7070TIP3   OH245404   3.197   0.999  11.788 -0.1583 -0.0734 -0.2247
 7070TIP3    H145405   3.119   1.032  11.744 -0.4411  0.5298  0.7266
 7070TIP3    H245406   3.228   0.929  11.730 -1.1101  0.0106 -0.8644
 7071TIP3   OH245407   2.221   1.652  12.262 -0.8020  0.1042  0.5141
 7071TIP3    H145408   2.159   1.692  12.323 -0.0135 -0.2815  1.6219
 7071TIP3    H245409   2.305   1.656  12.308 -0.0170  0.5239 -0.9052
 7072TIP3   OH245410   7.472   1.228  12.712  0.8122  1.1412 -0.0364
 7072TIP3    H145411   7.487   1.293  12.643 -0.6144  0.5651 -0.9259
 7072TIP3    H245412   7.509   1.147  12.676  0.4612  0.9378  0.0638
 7073TIP3   OH245413   2.472   6.121  11.257 -0.2119  0.0128 -0.4352
 7073TIP3    H145414   2.377   6.129  11.264 -0.2665  0.6216 -1.5944
 7073TIP3    H245415   2.505   6.159  11.338 -0.9786 -1.2320  0.4928
 7074TIP3   OH245416   3.516   7.282  10.877 -0.5547 -0.2714  0.7949
 7074TIP3    H145417   3.500   7.209  10.817 -0.6883  1.5827 -1.5540
 7074TIP3    H245418   3.611   7.283  10.888 -0.4221  0.0761 -0.3353
 7075TIP3   OH245419   3.159   1.720  11.980  0.2826 -0.3001 -0.0625
 7075TIP3    H145420   3.196   1.725  11.891 -0.0030 -0.2385 -0.1770
 7075TIP3    H245421   3.072   1.684  11.968  0.5179 -1.0022  0.2681
 7076TIP3   OH245422   5.247   7.436  11.712 -0.2615 -0.7103  0.2177
 7076TIP3    H145423   5.183   7.470  11.775 -0.1093  0.0285 -0.0207
 7076TIP3    H245424   5.202   7.440  11.628  0.5972  1.3234 -0.2171
 7077TIP3   OH245425   2.244   4.638  12.202  0.0284  0.0841 -0.3578
 7077TIP3    H145426   2.305   4.700  12.242 -0.3599  1.0682 -1.2625
 7077TIP3    H245427   2.275   4.628  12.112  0.0015 -0.9406 -0.2701
 7078TIP3   OH245428   1.033   7.402  12.503 -0.0922 -0.4094 -0.3032
 7078TIP3    H145429   1.011   7.330  12.562  0.5025 -1.7229 -1.6358
 7078TIP3    H245430   1.128   7.409  12.508 -0.0801 -0.2442 -0.7814
 7079TIP3   OH245431   5.572   1.932  12.304 -0.3159 -0.2168 -0.1106
 7079TIP3    H145432   5.523   1.981  12.239 -1.2923  0.2940  0.9807
 7079TIP3    H245433   5.508   1.909  12.371  1.1205  1.7618  2.1174
 7080TIP3   OH245434   5.452   7.214  10.926  0.1896 -0.1555 -0.3941
 7080TIP3    H145435   5.497   7.196  11.008  2.3316 -0.5366 -1.5643
 7080TIP3    H245436   5.511   7.274  10.879 -1.4994  0.9339 -1.2108
 7081TIP3   OH245437   5.075   0.219  12.219 -0.0475 -0.0806 -0.2057
 7081TIP3    H145438   5.128   0.254  12.290 -0.2755 -0.6509  0.2608
 7081TIP3    H245439   5.123   0.241  12.140  0.7471 -0.3393  0.1902
 7082TIP3   OH245440   5.674   3.853  12.289  0.0725 -0.2525  0.1619
 7082TIP3    H145441   5.678   3.781  12.227 -1.2068  0.0728 -0.3251
 7082TIP3    H245442   5.619   3.821  12.361 -1.0108  0.4177 -0.3429
 7083TIP3   OH245443   4.188   3.730  12.440 -0.4694  0.6820 -0.5003
 7083TIP3    H145444   4.257   3.664  12.440  1.1723  2.2331 -2.8771
 7083TIP3    H245445   4.219   3.798  12.500 -0.1410  1.1399 -1.1735
 7084TIP3   OH245446   4.863   5.908  10.620  0.0321 -0.1996 -0.4055
 7084TIP3    H145447   4.830   5.919  10.531  0.2895 -0.0891 -0.4898
 7084TIP3    H245448   4.810   5.837  10.657 -0.3772  0.0582 -0.4944
 7085TIP3   OH245449   1.992   2.617  12.630  0.0321 -0.3083  0.0159
 7085TIP3    H145450   1.944   2.576  12.558 -1.3661  0.5778  0.4118
 7085TIP3    H245451   2.051   2.679  12.586 -0.5246 -0.0625 -0.3957
 7086TIP3   OH245452   2.629   0.679  11.657 -0.2410  0.1970 -0.3225
 7086TIP3    H145453   2.618   0.608  11.593  1.6585  0.8536 -1.4402
 7086TIP3    H245454   2.722   0.702  11.653 -0.3452  1.2394  1.6765
 7087TIP3   OH245455   6.840   6.915  12.436  0.3218  0.3492 -0.5151
 7087TIP3    H145456   6.812   6.857  12.507 -0.4171  1.2276 -0.0743
 7087TIP3    H245457   6.924   6.950  12.464 -0.0665  0.8564  0.0388
 7088TIP3   OH245458   1.344   0.971  12.441  0.9682  0.4434  0.2313
 7088TIP3    H145459   1.256   1.001  12.460  0.9044  0.1079  0.4743
 7088TIP3    H245460   1.399   1.049  12.454  0.9737  0.1873  2.0994
 7089TIP3   OH245461   4.514   1.563  12.725  0.1930  0.0587  0.3734
 7089TIP3    H145462   4.578   1.581  12.656  0.2847 -0.8854  0.2032
 7089TIP3    H245463   4.536   1.624  12.795  2.1783 -1.1517  0.8792
 7090TIP3   OH245464   1.503   2.031  11.630 -0.5966 -0.5319  0.1961
 7090TIP3    H145465   1.470   2.120  11.642 -1.9524 -0.8113 -1.2076
 7090TIP3    H245466   1.596   2.043  11.611 -0.8203  0.6195 -0.2572
 7091TIP3   OH245467   0.523   5.760  12.900 -0.0869 -0.4330 -0.4400
 7091TIP3    H145468   0.508   5.811  12.980  0.2000 -1.1866  0.1076
 7091TIP3    H245469   0.585   5.692  12.927 -2.6278 -2.9029 -0.3680
 7092TIP3   OH245470   3.087   3.865  12.625  0.6733 -0.8174  0.0031
 7092TIP3    H145471   3.101   3.823  12.710  0.4889  1.0586  1.0078
 7092TIP3    H245472   3.162   3.923  12.615 -1.0830  1.6999  0.6532
 7093TIP3   OH245473   1.678   3.007  10.682  0.2425 -0.2618 -0.5686
 7093TIP3    H145474   1.731   2.937  10.721 -1.8056 -1.4046  0.3556
 7093TIP3    H245475   1.588   2.986  10.708 -0.4982  2.5925 -0.5037
 7094TIP3   OH245476   6.255   1.906  13.326  0.1602 -1.1785 -0.1893
 7094TIP3    H145477   6.292   1.820  13.343 -1.6739 -2.3062 -1.4720
 7094TIP3    H245478   6.170   1.888  13.287  0.6191  1.1782 -2.5920
 7095TIP3   OH245479   0.654   7.033  11.991 -0.1813 -0.1791  0.3438
 7095TIP3    H145480   0.644   7.110  11.935 -1.5478 -0.9084 -0.4700
 7095TIP3    H245481   0.582   7.041  12.054  1.2248  0.5369  1.9522
 7096TIP3   OH245482   5.609   6.439  11.779 -0.1414  0.3811  0.4753
 7096TIP3    H145483   5.686   6.402  11.822  0.9134  0.6637 -1.1101
 7096TIP3    H245484   5.590   6.518  11.829  1.1498  0.7876  0.3567
 7097TIP3   OH245485   2.122   4.816  11.690 -0.2974  0.1934 -0.0076
 7097TIP3    H145486   2.065   4.740  11.693  1.2808 -1.0584  2.7385
 7097TIP3    H245487   2.160   4.816  11.602 -2.3689 -0.5245 -0.9495
 7098TIP3   OH245488   1.503   0.469  11.711  0.4495  0.0891  0.4259
 7098TIP3    H145489   1.483   0.560  11.733 -2.1225 -0.3174  0.1265
 7098TIP3    H245490   1.423   0.421  11.734  0.8336 -1.7053 -1.6423
 7099TIP3   OH245491   3.613   1.444  10.665  0.3050 -0.0519  0.0202
 7099TIP3    H145492   3.677   1.516  10.671  0.4764 -0.2126  0.1427
 7099TIP3    H245493   3.559   1.466  10.589 -0.8432  1.1858  1.1303
 7100TIP3   OH245494   5.541   0.090  11.265 -0.2626  0.7469  0.3161
 7100TIP3    H145495   5.577   0.164  11.217 -0.9091  0.4148 -0.6967
 7100TIP3    H245496   5.613   0.026  11.269 -0.0607  0.9672  0.2039
 7101TIP3   OH245497   1.167   6.654  11.570 -0.3943  0.1915 -0.3794
 7101TIP3    H145498   1.153   6.745  11.593 -0.6475  0.2132 -0.6171
 7101TIP3    H245499   1.094   6.607  11.613 -0.3221  0.1138 -0.3416
 7102TIP3   OH245500   0.634   1.869  10.554 -0.0352 -0.3146  0.0276
 7102TIP3    H145501   0.547   1.899  10.528 -0.6275 -0.6242  1.5836
 7102TIP3    H245502   0.630   1.774  10.549  1.3897 -0.3486 -3.4358
 7103TIP3   OH245503   0.098   0.585  12.875 -0.0938 -0.1856  0.6812
 7103TIP3    H145504   0.005   0.570  12.857 -0.0254  0.3204 -0.1347
 7103TIP3    H245505   0.130   0.501  12.907 -0.8011 -0.4018  0.8454
 7104TIP3   OH245506   0.856   3.097  13.214 -0.0544 -0.0415 -0.2879
 7104TIP3    H145507   0.903   3.078  13.295  1.2054  1.6924 -0.5615
 7104TIP3    H245508   0.763   3.090  13.238  0.2919  0.3075  1.2571
 7105TIP3   OH245509   0.909   7.294  10.654 -0.5004  0.0318  0.0845
 7105TIP3    H145510   0.834   7.347  10.626  1.0810  1.3873 -1.8242
 7105TIP3    H245511   0.966   7.357  10.699 -0.4271 -0.9767  1.4754
 7106TIP3   OH245512   4.103   4.408  12.510  0.6554 -0.2186 -0.1851
 7106TIP3    H145513   4.147   4.457  12.580  0.9028 -0.2979 -0.2817
 7106TIP3    H245514   4.123   4.317  12.528  0.5827 -0.2510 -0.2675
 7107TIP3   OH245515   0.668   2.532  11.246  0.1142  0.8281 -0.0213
 7107TIP3    H145516   0.669   2.538  11.341  0.0559  3.0803 -0.1000
 7107TIP3    H245517   0.575   2.531  11.223  0.1269  0.7621 -0.0704
 7108TIP3   OH245518   3.349   2.574  12.288 -0.1134 -0.1825  0.1896
 7108TIP3    H145519   3.298   2.554  12.209  0.9179  1.4498 -0.9523
 7108TIP3    H245520   3.284   2.578  12.358 -1.1362 -1.0676 -0.6748
 7109TIP3   OH245521   7.416   6.647  10.538  0.0399 -0.6878 -0.0121
 7109TIP3    H145522   7.382   6.719  10.486  1.5829 -0.1774 -0.3679
 7109TIP3    H245523   7.395   6.671  10.629 -0.4708 -0.3650 -0.2120
 7110TIP3   OH245524   5.944   3.328  12.937  0.3481 -0.4592  0.5262
 7110TIP3    H145525   5.888   3.274  12.993 -0.9061  1.4285  1.1896
 7110TIP3    H245526   6.024   3.341  12.988 -0.5729  0.8031  1.7263
 7111TIP3   OH245527   6.699   4.736  11.942 -0.3692 -0.6761  0.3594
 7111TIP3    H145528   6.660   4.799  11.882 -0.4767 -1.0957 -0.0173
 7111TIP3    H245529   6.674   4.650  11.907  1.9508 -1.0090 -0.6559
 7112TIP3   OH245530   3.560   4.472  12.343 -0.1567 -0.4574  0.2550
 7112TIP3    H145531   3.466   4.486  12.331  0.2053  0.2908 -2.2849
 7112TIP3    H245532   3.597   4.560  12.345  0.7336 -0.7387 -1.6359
 7113TIP3   OH245533   6.048   3.101  13.220 -0.1675 -0.0589 -0.0126
 7113TIP3    H145534   5.980   3.167  13.238 -0.0327 -0.2357  1.2507
 7113TIP3    H245535   6.000   3.019  13.213 -0.2606  0.0635 -0.8804
 7114TIP3   OH245536   4.641   4.471  11.484  0.0806 -0.0490 -0.1084
 7114TIP3    H145537   4.732   4.488  11.460  0.2462  1.5192  1.4345
 7114TIP3    H245538   4.634   4.501  11.575 -1.8155 -0.7632  0.0223
 7115TIP3   OH245539   0.738   5.280  10.687 -0.2266 -0.6878 -0.4161
 7115TIP3    H145540   0.830   5.280  10.662 -0.2202  0.4666 -0.4549
 7115TIP3    H245541   0.694   5.329  10.617 -0.7409 -0.5530 -0.0064
 7116TIP3   OH245542   6.894   2.268  11.415  0.6864  0.0333 -0.3276
 7116TIP3    H145543   6.912   2.348  11.464 -1.2213  0.6859 -0.6187
 7116TIP3    H245544   6.917   2.289  11.325  0.2331  0.2595 -0.3950
 7117TIP3   OH245545   0.617   4.277  11.791  0.6668 -0.2662  0.2467
 7117TIP3    H145546   0.569   4.195  11.803 -0.1032  0.3630  1.8314
 7117TIP3    H245547   0.709   4.253  11.802  0.4348 -0.8854  0.9043
 7118TIP3   OH245548   5.004   6.384  11.024  0.0227 -0.3111 -0.0492
 7118TIP3    H145549   4.973   6.465  11.065  1.2438  0.7755 -1.1757
 7118TIP3    H245550   5.061   6.413  10.953  0.0472 -2.1719 -0.8499
 7119TIP3   OH245551   7.186   3.428  13.033  0.1774  0.0602 -0.2982
 7119TIP3    H145552   7.167   3.491  13.103  0.9212 -0.1118  0.0689
 7119TIP3    H245553   7.190   3.343  13.078 -1.4996 -0.3758 -0.8884
 7120TIP3   OH245554   6.463   0.312  10.880  1.0501 -0.3673 -0.4971
 7120TIP3    H145555   6.537   0.362  10.844  1.7366 -0.6492  0.4862
 7120TIP3    H245556   6.465   0.230  10.831 -0.1786  0.5639 -2.2344
 7121TIP3   OH245557   4.707   1.573  13.199  0.4540  0.2881 -0.3299
 7121TIP3    H145558   4.778   1.548  13.139  0.2542  0.0818 -0.4813
 7121TIP3    H245559   4.725   1.665  13.219  0.5480  0.3494 -0.6765
 7122TIP3   OH245560   5.703   3.990  11.135  0.6080 -0.3348  0.1803
 7122TIP3    H145561   5.752   3.917  11.173  2.1476  0.4968 -0.1004
 7122TIP3    H245562   5.731   3.992  11.043 -2.3060 -1.7127 -0.8518
 7123TIP3   OH245563   1.781   1.348  12.613  0.4539  0.7107  0.0632
 7123TIP3    H145564   1.869   1.329  12.582  0.8352 -0.2339  1.6186
 7123TIP3    H245565   1.779   1.443  12.623  1.7263  0.6559  1.1555
 7124TIP3   OH245566   2.450   2.934  10.936  0.0113  0.9087 -0.0908
 7124TIP3    H145567   2.511   2.936  10.862 -0.0800 -1.6045 -0.3184
 7124TIP3    H245568   2.439   2.841  10.955 -2.3030  1.3769  1.1675
 7125TIP3   OH245569   0.254   5.016  10.421 -0.2076 -0.2951 -0.0404
 7125TIP3    H145570   0.253   4.945  10.356  0.1832 -1.7390  1.4631
 7125TIP3    H245571   0.167   5.012  10.461  0.3703 -1.0718  1.1946
 7126TIP3   OH245572   3.348   0.446  11.566 -0.0352  0.0289  0.3011
 7126TIP3    H145573   3.293   0.481  11.496  0.1429 -0.4125 -0.0604
 7126TIP3    H245574   3.407   0.518  11.587 -0.5597  0.4079  0.4949
 7127TIP3   OH245575   3.587   5.760  11.790  0.4393  0.2933  0.1425
 7127TIP3    H145576   3.583   5.837  11.847  1.2828  1.0157 -0.7399
 7127TIP3    H245577   3.676   5.762  11.754 -0.3285  0.3347 -1.8631
 7128TIP3   OH245578   6.205   1.752  11.609  0.0662 -0.0068  1.2340
 7128TIP3    H145579   6.142   1.824  11.604  0.4576  0.2719 -0.4255
 7128TIP3    H245580   6.284   1.790  11.646  0.7983  0.8761 -1.0813
 7129TIP3   OH245581   5.313   1.495  12.936  0.2058  0.3224 -0.4574
 7129TIP3    H145582   5.330   1.518  13.027 -0.4382  0.4267 -0.3553
 7129TIP3    H245583   5.243   1.429  12.941  0.7369 -0.2803 -0.8348
 7130TIP3   OH245584   2.303   3.889  12.573  0.3169 -0.0697 -0.6726
 7130TIP3    H145585   2.274   3.799  12.557 -1.2031  0.0666  0.9563
 7130TIP3    H245586   2.355   3.912  12.496 -2.8213 -0.8457 -3.2324
 7131TIP3   OH245587   0.900   2.370  10.564 -0.2543 -0.2038  0.4649
 7131TIP3    H145588   0.829   2.429  10.590 -0.2802 -0.5549  1.2130
 7131TIP3    H245589   0.955   2.363  10.642 -0.7814 -1.9469  0.7077
 7132TIP3   OH245590   0.714   5.398  11.588 -0.2736  0.7633 -0.3670
 7132TIP3    H145591   0.727   5.492  11.575 -1.6910  0.8215 -1.6901
 7132TIP3    H245592   0.637   5.392  11.643  2.2797  0.3618  3.5482
 7133TIP3   OH245593   7.008   2.959  10.191 -0.0837 -0.3346  0.5773
 7133TIP3    H145594   7.048   3.043  10.216  0.0988 -0.6509  1.3787
 7133TIP3    H245595   6.925   2.957  10.239  0.3088 -0.9842  1.2630
 7134TIP3   OH245596   5.329   2.921  11.049  0.1131 -0.2522  0.4903
 7134TIP3    H145597   5.386   2.969  11.108 -0.5969  1.6161 -0.2753
 7134TIP3    H245598   5.389   2.880  10.986  0.6815  0.8961  0.2575
 7135TIP3   OH245599   3.806   4.891  13.125 -0.5255 -0.1172  0.0475
 7135TIP3    H145600   3.868   4.826  13.160  0.0322 -1.1070 -2.5070
 7135TIP3    H245601   3.811   4.879  13.030 -0.5684  3.5490 -0.5622
 7136TIP3   OH245602   0.577   2.901  12.772  0.7113 -0.1005 -0.6116
 7136TIP3    H145603   0.622   2.832  12.820 -1.1449  0.2407  1.7621
 7136TIP3    H245604   0.543   2.960  12.839 -1.4666  0.7838 -2.3521
 7137TIP3   OH245605   7.382   6.364  11.254  0.0132 -0.0394  0.3567
 7137TIP3    H145606   7.345   6.367  11.166  0.2951 -0.5435  0.2214
 7137TIP3    H245607   7.400   6.456  11.275 -0.1062  0.0887 -0.0871
 7138TIP3   OH245608   6.447   6.239  10.383 -0.4345 -0.3026  0.0137
 7138TIP3    H145609   6.492   6.183  10.320 -0.1532  0.1593 -0.2015
 7138TIP3    H245610   6.354   6.223  10.367 -0.3984  0.6471 -1.3192
 7139TIP3   OH245611   6.593   6.972  13.196  0.0085 -0.4838  0.1558
 7139TIP3    H145612   6.646   6.924  13.132 -0.4749 -3.5810  1.8557
 7139TIP3    H245613   6.654   6.992  13.267  0.2957  1.9594 -0.6946
 7140TIP3   OH245614   6.339   2.000  11.059  0.2801  0.1110  0.0279
 7140TIP3    H145615   6.332   1.984  11.153 -1.4083  0.6161  0.0187
 7140TIP3    H245616   6.258   2.045  11.036  1.8525  2.5046 -1.1796
 7141TIP3   OH245617   3.580   5.136  11.261 -0.8259  0.0803 -0.4071
 7141TIP3    H145618   3.572   5.225  11.227  1.8390  1.2185  1.6466
 7141TIP3    H245619   3.601   5.083  11.184 -0.0586  1.6640 -1.3301
 7142TIP3   OH245620   0.689   2.759  11.665 -0.3578 -0.0246  0.2770
 7142TIP3    H145621   0.635   2.760  11.744 -1.7620  1.8499 -0.6355
 7142TIP3    H245622   0.759   2.822  11.683 -0.5568  0.2445  0.1158
 7143TIP3   OH245623   3.064   5.966  13.545 -0.5584  0.9801 -0.0269
 7143TIP3    H145624   3.020   5.880  13.544  0.3625  0.4204  2.3634
 7143TIP3    H245625   2.994   6.028  13.526 -1.4795 -0.2041 -0.6776
 7144TIP3   OH245626   6.571   1.255  12.491 -0.2192 -0.3251 -0.2288
 7144TIP3    H145627   6.645   1.229  12.436 -0.5157  0.8504 -1.2222
 7144TIP3    H245628   6.494   1.228  12.441 -0.4850  0.3956 -0.2186
 7145TIP3   OH245629   6.862   2.877  12.660 -0.0612 -0.2876 -0.5722
 7145TIP3    H145630   6.796   2.811  12.640  0.3041 -0.7145 -0.3780
 7145TIP3    H245631   6.872   2.874  12.755 -1.0424  1.0228 -0.3815
 7146TIP3   OH245632   3.045   5.086  11.666  0.4974  0.8605 -0.3193
 7146TIP3    H145633   3.057   5.001  11.708  0.7873  1.1114  0.1125
 7146TIP3    H245634   3.005   5.140  11.734  0.8265  1.2254 -0.4153
 7147TIP3   OH245635   5.431   5.140  11.729  0.0972  0.4147  0.2091
 7147TIP3    H145636   5.436   5.169  11.638  0.5393 -0.4249 -0.0472
 7147TIP3    H245637   5.461   5.049  11.726 -0.4195  0.2127  1.1123
 7148TIP3   OH245638   5.966   5.719  12.758 -0.0909  0.0393 -0.3209
 7148TIP3    H145639   6.040   5.659  12.767 -0.4571 -0.3133  0.3547
 7148TIP3    H245640   5.970   5.774  12.836  0.3398  1.0227 -1.0104
 7149TIP3   OH245641   1.968   4.109  11.156 -0.7973  0.3436 -0.3816
 7149TIP3    H145642   1.987   4.050  11.229  1.4643 -3.1184 -3.4039
 7149TIP3    H245643   1.998   4.195  11.186  0.0969 -0.9115  2.6754
 7150TIP3   OH245644   6.702   1.357  11.614  0.2858  0.3377 -0.3287
 7150TIP3    H145645   6.647   1.385  11.688  0.9402 -1.3025  0.8254
 7150TIP3    H245646   6.732   1.439  11.574  0.0371  1.2647  1.3110
 7151TIP3   OH245647   2.250   2.168  10.825 -0.7869 -0.0505  0.0948
 7151TIP3    H145648   2.171   2.203  10.783 -0.5260  1.6630  0.9664
 7151TIP3    H245649   2.249   2.206  10.913  1.5970  0.9587 -0.2450
 7152TIP3   OH245650   4.256   2.169  12.754  0.0733 -0.5212 -0.0597
 7152TIP3    H145651   4.276   2.208  12.670  0.2304 -0.7352 -0.1243
 7152TIP3    H245652   4.194   2.228  12.795  1.9982  1.0203  0.8161
 7153TIP3   OH245653   6.088   1.914  12.203 -0.1459 -0.8438 -0.1616
 7153TIP3    H145654   5.997   1.886  12.212 -0.2506 -0.1023  1.4458
 7153TIP3    H245655   6.139   1.841  12.239 -0.3770  0.4420  3.1315
 7154TIP3   OH245656   1.580   3.514  12.922  0.7044  0.1798 -0.3035
 7154TIP3    H145657   1.527   3.587  12.955  0.3156  0.6586 -1.9099
 7154TIP3    H245658   1.587   3.455  12.997 -0.8277  0.8278  0.4120
 7155TIP3   OH245659   5.826   6.127  12.501  0.3828 -0.1623 -0.3681
 7155TIP3    H145660   5.868   6.162  12.580  2.2964 -0.9336 -0.9885
 7155TIP3    H245661   5.815   6.034  12.519 -0.7756 -0.0393 -0.3673
 7156TIP3   OH245662   3.100   7.657  13.422 -0.4114  0.6903  0.0408
 7156TIP3    H145663   3.076   7.654  13.514  1.9423  0.6631  0.7204
 7156TIP3    H245664   3.033   7.605  13.378 -0.5152 -0.9782  2.0103
 7157TIP3   OH245665   2.993   6.739  11.026  0.0638 -0.6633 -0.1450
 7157TIP3    H145666   2.973   6.832  11.032 -0.0055 -0.5551 -1.7380
 7157TIP3    H245667   3.079   6.736  10.984  0.4865 -1.3068  0.7383
 7158TIP3   OH245668   1.127   4.567  12.237  0.0326  0.2296 -0.1770
 7158TIP3    H145669   1.054   4.509  12.215 -1.3059  1.2337  1.3737
 7158TIP3    H245670   1.198   4.508  12.262 -1.0429 -0.7704  0.6331
 7159TIP3   OH245671   7.096   0.730  12.185 -0.6578  0.6941 -0.6845
 7159TIP3    H145672   7.189   0.720  12.167 -0.7196  0.5004 -0.8940
 7159TIP3    H245673   7.089   0.815  12.229 -0.1946  0.0805  0.6280
 7160TIP3   OH245674   6.844   4.349  11.762  0.3204 -0.2258  0.3069
 7160TIP3    H145675   6.758   4.358  11.721  0.4058  1.3096  0.4184
 7160TIP3    H245676   6.827   4.296  11.840 -0.8385  1.3129  1.1580
 7161TIP3   OH245677   3.893   7.318  12.540 -0.1818 -0.7850  0.0499
 7161TIP3    H145678   3.843   7.247  12.580  1.5328 -1.3755  1.2714
 7161TIP3    H245679   3.973   7.324  12.593 -0.8053  2.9288  0.7758
 7162TIP3   OH245680   3.300   7.183  11.476 -0.0365 -0.1079 -0.2446
 7162TIP3    H145681   3.320   7.113  11.538 -0.2271 -0.2384 -0.3261
 7162TIP3    H245682   3.228   7.231  11.516 -0.4765 -0.4762 -0.5683
 7163TIP3   OH245683   1.232   0.040  11.226 -0.0814  0.0183 -0.2680
 7163TIP3    H145684   1.303  -0.007  11.183  0.9755  2.5972 -1.5858
 7163TIP3    H245685   1.273   0.081  11.302 -0.2622  1.0139 -0.6904
 7164TIP3   OH245686   3.680   1.788  10.739  0.1245 -0.0281  0.5741
 7164TIP3    H145687   3.712   1.876  10.718 -0.7650  0.2018  0.1376
 7164TIP3    H245688   3.744   1.729  10.698  0.7376  0.4079  0.8854
 7165TIP3   OH245689   0.419   5.500  11.117  0.2676 -0.1749 -0.1421
 7165TIP3    H145690   0.464   5.538  11.041 -1.4016 -0.0677 -1.1411
 7165TIP3    H245691   0.339   5.552  11.125  0.1570 -0.5562  1.3696
 7166TIP3   OH245692   0.877   2.564  10.910 -0.1779 -0.2668 -0.2774
 7166TIP3    H145693   0.950   2.521  10.865 -1.0645 -0.0330 -2.0215
 7166TIP3    H245694   0.875   2.524  10.997  1.2854 -1.1100 -0.6076
 7167TIP3   OH245695   5.559   3.738  10.953  0.2138 -0.7879  0.3289
 7167TIP3    H145696   5.620   3.811  10.966 -1.1968  0.4585  0.1841
 7167TIP3    H245697   5.616   3.662  10.939  1.7574 -0.0612  2.1502
 7168TIP3   OH245698   1.122   4.318  10.831 -0.0212 -0.2757  0.4372
 7168TIP3    H145699   1.036   4.275  10.827  0.6244 -1.5725 -0.0355
 7168TIP3    H245700   1.185   4.246  10.826  1.1285  0.7673 -2.0143
 7169TIP3   OH245701   6.252   2.323  11.728 -0.0440 -0.4166 -0.4981
 7169TIP3    H145702   6.165   2.336  11.765 -0.0691  0.6435 -0.9037
 7169TIP3    H245703   6.312   2.360  11.794  0.0105 -0.0030 -0.7727
 7170TIP3   OH245704   6.367   4.300  10.762 -0.4381  0.3954 -0.2470
 7170TIP3    H145705   6.279   4.279  10.731 -2.1118  0.9568  3.5051
 7170TIP3    H245706   6.394   4.374  10.708 -2.6537  0.7276 -1.0291
 7171TIP3   OH245707   3.099   0.232  13.032  0.7391  0.3147  0.3592
 7171TIP3    H145708   3.155   0.188  13.095  0.5943  0.9397  0.9313
 7171TIP3    H245709   3.041   0.164  12.999  0.0374  0.2015  1.7631
 7172TIP3   OH245710   6.832   1.066  11.268 -0.0601 -0.0659 -0.1517
 7172TIP3    H145711   6.911   1.049  11.215  2.2913 -2.1410  3.5901
 7172TIP3    H245712   6.773   0.994  11.246  0.2243 -0.0565 -0.9898
 7173TIP3   OH245713   0.859   1.292  10.975  0.3226  0.2222 -0.4841
 7173TIP3    H145714   0.813   1.327  11.051 -0.1507 -0.0293 -0.6507
 7173TIP3    H245715   0.875   1.368  10.919 -0.5525  0.2204 -0.7663
 7174TIP3   OH245716   1.378   7.286  11.870  0.1070  0.0085  0.5313
 7174TIP3    H145717   1.337   7.349  11.810  1.4774 -2.2694 -3.1389
 7174TIP3    H245718   1.470   7.312  11.872  0.1773 -0.2834  1.2256
 7175TIP3   OH245719   1.977   0.414  10.641 -0.2709  0.1957  0.0567
 7175TIP3    H145720   2.014   0.402  10.553 -0.9174 -1.1159 -0.0502
 7175TIP3    H245721   2.050   0.445  10.694  0.3175  0.2447 -0.7676
 7176TIP3   OH245722   5.187   0.393  10.335 -0.3825  0.0939 -0.3287
 7176TIP3    H145723   5.107   0.443  10.324 -0.4216 -0.2170 -1.6383
 7176TIP3    H245724   5.258   0.455  10.316 -0.3037  0.3499  0.7572
 7177TIP3   OH245725   3.768   2.921  11.613  0.4818  0.0812  0.3012
 7177TIP3    H145726   3.773   2.857  11.684 -0.4170 -1.3873 -0.9043
 7177TIP3    H245727   3.736   3.001  11.656  2.3595  0.0226  1.9789
 7178TIP3   OH245728   6.077   7.425  12.135 -0.0435 -0.1807  0.1376
 7178TIP3    H145729   6.070   7.359  12.204  0.0752  0.5160  0.8367
 7178TIP3    H245730   5.987   7.455  12.122  0.0913  0.5472  0.8578
 7179TIP3   OH245731   7.443   1.832  11.679 -0.5316  0.1001  0.0646
 7179TIP3    H145732   7.458   1.926  11.689  0.2999  0.0196 -0.3341
 7179TIP3    H245733   7.477   1.812  11.592 -1.8828 -0.3437 -0.3917
 7180TIP3   OH245734   0.901   6.701  12.076  0.4626  0.2661 -0.2748
 7180TIP3    H145735   0.979   6.648  12.095 -0.0536 -0.4725 -0.1424
 7180TIP3    H245736   0.828   6.650  12.113 -0.0215  1.2328  0.1295
 7181TIP3   OH245737   4.552   6.331  12.340 -0.0754  0.1335  0.4580
 7181TIP3    H145738   4.476   6.285  12.376  0.1770 -2.5979 -2.0569
 7181TIP3    H245739   4.622   6.316  12.403 -0.3691 -1.9322  0.3686
 7182TIP3   OH245740   0.367   6.126  10.307  0.2234  0.2869 -0.9690
 7182TIP3    H145741   0.445   6.110  10.253 -1.0068  1.9129 -3.4178
 7182TIP3    H245742   0.363   6.222  10.314 -0.8534  0.1656  0.2296
 7183TIP3   OH245743   2.039   4.512  12.354 -0.3563 -0.1526  0.2246
 7183TIP3    H145744   2.098   4.459  12.408 -0.5317  1.8343  2.5496
 7183TIP3    H245745   2.097   4.563  12.298  0.4732  2.9276  3.5547
 7184TIP3   OH245746   5.606   0.793  12.963  0.0754  0.5371  0.2633
 7184TIP3    H145747   5.679   0.854  12.969 -0.9439  2.1826 -2.4435
 7184TIP3    H245748   5.647   0.706  12.973  2.2655  1.4348 -0.3704
 7185TIP3   OH245749   7.462   5.382  11.780 -0.4057 -0.4238 -0.3283
 7185TIP3    H145750   7.438   5.376  11.872  1.1333  0.0899  0.1501
 7185TIP3    H245751   7.557   5.396  11.782 -0.7510  2.9598 -1.8427
 7186TIP3   OH245752   4.131   4.920  11.860  0.2567  0.1942  0.1431
 7186TIP3    H145753   4.068   4.912  11.788 -0.5706  0.1368  0.8520
 7186TIP3    H245754   4.087   4.880  11.934  0.5841  1.3499  0.9907
 7187TIP3   OH245755   5.883   4.372  11.492 -0.1774 -0.4719 -0.0827
 7187TIP3    H145756   5.953   4.436  11.507 -1.2190  0.5313  0.6319
 7187TIP3    H245757   5.849   4.394  11.405  1.0466 -1.6267 -0.8885
 7188TIP3   OH245758   1.328   1.307  10.728  0.6490 -0.0919  0.3677
 7188TIP3    H145759   1.346   1.227  10.679  0.5596 -0.5555  1.0894
 7188TIP3    H245760   1.270   1.280  10.799 -0.5384  0.8549 -0.2070
 7189TIP3   OH245761   0.126   1.961  10.557 -0.1631 -0.1214  0.1728
 7189TIP3    H145762   0.105   2.041  10.605  0.3254  1.2264 -1.7539
 7189TIP3    H245763   0.053   1.950  10.496  0.0694 -0.8160  0.0118
 7190TIP3   OH245764   6.002   1.108  11.401 -0.0621 -0.1814  0.6226
 7190TIP3    H145765   6.040   1.104  11.488  0.8813  1.7834  0.3569
 7190TIP3    H245766   5.925   1.051  11.406  1.2313 -1.9246  2.0305
 7191TIP3   OH245767   2.991   5.318  12.820  0.0367  0.2233 -0.2837
 7191TIP3    H145768   2.973   5.404  12.780 -0.2946  0.2058 -0.1786
 7191TIP3    H245769   2.907   5.272  12.816 -0.4841  0.8522  1.9983
 7192TIP3   OH245770   3.400   0.582  10.817 -0.4271 -0.0464 -0.0687
 7192TIP3    H145771   3.327   0.520  10.823  0.3767 -0.9373  0.7450
 7192TIP3    H245772   3.470   0.541  10.867  0.0147  1.7008  0.7929
 7193TIP3   OH245773   3.678   5.723  11.412 -0.0730  0.0881 -0.1936
 7193TIP3    H145774   3.707   5.688  11.327 -0.0725  0.1611 -0.2234
 7193TIP3    H245775   3.643   5.647  11.458 -0.4316  0.1142 -0.4093
 7194TIP3   OH245776   2.458   6.451  11.548 -0.2068 -0.2127 -0.5436
 7194TIP3    H145777   2.506   6.533  11.535 -0.1007 -0.2537 -0.4144
 7194TIP3    H245778   2.380   6.477  11.596  0.2452 -0.3037  0.2669
 7195TIP3   OH245779   6.705   2.660  10.556  0.7387 -0.1152  0.1019
 7195TIP3    H145780   6.708   2.570  10.588 -0.2487 -0.7552 -1.5068
 7195TIP3    H245781   6.613   2.676  10.535  0.3097  2.3203  3.0459
 7196TIP3   OH245782   6.111   6.261  10.405  0.2782 -0.1440 -0.4465
 7196TIP3    H145783   6.100   6.246  10.499 -0.0329 -3.1526 -0.8628
 7196TIP3    H245784   6.083   6.352  10.392 -1.5302 -0.2154  2.0701
 7197TIP3   OH245785   0.819   6.158  13.027 -0.1093 -0.0727 -0.8744
 7197TIP3    H145786   0.791   6.081  13.077  1.3167  0.3967  0.7087
 7197TIP3    H245787   0.818   6.230  13.090  0.6232  0.7835 -1.8127
 7198TIP3   OH245788   1.332   5.313  13.240 -0.1027 -0.0340  0.4192
 7198TIP3    H145789   1.257   5.345  13.189 -0.6161 -1.1883  0.4090
 7198TIP3    H245790   1.375   5.250  13.182 -1.0566 -1.8400  1.5940
 7199TIP3   OH245791   7.700   3.211  11.363  0.4496  0.0257  0.0144
 7199TIP3    H145792   7.645   3.135  11.345  0.2832  0.3070 -0.7173
 7199TIP3    H245793   7.787   3.185  11.331  1.3589 -1.2590  3.1301
 7200TIP3   OH245794   6.057   4.753  11.146  0.2952 -0.5502 -0.0887
 7200TIP3    H145795   6.126   4.817  11.163 -1.5552  1.0800  1.7728
 7200TIP3    H245796   5.989   4.802  11.100 -1.3016 -1.0309  1.6333
 7201TIP3   OH245797   2.630   6.067  12.449 -0.6180  0.0758  0.2712
 7201TIP3    H145798   2.580   5.989  12.472  1.8333 -1.3978  0.8978
 7201TIP3    H245799   2.704   6.035  12.398  1.1023  1.7972  1.5118
 7202TIP3   OH245800   1.440   6.375  11.929  0.1907  0.2170  0.5216
 7202TIP3    H145801   1.470   6.364  12.019  0.2629 -0.1260  0.4563
 7202TIP3    H245802   1.446   6.469  11.913  1.3330  0.1552  0.4839
 7203TIP3   OH245803   0.715   2.341  11.488 -0.3900  0.1947 -0.2754
 7203TIP3    H145804   0.774   2.315  11.417  0.4851  0.8158  0.2149
 7203TIP3    H245805   0.772   2.355  11.564 -1.2040  0.4635  0.3094
 7204TIP3   OH245806   5.537   4.382  10.847 -0.3697  0.2966 -0.0977
 7204TIP3    H145807   5.573   4.300  10.812 -0.4370  0.0222  0.4553
 7204TIP3    H245808   5.613   4.428  10.882 -0.6438 -0.9142  2.3516
 7205TIP3   OH245809   3.253  -0.004  11.450  0.1249 -0.5653 -0.0142
 7205TIP3    H145810   3.233   0.067  11.510  0.5158 -0.3175 -0.1699
 7205TIP3    H245811   3.172  -0.054  11.443 -0.0516 -0.3342  0.3638
 7206TIP3   OH245812   3.779   5.300  12.373 -0.1196 -0.7224  0.3270
 7206TIP3    H145813   3.725   5.305  12.294  0.3343 -0.0925  0.0565
 7206TIP3    H245814   3.836   5.224  12.358  1.2216  0.4597 -0.7572
 7207TIP3   OH245815   0.028   5.735  10.263 -0.1169  0.1161  0.3492
 7207TIP3    H145816  -0.049   5.698  10.221 -0.8847 -0.8730  2.4664
 7207TIP3    H245817   0.044   5.678  10.339  1.0977  1.8173  1.4669
 7208TIP3   OH245818   6.375   2.808  11.232  0.0292 -0.3541 -0.1983
 7208TIP3    H145819   6.352   2.900  11.248 -0.1446 -0.4631  0.2053
 7208TIP3    H245820   6.416   2.808  11.146 -0.2657  0.0544 -0.3443
 7209TIP3   OH245821   5.726   5.162  11.631 -0.3042  0.4015 -0.7105
 7209TIP3    H145822   5.762   5.106  11.701 -0.4866  1.5032  0.2945
 7209TIP3    H245823   5.706   5.101  11.560  0.4100 -0.6824 -0.0193
 7210TIP3   OH245824   2.734   1.597  11.748 -0.4549  0.1957 -0.2520
 7210TIP3    H145825   2.650   1.606  11.793  0.1851  1.9506  0.6877
 7210TIP3    H245826   2.713   1.603  11.655 -1.2963  1.4064 -0.0005
 7211TIP3   OH245827   6.804   6.839  13.026  0.2741  1.0374 -0.6574
 7211TIP3    H145828   6.814   6.767  12.963  2.2069  0.0429  0.6858
 7211TIP3    H245829   6.893   6.855  13.058 -0.7052  0.9748  2.3687
 7212TIP3   OH245830   1.554   1.918  10.821  0.8385 -0.0750  0.5313
 7212TIP3    H145831   1.590   1.970  10.892  0.5699  0.8137  0.0244
 7212TIP3    H245832   1.462   1.908  10.842  0.3733  1.6334 -0.5148
 7213TIP3   OH245833   3.110   1.926  11.568  0.2491 -0.2925 -0.0552
 7213TIP3    H145834   3.128   1.856  11.630 -0.1139 -0.2888  0.0551
 7213TIP3    H245835   3.145   1.894  11.485  2.1751  0.3615  0.4632
 7214TIP3   OH245836   5.652   5.703  12.341  0.0605 -0.1987  0.2488
 7214TIP3    H145837   5.619   5.645  12.409 -1.1030  0.5409  0.3322
 7214TIP3    H245838   5.669   5.645  12.266  0.8128 -0.9255  0.9566
 7215TIP3   OH245839   1.619   5.743  10.887 -0.7863 -0.6306  0.2287
 7215TIP3    H145840   1.604   5.777  10.976 -0.3911  1.2351 -0.3695
 7215TIP3    H245841   1.589   5.814  10.829 -0.2304 -1.4640 -1.1209
 7216TIP3   OH245842   6.477   2.413  11.046  0.5564 -0.2887  0.0673
 7216TIP3    H145843   6.530   2.478  11.093  0.3657 -0.4363  0.4981
 7216TIP3    H245844   6.528   2.333  11.049 -0.2959 -0.8250  1.7681
 7217TIP3   OH245845   2.845   3.516  10.738 -0.3914 -0.2981  0.0594
 7217TIP3    H145846   2.905   3.451  10.704  0.3570  0.2129  0.3675
 7217TIP3    H245847   2.898   3.596  10.746 -1.0864  0.1420  0.4029
 7218TIP3   OH245848   5.007   2.596  11.372  0.3021 -0.0812 -0.0459
 7218TIP3    H145849   5.045   2.562  11.291  0.2348  2.0881 -1.0530
 7218TIP3    H245850   5.081   2.634  11.419  0.1754 -0.4538  0.4677
 7219TIP3   OH245851   0.773   2.846  12.126  0.2389  0.0898  0.0933
 7219TIP3    H145852   0.718   2.769  12.140 -1.1419  1.3370  1.9153
 7219TIP3    H245853   0.713   2.912  12.092  0.8846  1.0744  0.8263
 7220TIP3   OH245854   3.472   2.805  10.895  0.2539 -0.1706 -0.6829
 7220TIP3    H145855   3.509   2.785  10.981  1.4940 -0.8563 -1.3521
 7220TIP3    H245856   3.518   2.884  10.867 -0.1471  0.0499 -0.7274
 7221TIP3   OH245857   3.553   7.228  11.434  0.3846 -0.4574 -0.2499
 7221TIP3    H145858   3.598   7.160  11.382  0.4979  0.2659 -1.1196
 7221TIP3    H245859   3.463   7.198  11.438 -0.0658  0.4111 -2.5536
 7222TIP3   OH245860   0.834   1.125  11.888  0.0293 -0.0964  0.6341
 7222TIP3    H145861   0.870   1.039  11.909 -2.6327 -1.3316  0.5109
 7222TIP3    H245862   0.829   1.127  11.793 -1.7208 -0.6683  0.6809
 7223TIP3   OH245863   6.733   6.591  10.693 -0.5709 -0.0560 -0.4918
 7223TIP3    H145864   6.827   6.571  10.688 -0.8301 -2.0313  1.1880
 7223TIP3    H245865   6.719   6.657  10.626  2.5127  2.2423  0.8583
 7224TIP3   OH245866   4.711   6.676  13.279  0.3017 -0.1893  0.3354
 7224TIP3    H145867   4.791   6.704  13.322  0.4702  0.7360 -0.5641
 7224TIP3    H245868   4.675   6.609  13.337  0.9866  0.3895  1.4523
 7225TIP3   OH245869   4.684   4.227  11.774  0.1312 -0.0343 -0.2461
 7225TIP3    H145870   4.753   4.253  11.712  0.2817  0.9679  0.3256
 7225TIP3    H245871   4.654   4.309  11.812  0.8631 -0.6994  1.9140
 7226TIP3   OH245872   6.512   3.370  11.305 -0.0460 -0.2856  0.1288
 7226TIP3    H145873   6.576   3.434  11.274  0.0061 -0.7865 -0.8246
 7226TIP3    H245874   6.449   3.422  11.356 -0.2492  0.6114 -0.9888
 7227TIP3   OH245875   4.359   3.719  11.242  0.7519 -0.1739 -0.2748
 7227TIP3    H145876   4.279   3.761  11.212  1.6549  1.4283 -0.5445
 7227TIP3    H245877   4.330   3.658  11.310 -0.8990 -1.1504 -1.7938
 7228TIP3   OH245878   1.915   0.228  12.793  0.1189  0.0378 -0.8354
 7228TIP3    H145879   1.998   0.220  12.839  0.9890 -0.0621 -2.3623
 7228TIP3    H245880   1.904   0.322  12.779 -1.1407  0.2707  1.2373
 7229TIP3   OH245881   2.100   6.346  11.894  0.5809 -0.2409 -0.3224
 7229TIP3    H145882   2.052   6.417  11.937  0.9291  0.0166 -0.3563
 7229TIP3    H245883   2.159   6.312  11.961  1.8393  0.8120 -0.8406
 7230TIP3   OH245884   2.927   0.395  10.935  0.2203  0.0472  0.2310
 7230TIP3    H145885   2.888   0.465  10.988 -1.1546 -1.1951  0.9196
 7230TIP3    H245886   2.867   0.321  10.945  0.8997 -0.8106 -1.5910
 7231TIP3   OH245887   5.599   0.835  10.834  0.3425 -0.2954 -0.3601
 7231TIP3    H145888   5.638   0.902  10.890 -0.0126  0.3770 -0.9000
 7231TIP3    H245889   5.648   0.840  10.752 -0.0617 -0.2920 -0.6055
 7232TIP3   OH245890   0.006   6.113  12.684 -0.4047  0.1284 -0.0546
 7232TIP3    H145891   0.029   6.120  12.777 -1.6204  0.1554  0.2616
 7232TIP3    H245892   0.085   6.139  12.638 -0.4767  2.4847  0.9943
 7233TIP3   OH245893   1.156   2.117  11.908 -0.2808  0.0119  0.0850
 7233TIP3    H145894   1.098   2.060  11.858  0.7614 -0.5418 -0.5332
 7233TIP3    H245895   1.177   2.067  11.986  1.5460 -0.9964 -0.9868
 7234TIP3   OH245896   7.180   2.215  10.952 -0.6947 -0.1076 -0.1146
 7234TIP3    H145897   7.147   2.209  10.862 -3.0935  1.2422  0.5934
 7234TIP3    H245898   7.238   2.292  10.951  0.5950 -1.0421 -0.8118
 7235TIP3   OH245899   6.504   3.319  12.529  0.2937  0.2291 -0.1120
 7235TIP3    H145900   6.448   3.370  12.471 -2.0622  0.3183  2.0600
 7235TIP3    H245901   6.514   3.373  12.607  1.0435 -0.9956  0.6822
 7236TIP3   OH245902   3.005   3.447  10.984  0.1882  0.3191  0.6255
 7236TIP3    H145903   2.990   3.487  11.070 -0.3947 -0.1437  0.7434
 7236TIP3    H245904   2.997   3.519  10.922  1.8517  0.9091  1.0465
 7237TIP3   OH245905   4.683   5.639  12.487  0.2617 -0.4170  0.4215
 7237TIP3    H145906   4.598   5.646  12.443  0.5103 -0.4770 -0.0763
 7237TIP3    H245907   4.687   5.548  12.516 -0.5161 -0.0222  1.8449
 7238TIP3   OH245908   6.806   2.063  12.406  0.7822  0.3935  0.2524
 7238TIP3    H145909   6.738   2.043  12.341 -0.2595  3.3222  0.2982
 7238TIP3    H245910   6.766   2.044  12.490  1.2396 -0.9786  0.1901
 7239TIP3   OH245911   1.034   7.607  11.374 -0.0027 -0.0055  0.5660
 7239TIP3    H145912   1.109   7.648  11.331  0.4103  0.5997  1.8150
 7239TIP3    H245913   1.038   7.515  11.346  1.0160  0.0913  0.3470
 7240TIP3   OH245914   4.346   0.339  12.278 -0.1255 -0.2693 -0.0485
 7240TIP3    H145915   4.256   0.307  12.273 -0.0479 -0.4891 -0.0511
 7240TIP3    H245916   4.393   0.272  12.327  0.3763 -0.9465 -1.3807
 7241TIP3   OH245917   5.768   4.031  13.086 -0.0512  0.2417  0.1428
 7241TIP3    H145918   5.862   4.034  13.070  0.1202  1.9662  1.2425
 7241TIP3    H245919   5.759   3.974  13.162  0.0248 -0.4235 -0.3352
 7242TIP3   OH245920   5.848   0.477  11.127 -0.1730 -0.5553  0.3252
 7242TIP3    H145921   5.892   0.419  11.065  0.1351  0.0209 -0.0047
 7242TIP3    H245922   5.915   0.499  11.191 -0.1159 -0.0822  0.1078
 7243TIP3   OH245923   0.658   2.449  13.341 -0.8429 -0.2327 -0.2104
 7243TIP3    H145924   0.622   2.420  13.257 -2.7176  0.8287  0.1558
 7243TIP3    H245925   0.665   2.369  13.393 -3.2439 -0.5000 -0.1668
 7244TIP3   OH245926   4.243   7.452  12.385  0.4321 -0.0230 -0.8172
 7244TIP3    H145927   4.214   7.389  12.451  0.2508 -0.1539 -1.0213
 7244TIP3    H245928   4.210   7.536  12.416 -0.3346 -0.1977 -1.1432
 7245TIP3   OH245929   1.919   0.719  12.009 -0.6726  0.2430 -0.1961
 7245TIP3    H145930   1.911   0.660  11.935 -1.0879 -0.3711  0.3241
 7245TIP3    H245931   1.886   0.669  12.084  0.9431  0.3650  0.6559
 7246TIP3   OH245932   3.686   1.287  12.645  0.2010 -0.6542  0.0587
 7246TIP3    H145933   3.705   1.229  12.571 -1.0889 -0.5925 -0.3287
 7246TIP3    H245934   3.722   1.372  12.619  0.1393 -0.7400 -0.3069
 7247TIP3   OH245935   7.134   4.887  11.720  0.1558 -0.0171  0.1907
 7247TIP3    H145936   7.057   4.944  11.710 -1.8920 -2.2428  2.0113
 7247TIP3    H245937   7.147   4.882  11.815  1.7298 -0.7718 -0.0434
 7248TIP3   OH245938   0.941   2.132  12.690 -0.7247  0.0670 -0.2212
 7248TIP3    H145939   0.973   2.215  12.726  1.2340 -0.0588 -1.5411
 7248TIP3    H245940   0.861   2.114  12.741  0.3078  1.3224  2.0104
 7249TIP3   OH245941   4.903   4.516  11.481 -0.2010 -0.0381  0.0274
 7249TIP3    H145942   4.958   4.556  11.414 -0.4783  0.2819 -0.0155
 7249TIP3    H245943   4.961   4.504  11.557  0.5769 -2.0219 -0.8251
 7250TIP3   OH245944   3.138   4.810  11.834  0.1814  0.1484 -0.3262
 7250TIP3    H145945   3.109   4.794  11.924  1.9935 -1.6247  0.0116
 7250TIP3    H245946   3.213   4.869  11.844  0.6293 -0.3660 -0.6319
 7251TIP3   OH245947   6.809   7.195  12.291  0.2267 -0.6871 -0.2475
 7251TIP3    H145948   6.725   7.161  12.259 -0.1049  0.0250 -0.1418
 7251TIP3    H245949   6.847   7.122  12.341 -1.2166 -0.3975  1.3471
 7252TIP3   OH245950   6.139   6.849  11.498  0.0972  0.3771  0.2141
 7252TIP3    H145951   6.126   6.911  11.426  1.0013  0.4170  0.0744
 7252TIP3    H245952   6.056   6.850  11.546 -0.7506 -0.1225 -1.1932
 7253TIP3   OH245953   7.522   5.787  11.430  0.1204 -0.2551  0.6202
 7253TIP3    H145954   7.442   5.839  11.437  0.4159  0.2419  0.4199
 7253TIP3    H245955   7.498   5.712  11.375 -0.3542 -0.4188  1.0465
 7254TIP3   OH245956   6.377   3.024  11.547 -0.1348  0.2538 -0.1538
 7254TIP3    H145957   6.353   2.932  11.542  1.1059 -0.1661  0.9401
 7254TIP3    H245958   6.322   3.059  11.618  0.9628 -0.2122  0.9602
 7255TIP3   OH245959   3.542   4.979  12.095  0.4601 -0.0395 -0.1390
 7255TIP3    H145960   3.626   4.957  12.135  0.1084  1.2793  1.4288
 7255TIP3    H245961   3.478   4.966  12.166 -0.4613  0.4148 -0.8675
 7256TIP3   OH245962   6.678   1.574  13.008 -0.0755  0.1803 -0.2847
 7256TIP3    H145963   6.662   1.502  12.946 -0.6725 -0.5946  0.7436
 7256TIP3    H245964   6.591   1.603  13.034  0.1316 -0.5075  1.3129
 7257TIP3   OH245965   0.287   5.383  12.957 -0.1864 -0.4824  0.2788
 7257TIP3    H145966   0.305   5.321  12.885 -1.0048  3.8699 -4.2296
 7257TIP3    H245967   0.192   5.377  12.970 -0.1401 -0.7566  0.5069
 7258TIP3   OH245968   4.742   5.921  12.052  0.1730  0.7676  0.1686
 7258TIP3    H145969   4.741   6.003  12.101  1.7667  1.1664 -0.3863
 7258TIP3    H245970   4.834   5.895  12.051 -0.3205 -1.1067  0.4298
 7259TIP3   OH245971   0.581   7.267  11.844  0.1871  0.9358 -0.3190
 7259TIP3    H145972   0.635   7.317  11.906  0.2928  0.1472  0.2346
 7259TIP3    H245973   0.632   7.264  11.764  1.3969 -0.5447  0.4589
 7260TIP3   OH245974   4.251   3.706  11.729 -0.2335 -0.2191  0.1560
 7260TIP3    H145975   4.334   3.741  11.761  0.0026 -1.2477  0.6899
 7260TIP3    H245976   4.197   3.784  11.714  1.2357  0.5529 -1.4323
 7261TIP3   OH245977   1.408   2.116  11.156  0.1052  0.0435 -0.0073
 7261TIP3    H145978   1.459   2.187  11.196 -1.2216  0.2082  1.5245
 7261TIP3    H245979   1.330   2.160  11.121  0.4938 -0.3295 -1.3529
 7262TIP3   OH245980   2.398   5.740  12.102 -0.5752 -0.1836  0.1956
 7262TIP3    H145981   2.485   5.779  12.103 -1.4201  1.8557  0.4950
 7262TIP3    H245982   2.409   5.656  12.057  1.1882  0.9054 -1.5810
 7263TIP3   OH245983   6.872   3.579  12.578 -0.6672 -0.2468 -0.8370
 7263TIP3    H145984   6.830   3.609  12.659  1.0745 -0.1334  0.0737
 7263TIP3    H245985   6.830   3.630  12.509 -1.4005  0.4808  0.1157
 7264TIP3   OH245986   4.495   0.994  11.425  0.2373 -0.3536 -0.2099
 7264TIP3    H145987   4.464   0.906  11.405 -0.1935  0.2096 -2.2370
 7264TIP3    H245988   4.450   1.050  11.362  1.4590  1.1579  0.2091
 7265TIP3   OH245989   6.067   1.751  17.299  0.1383  0.4219  0.1341
 7265TIP3    H145990   6.084   1.843  17.278  0.6304  0.2286 -0.3420
 7265TIP3    H245991   6.093   1.703  17.220  0.7996 -0.2095  0.7179
 7266TIP3   OH245992   5.893   4.578  12.835 -0.1427  0.1523  0.5376
 7266TIP3    H145993   5.953   4.562  12.762 -1.0847  2.2223 -0.7812
 7266TIP3    H245994   5.916   4.666  12.865 -0.9214  0.0029  1.6208
 7267TIP3   OH245995   0.811   0.515  12.841 -0.4529 -0.2517 -0.3827
 7267TIP3    H145996   0.805   0.495  12.748 -0.0551  0.4092 -0.5618
 7267TIP3    H245997   0.722   0.501  12.875 -0.8476  0.4809 -1.0720
 7268TIP3   OH245998   1.165   3.673  11.709 -0.0679 -0.1734  0.3419
 7268TIP3    H145999   1.201   3.692  11.623  1.1435  1.3717  1.1414
 7268TIP3    H246000   1.168   3.756  11.755 -1.0390 -0.8829  1.7644
 7269TIP3   OH246001   1.200   6.695  11.292  0.3348  0.8041 -0.1054
 7269TIP3    H146002   1.284   6.663  11.260  0.0783  0.6455 -0.6436
 7269TIP3    H246003   1.211   6.701  11.387  1.4129  2.1791 -0.2996
 7270TIP3   OH246004   0.169   4.595  10.477  0.4871  0.2294  0.3630
 7270TIP3    H146005   0.199   4.559  10.561  1.0550 -0.3748 -0.0854
 7270TIP3    H246006   0.111   4.527  10.442  1.2770 -0.0997 -0.3250
 7271TIP3   OH246007   6.170   6.112  12.275 -0.7732 -0.2679  0.5468
 7271TIP3    H146008   6.115   6.184  12.245 -0.6614 -0.3942  0.0174
 7271TIP3    H246009   6.216   6.146  12.352 -0.5555  0.2991  0.1720
 7272TIP3   OH246010   6.024   3.122  11.609 -0.7559  0.2879  0.0557
 7272TIP3    H146011   5.935   3.139  11.638  0.0480  3.4049  1.0265
 7272TIP3    H246012   6.036   3.178  11.532  0.1188 -0.7592 -0.6083
 7273TIP3   OH246013   1.071   5.942  11.913  0.3399  0.1778  0.2564
 7273TIP3    H146014   1.032   5.945  12.001 -0.1681 -0.9461  0.0804
 7273TIP3    H246015   1.005   5.982  11.856 -1.6909 -3.6935 -0.4034
 7274TIP3   OH246016   6.279   7.093  12.323  0.4675  0.5506  0.4042
 7274TIP3    H146017   6.315   7.004  12.322  1.1231  0.8089  0.5904
 7274TIP3    H246018   6.203   7.086  12.381  0.6665  0.1665  0.6285
 7275TIP3   OH246019   4.897   3.805  11.761 -0.6680 -0.1717 -0.2034
 7275TIP3    H146020   4.910   3.750  11.683 -0.4543 -0.5307  0.0821
 7275TIP3    H246021   4.984   3.839  11.780 -0.6729 -0.2900  0.0297
 7276TIP3   OH246022   4.146   4.165  10.610  0.4285  0.4349 -0.1050
 7276TIP3    H146023   4.238   4.191  10.603  0.8039 -0.8235 -0.2434
 7276TIP3    H246024   4.106   4.193  10.528  0.6616  1.0797 -0.0010
 7277TIP3   OH246025   1.958   2.990  12.753 -0.1107 -0.3488  0.3838
 7277TIP3    H146026   1.871   3.016  12.723 -0.8674 -1.7888  1.2089
 7277TIP3    H246027   1.976   3.048  12.827  0.8313  1.7522 -1.3923
 7278TIP3   OH246028   5.864   1.525  12.802  0.3589 -0.1394 -0.4131
 7278TIP3    H146029   5.788   1.550  12.855  1.0396  1.3600 -0.0872
 7278TIP3    H246030   5.910   1.460  12.854  0.9801  1.2623  0.8603
 7279TIP3   OH246031   0.667   1.530  10.962  0.0837 -0.5259 -0.1069
 7279TIP3    H146032   0.638   1.599  11.022 -0.8507 -0.0852 -1.0537
 7279TIP3    H246033   0.763   1.535  10.966  0.0528  1.3552 -0.7307
 7280TIP3   OH246034   4.279   4.192  12.292 -0.2794 -0.5775 -0.4421
 7280TIP3    H146035   4.192   4.217  12.260 -0.2976  0.7067  0.5560
 7280TIP3    H246036   4.268   4.178  12.386  0.6749  0.0040 -0.2268
 7281TIP3   OH246037   0.688   2.270  10.855 -0.4716  0.8627  0.4943
 7281TIP3    H146038   0.721   2.202  10.797  1.2951  0.0451  2.3347
 7281TIP3    H246039   0.631   2.323  10.800 -0.7993 -1.2579 -1.3570
 7282TIP3   OH246040   0.928   6.648  11.239  0.1340 -0.0945 -0.0172
 7282TIP3    H146041   0.906   6.706  11.166  0.9841  1.6439  1.0329
 7282TIP3    H246042   1.023   6.646  11.241  0.1996  1.3857  2.0646
 7283TIP3   OH246043   0.250   4.954  11.848 -0.1779  0.2294  0.1972
 7283TIP3    H146044   0.322   4.910  11.801  1.8490  0.4993  2.7977
 7283TIP3    H246045   0.271   4.941  11.940 -1.8073  3.0020  1.0703
 7284TIP3   OH246046   3.237   2.990  11.218  0.6248  0.5070 -0.1173
 7284TIP3    H146047   3.149   2.965  11.189  0.3304  0.5096  0.7468
 7284TIP3    H246048   3.245   3.082  11.192  0.4187  0.4755 -0.2970
 7285TIP3   OH246049   7.119   1.503  10.870 -0.1830 -0.4667 -0.0495
 7285TIP3    H146050   7.200   1.459  10.847 -1.2952 -2.7787  0.2025
 7285TIP3    H246051   7.145   1.570  10.934  1.5405 -0.9272 -0.2250
 7286TIP3   OH246052   6.813   1.241  12.664  0.1044 -0.2723 -0.0951
 7286TIP3    H146053   6.792   1.332  12.640  0.4487 -0.2762 -0.4100
 7286TIP3    H246054   6.906   1.232  12.644  0.2147 -0.5113  0.5139
 7287TIP3   OH246055   7.670   2.465  11.673 -0.2520  0.2905  0.0955
 7287TIP3    H146056   7.645   2.438  11.761  0.2076  2.6774  1.0247
 7287TIP3    H246057   7.616   2.541  11.655 -0.7837 -0.5146 -1.9933
 7288TIP3   OH246058   4.902   5.899  11.340  0.2530  0.0367  0.0017
 7288TIP3    H146059   4.811   5.904  11.370 -0.0346  1.5103 -0.9853
 7288TIP3    H246060   4.953   5.932  11.413 -0.2019  1.0357 -0.1130
 7289TIP3   OH246061   0.836   7.116  13.328 -0.0014 -0.0011 -0.1556
 7289TIP3    H146062   0.917   7.066  13.341  0.8025  1.5351  1.0559
 7289TIP3    H246063   0.807   7.139  13.416 -1.9361 -0.7134 -0.5457
 7290TIP3   OH246064   6.947   3.609  12.192 -0.6377  0.4654 -0.0807
 7290TIP3    H146065   6.886   3.670  12.234 -0.4667  0.4612  0.1753
 7290TIP3    H246066   6.933   3.622  12.098 -2.5318 -0.9992 -0.0590
 7291TIP3   OH246067   1.452   5.897  11.084  0.1970  0.1610  0.1833
 7291TIP3    H146068   1.453   5.930  11.174 -1.5864 -0.5185  0.4965
 7291TIP3    H246069   1.423   5.972  11.031 -1.7768 -0.2520  0.6137
 7292TIP3   OH246070   1.532   4.825  11.081  0.2412 -0.2680  0.4487
 7292TIP3    H146071   1.507   4.818  11.174 -1.8502 -0.3528 -0.0681
 7292TIP3    H246072   1.458   4.786  11.034  1.8142 -1.3694 -1.2349
 7293TIP3   OH246073   3.677   4.463  11.992  0.2786  0.1939 -0.6779
 7293TIP3    H146074   3.766   4.463  12.027  0.4604  2.1097 -1.0711
 7293TIP3    H246075   3.684   4.506  11.907 -0.9816  0.1258 -0.8383
 7294TIP3   OH246076   1.412   7.181  11.437  0.5988  0.1527  0.6209
 7294TIP3    H146077   1.355   7.117  11.393  0.5763  1.2640 -1.0709
 7294TIP3    H246078   1.500   7.152  11.416  0.6534 -0.5949  1.7990
 7295TIP3   OH246079   0.214   2.081  12.009  0.2099  0.3384  0.2828
 7295TIP3    H146080   0.290   2.139  11.997  0.1321  0.5437  0.7467
 7295TIP3    H246081   0.248   2.009  12.062 -0.3906  1.4760  2.3168
 7296TIP3   OH246082   6.195   0.351  10.896 -0.3329  0.3640 -0.0384
 7296TIP3    H146083   6.159   0.326  10.811 -0.1456 -0.0751  0.0095
 7296TIP3    H246084   6.290   0.351  10.883 -0.2039 -1.3718  0.5999
 7297TIP3   OH246085   5.880   6.774  10.614  0.1753  0.3201 -0.0204
 7297TIP3    H146086   5.843   6.689  10.636 -1.6709  1.4940  1.7650
 7297TIP3    H246087   5.833   6.801  10.535 -0.5446  0.4144  0.4258
 7298TIP3   OH246088   2.109   1.108  10.903 -0.4890  0.0808  0.2762
 7298TIP3    H146089   2.039   1.107  10.969 -1.4685  0.9808 -0.7157
 7298TIP3    H246090   2.161   1.030  10.923  0.7740  1.5702  3.6860
 7299TIP3   OH246091   1.646   0.860  10.499  0.1655  0.9888  0.5250
 7299TIP3    H146092   1.614   0.772  10.520 -0.4194  1.3545  1.2206
 7299TIP3    H246093   1.588   0.890  10.429  0.3051  0.8594  0.3527
 7300TIP3   OH246094   7.245   6.608  11.956  0.1463 -0.1942 -0.0166
 7300TIP3    H146095   7.324   6.588  12.006  0.3568 -1.4516 -0.7858
 7300TIP3    H246096   7.243   6.541  11.887 -0.2948  1.2716 -1.4966
 7301TIP3   OH246097   2.008   4.602  13.083 -0.1562  0.7802  0.1998
 7301TIP3    H146098   2.040   4.561  13.163 -2.0771  0.4260  0.8190
 7301TIP3    H246099   1.948   4.670  13.113 -0.6333  0.8794 -0.9393
 7302TIP3   OH246100   2.632   2.359  12.088 -0.1914  0.2836 -0.1234
 7302TIP3    H146101   2.671   2.447  12.088  0.1471  0.2187  2.7334
 7302TIP3    H246102   2.704   2.301  12.066  0.0632  0.5672 -0.0457
 7303TIP3   OH246103   6.898   4.654  11.605 -0.3588 -0.5322  0.0303
 7303TIP3    H146104   6.980   4.653  11.654 -0.5753 -1.2125  0.3993
 7303TIP3    H246105   6.912   4.593  11.533  0.5724  1.7714 -1.8443
 7304TIP3   OH246106   3.994   6.280  11.211 -0.5381 -0.5333 -0.1098
 7304TIP3    H146107   3.980   6.243  11.299 -0.4032 -0.5537 -0.0970
 7304TIP3    H246108   4.088   6.298  11.208 -0.5092 -0.7180 -0.3224
 7305TIP3   OH246109   2.660   7.507  12.476 -0.3549  0.3513 -0.1577
 7305TIP3    H146110   2.634   7.458  12.398 -1.7057  1.7168 -0.6252
 7305TIP3    H246111   2.631   7.453  12.549  0.5923 -0.7752 -0.5930
 7306TIP3   OH246112   2.581   5.762  12.381 -0.2201 -0.0524  0.4359
 7306TIP3    H146113   2.528   5.730  12.454 -1.6785  0.0452 -0.5353
 7306TIP3    H246114   2.519   5.807  12.324  0.7188 -0.8048 -1.2754
 7307TIP3   OH246115   6.476   6.331  12.389  0.2136 -0.2530  0.5523
 7307TIP3    H146116   6.497   6.284  12.470  0.2299  0.2396  0.8376
 7307TIP3    H246117   6.388   6.365  12.403 -0.5943 -1.8350 -0.4245
 7308TIP3   OH246118   0.962   0.361  10.889  0.0432  0.3318 -0.5919
 7308TIP3    H146119   1.011   0.419  10.947 -0.4822 -0.3778  0.5922
 7308TIP3    H246120   0.975   0.273  10.926 -1.9931  0.1040 -0.2933
 7309TIP3   OH246121   3.933   5.458  11.986 -0.4436  0.2776 -0.2852
 7309TIP3    H146122   3.990   5.509  11.928 -1.3872  0.3685 -1.1494
 7309TIP3    H246123   3.992   5.396  12.029  0.4685  1.0491 -0.3868
 7310TIP3   OH246124   2.414   2.836  11.725 -0.4076 -0.7472 -0.9715
 7310TIP3    H146125   2.397   2.915  11.776 -0.2614 -1.3885  0.1150
 7310TIP3    H246126   2.415   2.766  11.790 -1.0290 -1.7187 -1.9723
 7311TIP3   OH246127   2.287   1.777  12.733  0.2177 -0.6199  0.0373
 7311TIP3    H146128   2.288   1.775  12.829  0.6444  0.5222  0.0770
 7311TIP3    H246129   2.264   1.688  12.707  1.6992 -1.3946  1.1855
 7312TIP3   OH246130   4.046   6.382  13.426 -0.1609  0.5953  0.7543
 7312TIP3    H146131   4.131   6.410  13.393 -0.2271 -1.8527 -1.8426
 7312TIP3    H246132   3.994   6.462  13.430  1.3221  1.6863 -0.6458
 7313TIP3   OH246133   3.171   1.526  10.608  0.2316  0.2045  0.4240
 7313TIP3    H146134   3.121   1.478  10.674  1.3570 -0.6222  0.7052
 7313TIP3    H246135   3.188   1.461  10.540 -0.0714  0.7950 -0.2292
 7314TIP3   OH246136   4.420   6.893  11.198 -0.7744  0.0976  0.1971
 7314TIP3    H146137   4.383   6.805  11.195  0.2378 -0.3675  0.6992
 7314TIP3    H246138   4.399   6.926  11.285 -2.7740  1.1279 -0.6017
 7315TIP3   OH246139   0.296   2.611  12.585  0.3442  0.0960 -0.1492
 7315TIP3    H146140   0.248   2.693  12.589  1.5306  0.7775  0.7159
 7315TIP3    H246141   0.363   2.625  12.519  1.4230  0.3480  0.9528
 7316TIP3   OH246142   6.664   4.068  10.858  0.1994  0.3574  0.3657
 7316TIP3    H146143   6.695   4.105  10.775 -0.6582  1.0658  0.3400
 7316TIP3    H246144   6.624   3.984  10.833  0.0014  0.5386  0.0610
 7317TIP3   OH246145   5.990   1.728  11.999 -0.2051  0.1962  0.1677
 7317TIP3    H146146   5.929   1.768  11.937 -2.3428 -2.5688  0.3069
 7317TIP3    H246147   5.978   1.778  12.079  1.0049  2.4388 -0.9558
 7318TIP3   OH246148   3.658   2.889  11.131 -0.4036 -0.1928  0.2587
 7318TIP3    H146149   3.689   2.941  11.205 -1.5271 -0.8561  1.2378
 7318TIP3    H246150   3.720   2.816  11.126  0.5745  0.6589 -0.4639
 7319TIP3   OH246151   0.042   2.679  10.633  0.0625 -0.6665  0.3176
 7319TIP3    H146152   0.080   2.637  10.556  0.8784  0.6047  0.0001
 7319TIP3    H246153  -0.028   2.734  10.599  0.3872 -0.1465  0.4817
 7320TIP3   OH246154   2.769   1.010  11.412  0.1996  0.0365 -0.5973
 7320TIP3    H146155   2.822   1.087  11.431  1.0308 -1.0158  1.6540
 7320TIP3    H246156   2.685   1.028  11.453 -0.0796  0.2840 -1.2564
 7321TIP3   OH246157   2.391   4.619  11.711  0.1141  0.9836 -0.0807
 7321TIP3    H146158   2.405   4.634  11.804 -0.7484  1.0755  0.0466
 7321TIP3    H246159   2.462   4.665  11.668 -0.4530  2.4294  0.4614
 7322TIP3   OH246160   7.048   2.410  10.468 -0.2096  0.0314 -0.0587
 7322TIP3    H146161   7.031   2.502  10.451 -0.3691 -0.2364 -1.5217
 7322TIP3    H246162   6.964   2.367  10.452  0.4350 -0.6395 -1.8468
 7323TIP3   OH246163   6.583   1.719  11.541 -0.3347  0.0545 -0.1799
 7323TIP3    H146164   6.654   1.660  11.565  2.2743  1.8568 -2.7166
 7323TIP3    H246165   6.523   1.665  11.490  0.0525 -1.1522  0.5946
 7324TIP3   OH246166   6.174   6.820  13.156  0.6241 -0.0889 -0.5703
 7324TIP3    H146167   6.240   6.875  13.200  2.1640 -1.1776 -1.4167
 7324TIP3    H246168   6.202   6.731  13.174 -0.8886 -0.5927 -0.6125
 7325TIP3   OH246169   4.883   7.490  10.761 -0.5544  0.4266 -0.4396
 7325TIP3    H146170   4.833   7.412  10.783  0.5186  0.1549  1.2147
 7325TIP3    H246171   4.895   7.536  10.844  1.9150  0.4592 -0.7395
 7326TIP3   OH246172   2.582   7.276  10.857  0.1519  0.4090  0.2356
 7326TIP3    H146173   2.602   7.332  10.783 -3.5013  0.2425 -1.1134
 7326TIP3    H246174   2.570   7.189  10.819 -0.6238  0.0679  1.2076
 7327TIP3   OH246175   0.872   6.065  11.773 -0.3551  0.3488  0.3694
 7327TIP3    H146176   0.824   6.012  11.709 -1.8364  1.9186  0.0926
 7327TIP3    H246177   0.884   6.149  11.729  4.3199 -0.3836 -0.3069
 7328TIP3   OH246178   5.326   3.709  11.144  0.3662  0.2446 -0.0681
 7328TIP3    H146179   5.373   3.761  11.209  2.4747  0.2214 -1.4433
 7328TIP3    H246180   5.394   3.654  11.105 -1.5247 -2.5814  0.3654
 7329TIP3   OH246181   0.127   2.806  12.089 -0.1736  0.5735 -0.2713
 7329TIP3    H146182   0.167   2.746  12.027 -0.6458  1.3483 -1.3468
 7329TIP3    H246183   0.177   2.794  12.170 -0.6086 -1.6794 -0.2678
 7330TIP3   OH246184   5.309   0.861  11.135 -0.5314 -0.3809  0.2676
 7330TIP3    H146185   5.362   0.940  11.135 -0.2177 -0.5683  1.6135
 7330TIP3    H246186   5.237   0.880  11.074 -0.0592  0.6513  0.0177
 7331TIP3   OH246187   1.256   6.330  10.558 -0.0397 -0.1158 -0.4888
 7331TIP3    H146188   1.225   6.381  10.483  1.9551 -2.0774 -2.8207
 7331TIP3    H246189   1.193   6.258  10.565 -0.5682  0.3918  0.1838
 7332TIP3   OH246190   5.811   7.541  12.140  0.3794  0.0996  0.0271
 7332TIP3    H146191   5.722   7.517  12.164  0.2040 -2.4217 -2.6250
 7332TIP3    H246192   5.822   7.630  12.174 -3.6673  1.1094 -0.8516
 7333TIP3   OH246193   4.634   1.190  11.723  0.1342 -0.1714  0.0966
 7333TIP3    H146194   4.686   1.212  11.800 -2.8399  1.2433  1.8844
 7333TIP3    H246195   4.676   1.112  11.687  2.8619  0.3271  1.8734
 7334TIP3   OH246196   6.647   2.571  11.189  0.1334 -0.5175  0.0089
 7334TIP3    H146197   6.715   2.623  11.145 -1.7431  0.2985 -2.1530
 7334TIP3    H246198   6.605   2.633  11.249 -0.6753 -0.1390 -0.9366
 7335TIP3   OH246199   7.271   6.333  12.155 -0.0769  0.6328  0.3326
 7335TIP3    H146200   7.287   6.397  12.085 -0.6122  1.5218  0.9967
 7335TIP3    H246201   7.219   6.264  12.113 -0.7862  1.3802 -0.0623
 7336TIP3   OH246202   7.425   0.065  11.342 -0.2067 -0.0064 -0.7134
 7336TIP3    H146203   7.484   0.078  11.268 -0.2446  2.3500 -0.3968
 7336TIP3    H246204   7.433   0.145  11.394 -1.6200 -0.7929  0.8097
 7337TIP3   OH246205   4.365   2.943  11.061 -0.2653  0.1726 -0.5567
 7337TIP3    H146206   4.428   3.014  11.054  0.5347 -0.5073 -0.3441
 7337TIP3    H246207   4.382   2.887  10.985 -0.1206 -0.3900 -0.1229
 7338TIP3   OH246208   1.185   3.987  11.770  0.2821 -0.5628 -0.5090
 7338TIP3    H146209   1.273   3.952  11.753  1.4523  1.0997  1.7215
 7338TIP3    H246210   1.185   4.073  11.728  0.5149  0.3265  1.2333
 7339TIP3   OH246211   4.288   1.790  12.849 -0.2339 -0.0700 -0.5091
 7339TIP3    H146212   4.378   1.812  12.825 -0.0238 -0.5304 -0.1586
 7339TIP3    H246213   4.293   1.771  12.943 -0.8872  0.9085 -0.2592
 7340TIP3   OH246214   2.693   0.513  11.437  0.5054 -0.3153 -0.2468
 7340TIP3    H146215   2.620   0.457  11.409 -1.0733  0.1112  2.5978
 7340TIP3    H246216   2.681   0.593  11.386  0.0689 -0.9003 -1.1033
 7341TIP3   OH246217   4.659   5.069  11.031  0.1695  0.1949 -0.3078
 7341TIP3    H146218   4.651   5.157  10.994 -2.8318 -0.0506 -0.5412
 7341TIP3    H246219   4.639   5.011  10.957  0.1358 -0.5897  0.3046
 7342TIP3   OH246220   0.476   4.137  12.757 -0.2950 -0.3809  0.1255
 7342TIP3    H146221   0.558   4.145  12.708 -1.0210 -2.3885 -1.5372
 7342TIP3    H246222   0.480   4.209  12.821  2.6521 -0.3002  0.0046
 7343TIP3   OH246223   6.180   3.754  11.631  0.1848 -0.7777 -0.3523
 7343TIP3    H146224   6.162   3.715  11.545 -1.2963  0.8401 -0.8359
 7343TIP3    H246225   6.099   3.800  11.654  1.7736  2.0548  0.1182
 7344TIP3   OH246226   5.502   0.651  11.607 -0.5021  0.0882  0.1503
 7344TIP3    H146227   5.471   0.658  11.697 -1.1433 -0.1003 -0.0506
 7344TIP3    H246228   5.476   0.733  11.565 -0.2222  0.1680  0.1294
 7345TIP3   OH246229   4.486   0.143  12.405 -0.6391 -0.0346 -0.0398
 7345TIP3    H146230   4.529   0.080  12.347  3.2385  1.8080  0.4733
 7345TIP3    H246231   4.451   0.091  12.476  2.6528 -1.7243  0.5078
 7346TIP3   OH246232   3.579   2.402  11.980  0.1657  0.1908  0.5306
 7346TIP3    H146233   3.640   2.426  12.050  1.1150 -0.1949 -0.1311
 7346TIP3    H246234   3.579   2.307  11.980 -0.6525  0.1838  0.6859
 7347TIP3   OH246235   5.132   5.859  10.652  0.3270  0.3060  0.0787
 7347TIP3    H146236   5.037   5.867  10.638  0.0773  0.5601  1.7618
 7347TIP3    H246237   5.163   5.950  10.653  1.0307  0.2066 -2.8832
 7348TIP3   OH246238   2.965   1.042  13.099 -0.1403  0.0898 -0.5468
 7348TIP3    H146239   2.908   1.111  13.065  3.0229  2.5368 -1.3715
 7348TIP3    H246240   2.984   1.069  13.189  0.3226 -0.2526 -0.5384
 7349TIP3   OH246241   3.042   2.115  13.090 -0.1761  0.1904  0.2943
 7349TIP3    H146242   3.038   2.195  13.039  2.3267 -0.7145 -1.4920
 7349TIP3    H246243   2.951   2.084  13.092 -0.9262  2.1996 -0.3716
 7350TIP3   OH246244   1.073   1.957  13.565 -0.5522 -0.7148 -0.0666
 7350TIP3    H146245   1.121   1.884  13.525 -1.2468 -0.0130 -2.3222
 7350TIP3    H246246   1.125   2.034  13.543 -0.1950 -0.4218  1.7039
 7351TIP3   OH246247   3.871   6.458  12.392  0.0199 -0.1924 -0.2960
 7351TIP3    H146248   3.796   6.445  12.451 -0.4477 -0.7285 -0.9968
 7351TIP3    H246249   3.947   6.434  12.445 -0.2922  0.3288  0.4127
 7352TIP3   OH246250   4.873   6.164  12.868  0.1000 -0.2129  0.0541
 7352TIP3    H146251   4.790   6.117  12.863 -0.2800  0.4458  0.1644
 7352TIP3    H246252   4.888   6.177  12.961  0.2835 -0.2562  0.0310
 7353TIP3   OH246253   1.205   4.138  12.333  0.2921  0.1062  0.3310
 7353TIP3    H146254   1.187   4.061  12.387  0.6081 -1.7599 -2.0527
 7353TIP3    H246255   1.119   4.166  12.303  0.2512  0.1227  0.4606
 7354TIP3   OH246256   1.191   2.880  11.258 -0.4517 -0.0717 -0.6916
 7354TIP3    H146257   1.250   2.877  11.333 -0.2518 -1.2662 -0.8739
 7354TIP3    H246258   1.222   2.954  11.206 -0.5564  0.7310  0.3592
 7355TIP3   OH246259   3.580   1.904  13.307 -0.2673  0.3673 -0.4263
 7355TIP3    H146260   3.574   1.842  13.234 -0.0068 -0.9884  0.6632
 7355TIP3    H246261   3.651   1.963  13.281 -0.3365  0.0563 -1.3782
 7356TIP3   OH246262   5.080   4.695  11.741  0.3314  0.2039 -0.0186
 7356TIP3    H146263   5.108   4.768  11.798  1.6237 -0.5662  0.3704
 7356TIP3    H246264   5.138   4.700  11.666  1.2785 -1.1565  0.5902
 7357TIP3   OH246265   1.673   5.906  13.431  0.4853 -0.7438 -0.1738
 7357TIP3    H146266   1.596   5.959  13.453  0.6239 -0.8509  0.6022
 7357TIP3    H246267   1.637   5.819  13.413  0.4918 -1.0660  1.2070
 7358TIP3   OH246268   4.620   3.416  11.862  0.0097  0.1688  0.1081
 7358TIP3    H146269   4.595   3.507  11.881 -0.3776 -0.2791  1.8981
 7358TIP3    H246270   4.651   3.382  11.946  0.1679 -1.3499 -0.5438
 7359TIP3   OH246271   6.224   3.456  12.643 -0.1469  0.4736 -0.2776
 7359TIP3    H146272   6.313   3.471  12.674 -0.6682 -0.3500  1.7808
 7359TIP3    H246273   6.195   3.541  12.610  0.9806  1.0429  0.1682
 7360TIP3   OH246274   5.761   1.253  11.292 -0.3205  0.1129 -0.0981
 7360TIP3    H146275   5.855   1.242  11.307 -0.2946  1.7659  1.3754
 7360TIP3    H246276   5.745   1.215  11.206  1.7501  0.0579 -0.5006
 7361TIP3   OH246277   7.379   3.360  12.593  0.8274 -0.0071 -0.2739
 7361TIP3    H146278   7.413   3.434  12.543 -1.1503  0.4638 -0.9765
 7361TIP3    H246279   7.400   3.381  12.684 -0.5940  1.9430 -0.3421
 7362TIP3   OH246280   6.758   1.517  12.673  0.0159  0.2649 -0.1456
 7362TIP3    H146281   6.672   1.559  12.677  0.3452  0.8924  2.2498
 7362TIP3    H246282   6.814   1.572  12.729  1.5845 -0.9958 -0.3959
 7363TIP3   OH246283   2.639   7.770  10.639 -0.1531  0.3559  0.9621
 7363TIP3    H146284   2.566   7.762  10.700 -1.6138  0.2601 -0.7190
 7363TIP3    H246285   2.662   7.863  10.641 -0.8171  0.5210  0.9399
 7364TIP3   OH246286   6.873   4.909  11.198  0.4973  0.2271 -0.1744
 7364TIP3    H146287   6.921   4.890  11.279  1.4748  1.9224 -0.3147
 7364TIP3    H246288   6.784   4.930  11.227  0.2729 -1.1641  0.2445
 7365TIP3   OH246289   4.261   1.527  11.122  0.7730 -0.1841  0.6401
 7365TIP3    H146290   4.202   1.532  11.198  1.3295  1.1786  1.0255
 7365TIP3    H246291   4.347   1.506  11.160  0.5777 -2.1253  0.0868
 7366TIP3   OH246292   5.477   4.162  11.944 -0.4609  0.1950 -0.6139
 7366TIP3    H146293   5.439   4.188  12.028  2.1864  0.7990  0.4814
 7366TIP3    H246294   5.494   4.244  11.899  1.8040  0.1511  0.0336
 7367TIP3   OH246295   5.487   2.049  10.392  0.1906 -0.0688 -0.1413
 7367TIP3    H146296   5.504   1.962  10.427  2.1854  0.4263  0.2152
 7367TIP3    H246297   5.563   2.068  10.337 -0.4577  1.2453 -0.6161
 7368TIP3   OH246298   3.841   0.897  11.103 -0.2287  0.1868 -0.3006
 7368TIP3    H146299   3.851   0.943  11.020 -1.4886  0.1568 -0.4950
 7368TIP3    H246300   3.746   0.888  11.114 -0.0284 -1.7597  0.0745
 7369TIP3   OH246301   1.765   2.043  11.624  0.2820  0.2040 -0.2881
 7369TIP3    H146302   1.828   2.068  11.692  2.1170 -2.6575 -0.7289
 7369TIP3    H246303   1.812   2.058  11.542 -0.3351 -0.1395 -0.7074
 7370TIP3   OH246304   4.478  -0.045  11.199 -0.3602  0.1414  0.4741
 7370TIP3    H146305   4.499  -0.099  11.123 -0.4798 -2.7095  2.3054
 7370TIP3    H246306   4.406   0.010  11.170 -0.3716 -0.8386 -1.5069
 7371TIP3   OH246307   7.264   5.332  12.582 -0.2191 -0.0892 -0.1968
 7371TIP3    H146308   7.335   5.273  12.605  1.1537  1.5210 -0.0850
 7371TIP3    H246309   7.245   5.380  12.663 -0.7123  0.2219 -0.4883
 7372TIP3   OH246310   7.141   4.237  11.031 -0.6105 -0.5159  0.2353
 7372TIP3    H146311   7.208   4.264  10.968 -0.2087  0.6767  1.1089
 7372TIP3    H246312   7.058   4.247  10.984 -0.3876  1.2464  0.1379
 7373TIP3   OH246313   0.144   3.864  11.578  0.5331 -0.5257  0.0845
 7373TIP3    H146314   0.132   3.770  11.565 -2.3431 -0.3312  0.6514
 7373TIP3    H246315   0.155   3.874  11.673  0.9790 -0.3050  0.0109
 7374TIP3   OH246316   4.528   4.390  12.457  0.2115  0.2218  0.1819
 7374TIP3    H146317   4.542   4.402  12.551 -2.1775  0.9633  0.5144
 7374TIP3    H246318   4.531   4.296  12.444 -2.8815 -0.2145  1.7212
 7375TIP3   OH246319   2.043   0.557  12.399  0.4850  0.3275  0.1917
 7375TIP3    H146320   2.097   0.508  12.460 -0.2710  1.3423  1.7500
 7375TIP3    H246321   2.014   0.634  12.449 -0.8127  0.7966 -1.1973
 7376TIP3   OH246322   3.305   2.539  11.992  0.3795 -0.4309  0.2054
 7376TIP3    H146323   3.389   2.494  11.983  0.9561  0.4141  1.1774
 7376TIP3    H246324   3.240   2.469  11.985  1.1824 -1.1916  0.1030
 7377TIP3   OH246325   5.393   1.017  13.433  0.2914 -0.1757  0.1081
 7377TIP3    H146326   5.456   0.999  13.364 -0.0595 -2.4748  0.2980
 7377TIP3    H246327   5.338   1.088  13.398  0.1112 -1.2757 -2.0001
 7378TIP3   OH246328   1.517   1.765  12.535 -0.6902 -0.3859  0.0532
 7378TIP3    H146329   1.609   1.790  12.527 -0.4986 -1.1259 -0.0458
 7378TIP3    H246330   1.516   1.694  12.599 -0.5442 -3.7674 -3.3443
 7379TIP3   OH246331   2.915   0.309  10.613 -0.2794 -0.0965  0.1991
 7379TIP3    H146332   2.990   0.266  10.571  0.1111  1.0865 -0.3413
 7379TIP3    H246333   2.921   0.282  10.705 -0.8284 -2.2677 -0.3315
 7380TIP3   OH246334   2.760   3.599  13.100  0.0218 -0.1855 -0.4080
 7380TIP3    H146335   2.666   3.586  13.097 -0.4699  2.6936 -0.1985
 7380TIP3    H246336   2.795   3.542  13.031 -1.9806 -0.3022 -1.3737
 7381TIP3   OH246337   4.626   2.570  10.836 -0.8697 -0.4335 -0.1179
 7381TIP3    H146338   4.567   2.644  10.843  1.0215  1.0744  0.8860
 7381TIP3    H246339   4.635   2.555  10.741 -2.0930 -0.1229 -0.2981
 7382TIP3   OH246340   1.726   2.532  10.557 -0.3625  0.1118 -0.2532
 7382TIP3    H146341   1.790   2.597  10.528 -2.8567  1.3655 -3.5671
 7382TIP3    H246342   1.645   2.583  10.570 -1.9725 -2.0442 -1.2452
 7383TIP3   OH246343   3.040   3.719  12.845 -0.5765  0.0874  0.3688
 7383TIP3    H146344   2.994   3.640  12.820 -0.3666  0.2328 -0.5239
 7383TIP3    H246345   3.120   3.688  12.888 -1.9218 -0.1654  2.8355
 7384TIP3   OH246346   3.712   4.586  11.697  0.3001  0.9297 -0.7163
 7384TIP3    H146347   3.698   4.679  11.679  0.2660  1.1529  0.3769
 7384TIP3    H246348   3.726   4.547  11.611  0.2280  1.9277 -1.2011
 7385TIP3   OH246349   2.127   2.336  11.416 -0.5876 -0.1641 -0.5970
 7385TIP3    H146350   2.070   2.270  11.455 -0.4338  1.0881  1.9155
 7385TIP3    H246351   2.212   2.323  11.458  0.0104  0.3540 -1.5893
 7386TIP3   OH246352   6.891   6.097  11.445 -0.6102  0.1713  0.2167
 7386TIP3    H146353   6.966   6.044  11.473  0.0335  0.8350 -0.2057
 7386TIP3    H246354   6.928   6.158  11.381 -1.4894  0.6119  0.1175
 7387TIP3   OH246355   1.728   5.534  12.787  0.4615  0.5557  0.0940
 7387TIP3    H146356   1.739   5.445  12.753  1.1988  0.9107 -0.6309
 7387TIP3    H246357   1.817   5.562  12.808  0.3073  1.3439 -0.2735
 7388TIP3   OH246358   1.878   4.211  12.238  0.2253  0.4254 -0.5568
 7388TIP3    H146359   1.899   4.215  12.331 -0.8249 -4.5620  0.1996
 7388TIP3    H246360   1.794   4.256  12.230 -0.6749 -0.7872  1.4146
 7389TIP3   OH246361   5.060   2.966  10.986 -0.3950  0.4279 -0.0361
 7389TIP3    H146362   5.053   3.053  11.027 -1.0039  0.5834 -0.4521
 7389TIP3    H246363   5.152   2.943  10.995 -0.3625  0.7966  0.7288
 7390TIP3   OH246364   5.513   2.127  11.541 -0.2543 -0.2524 -0.5148
 7390TIP3    H146365   5.601   2.146  11.510 -0.9856  1.9732 -1.4850
 7390TIP3    H246366   5.468   2.212  11.537 -2.3985 -1.3005  0.0298
 7391TIP3   OH246367   3.458   3.658  11.876 -0.1519 -0.2607  0.0205
 7391TIP3    H146368   3.487   3.633  11.964 -1.1729 -0.7195  0.2380
 7391TIP3    H246369   3.507   3.599  11.818 -0.0541 -0.4886  0.3275
 7392TIP3   OH246370   3.856   3.488  12.484 -0.0642 -0.2652 -0.2437
 7392TIP3    H146371   3.790   3.533  12.431 -0.0692  0.3723  0.2899
 7392TIP3    H246372   3.880   3.552  12.551 -1.7463 -1.7713  1.9662
 7393TIP3   OH246373   3.559   6.437  12.893  0.0491  0.3286  0.1374
 7393TIP3    H146374   3.526   6.470  12.976 -0.0368  1.0760 -0.1886
 7393TIP3    H246375   3.489   6.379  12.861 -0.2595  0.6614  0.2081
 7394TIP3   OH246376   7.446   3.856  11.109  0.3801  0.2922 -0.7366
 7394TIP3    H146377   7.367   3.906  11.131  0.1774 -0.3687  0.0942
 7394TIP3    H246378   7.514   3.895  11.164  0.0591 -0.8045  0.4819
 7395TIP3   OH246379   0.901   0.084  12.636  0.3336  0.2526  0.9409
 7395TIP3    H146380   0.911   0.157  12.697 -1.3751 -0.2593  1.9007
 7395TIP3    H246381   0.862   0.014  12.689  0.6572 -0.8957 -0.2882
 7396TIP3   OH246382   0.724   1.618  11.986  0.2107  0.1747  0.3361
 7396TIP3    H146383   0.762   1.539  11.946  0.4348  0.5987 -0.3147
 7396TIP3    H246384   0.745   1.688  11.924 -0.1176  0.7209  0.8339
 7397TIP3   OH246385   3.678   5.547  10.574  0.4352 -0.6139 -0.3597
 7397TIP3    H146386   3.652   5.458  10.549 -1.0510 -0.2551 -0.2345
 7397TIP3    H246387   3.601   5.582  10.619  0.9994  0.7392 -0.3990
 7398TIP3   OH246388   6.197   5.325  10.811  0.8244 -0.4838 -0.1861
 7398TIP3    H146389   6.211   5.335  10.716 -1.6868 -1.1564 -0.6971
 7398TIP3    H246390   6.221   5.234  10.829  0.4238 -0.6322 -0.3802
 7399TIP3   OH246391   2.122   6.388  12.280 -0.1687 -0.1219  0.4360
 7399TIP3    H146392   2.065   6.442  12.226 -0.7786 -2.0068 -0.9071
 7399TIP3    H246393   2.194   6.363  12.222  0.2170 -0.5657  1.0943
 7400TIP3   OH246394   0.877   0.168  11.925  0.6455  0.5314  0.9829
 7400TIP3    H146395   0.827   0.122  11.993  0.8749  1.9527  2.1523
 7400TIP3    H246396   0.963   0.126  11.926  0.4607  0.1477  1.1351
 7401TIP3   OH246397   2.159   4.939  12.750 -0.4846 -0.6721 -0.4108
 7401TIP3    H146398   2.200   4.951  12.835 -0.9757  0.1420 -0.2769
 7401TIP3    H246399   2.109   5.019  12.735 -2.2540 -1.7081 -0.4442
 7402TIP3   OH246400   6.476   6.051  12.150  0.6921 -0.0465 -0.0193
 7402TIP3    H146401   6.382   6.053  12.133  0.5896  0.0242  0.5208
 7402TIP3    H246402   6.484   6.012  12.238  1.2186 -0.8224 -0.3950
 7403TIP3   OH246403   1.794   4.723  13.198 -0.2937 -0.2938 -0.2478
 7403TIP3    H146404   1.763   4.788  13.261 -0.0333 -2.0441  1.8068
 7403TIP3    H246405   1.737   4.733  13.122 -1.7465  0.7574  0.9316
 7404TIP3   OH246406   4.358   5.697  11.849  0.0589  0.2068 -0.2858
 7404TIP3    H146407   4.372   5.640  11.925  1.1659 -2.4226 -2.2824
 7404TIP3    H246408   4.444   5.702  11.807 -0.5956  1.3094 -1.5588
 7405TIP3   OH246409   5.809   3.600  12.514 -0.3006 -0.0079 -0.2607
 7405TIP3    H146410   5.722   3.578  12.548 -1.3641  0.9079 -2.2284
 7405TIP3    H246411   5.859   3.518  12.521 -0.6892 -0.0949  2.5637
 7406TIP3   OH246412   1.255   5.441  11.304 -0.0452  0.3083 -0.1926
 7406TIP3    H146413   1.260   5.375  11.234  3.7652  1.6904 -1.4930
 7406TIP3    H246414   1.276   5.523  11.259 -0.9155  1.8125  2.0362
 7407TIP3   OH246415   0.113   3.197  12.851  0.7726  0.2745 -0.4288
 7407TIP3    H146416   0.161   3.135  12.907 -0.9123 -0.4256  0.3250
 7407TIP3    H246417   0.114   3.279  12.900 -1.5087 -0.5773  1.1965
 7408TIP3   OH246418   1.764   7.125  11.873  0.9023  0.0899 -0.2699
 7408TIP3    H146419   1.805   7.096  11.791 -0.5482 -0.3099 -0.8965
 7408TIP3    H246420   1.816   7.084  11.942  0.7833 -1.4759 -1.0626
 7409TIP3   OH246421   1.716   4.925  12.754 -0.0469  0.6534 -0.3024
 7409TIP3    H146422   1.672   4.938  12.838 -3.1433 -1.3590 -1.4538
 7409TIP3    H246423   1.777   4.853  12.770 -1.4117 -0.4776  0.0268
 7410TIP3   OH246424   2.375   0.684  11.023 -0.5524 -0.5154 -0.4417
 7410TIP3    H146425   2.446   0.734  11.063 -0.8344 -0.3809 -0.1024
 7410TIP3    H246426   2.376   0.599  11.068  0.9643 -1.4510 -2.1158
 7411TIP3   OH246427   0.300   2.395  11.825 -0.4583 -0.3738  0.1865
 7411TIP3    H146428   0.281   2.302  11.841  1.6161 -0.4113  3.3012
 7411TIP3    H246429   0.371   2.394  11.761 -2.6455 -0.6585 -2.4315
 7412TIP3   OH246430   4.294   1.478  10.808  0.3379 -0.2899  0.0729
 7412TIP3    H146431   4.274   1.552  10.749  1.3738  0.5600  0.7613
 7412TIP3    H246432   4.284   1.515  10.896  1.7049 -0.7333  0.4255
 7413TIP3   OH246433   4.288   1.999  10.715 -0.3165 -0.5095 -0.2165
 7413TIP3    H146434   4.333   2.081  10.733  1.1513 -1.4395  0.5471
 7413TIP3    H246435   4.195   2.019  10.728  0.0972  0.7667  0.9920
 7414TIP3   OH246436   6.108   6.181  12.919  0.0104 -0.2147  0.1802
 7414TIP3    H146437   6.123   6.200  13.012 -1.3589  0.4722  0.2995
 7414TIP3    H246438   6.156   6.101  12.903  0.9796  0.1195  1.2655
 7415TIP3   OH246439   3.681   4.962  12.345 -0.5177 -0.5586 -1.3492
 7415TIP3    H146440   3.627   5.039  12.361 -2.2335 -2.2500  2.1474
 7415TIP3    H246441   3.766   4.983  12.384 -1.5018 -0.9044  1.1570
 7416TIP3   OH246442   5.113   0.340  12.750  0.1383 -0.2683  0.0547
 7416TIP3    H146443   5.060   0.402  12.700  1.9802  0.5596 -0.9650
 7416TIP3    H246444   5.102   0.367  12.841 -0.9432  0.0645 -0.1680
 7417TIP3   OH246445   5.146   4.933  11.885  0.0389  0.0164  0.2317
 7417TIP3    H146446   5.178   5.022  11.900 -0.5076  0.1138  0.8337
 7417TIP3    H246447   5.164   4.887  11.967 -1.0472 -0.0175  0.4565
 7418TIP3   OH246448   3.282   5.448  13.045  1.0153  0.2090 -0.9628
 7418TIP3    H146449   3.347   5.478  13.108  0.5050  1.5641 -1.0325
 7418TIP3    H246450   3.202   5.439  13.096  1.4507 -2.5636 -0.6351
 7419TIP3   OH246451   4.470   2.796  12.173  0.5124 -0.3117  0.1160
 7419TIP3    H146452   4.470   2.725  12.109 -0.5153 -0.9079  0.7489
 7419TIP3    H246453   4.457   2.876  12.121 -1.9990 -0.9270 -0.3286
 7420TIP3   OH246454   0.515   0.094  11.324 -0.3371  0.8630  0.0847
 7420TIP3    H146455   0.546   0.153  11.392  0.8378 -0.7391  1.0018
 7420TIP3    H246456   0.593   0.072  11.273  0.1256 -2.7265  2.0272
 7421TIP3   OH246457   6.938   3.275  11.305  0.3944 -0.0121  0.3067
 7421TIP3    H146458   6.867   3.281  11.241 -0.6640  2.4790  1.5724
 7421TIP3    H246459   7.017   3.295  11.254 -0.1658 -0.0712 -0.6068
 7422TIP3   OH246460   2.217   3.312  12.835 -0.3287 -0.1856 -0.4131
 7422TIP3    H146461   2.250   3.259  12.763 -1.0983 -0.3085 -0.6888
 7422TIP3    H246462   2.271   3.391  12.834  1.3617 -1.2574  0.4849
 7423TIP3   OH246463   4.587   0.924  12.453  0.2015  0.0812 -0.2020
 7423TIP3    H146464   4.643   1.000  12.468 -0.2952  0.4952 -0.4014
 7423TIP3    H246465   4.582   0.916  12.358  0.6859 -0.5366 -0.1849
 7424TIP3   OH246466   5.998   4.706  11.694 -0.2161 -0.5049  0.0728
 7424TIP3    H146467   5.937   4.665  11.756 -1.1998  2.2781  1.0810
 7424TIP3    H246468   6.055   4.759  11.749  1.3324 -0.8787 -1.1309
 7425TIP3   OH246469   3.529   6.910  12.514 -0.2120 -0.1437  0.5788
 7425TIP3    H146470   3.527   6.982  12.576  0.8345  1.4482 -1.1224
 7425TIP3    H246471   3.576   6.945  12.438 -0.2444 -2.4162 -0.5843
 7426TIP3   OH246472   5.068   5.628  10.771 -0.5753  0.4425  0.0649
 7426TIP3    H146473   4.979   5.636  10.736  0.2140 -0.1005 -2.2556
 7426TIP3    H246474   5.119   5.693  10.723  0.7045 -0.7678 -0.2797
 7427TIP3   OH246475   3.909   5.808  12.805  0.0051 -0.2990  0.0382
 7427TIP3    H146476   3.927   5.899  12.781 -0.2166 -0.5859 -1.2795
 7427TIP3    H246477   3.823   5.811  12.848 -0.5350 -0.0210 -1.0226
 7428TIP3   OH246478   7.557   6.324  12.544 -0.4432 -0.5189 -0.3734
 7428TIP3    H146479   7.494   6.316  12.616  0.5905 -0.7282  0.5447
 7428TIP3    H246480   7.605   6.241  12.546  0.7187  0.1451 -0.1926
 7429TIP3   OH246481   4.770   7.459  12.895 -0.2141  0.1793 -0.3957
 7429TIP3    H146482   4.776   7.417  12.809  1.7994  1.0627 -0.7675
 7429TIP3    H246483   4.852   7.436  12.939 -1.1712 -0.1885  1.2920
 7430TIP3   OH246484   1.600   4.705  11.523  0.6518  0.2576  0.5386
 7430TIP3    H146485   1.679   4.759  11.515  0.7352  0.5016  2.4501
 7430TIP3    H246486   1.630   4.626  11.569  0.4002 -1.2011 -1.6333
 7431TIP3   OH246487   4.916   0.578  12.804  0.4916  0.1646  0.3257
 7431TIP3    H146488   4.868   0.657  12.828  1.7373  0.9924  0.1976
 7431TIP3    H246489   4.877   0.509  12.856 -0.7558  0.8253  0.2975
 7432TIP3   OH246490   0.825   6.184  13.320 -0.2779  0.0250 -0.3445
 7432TIP3    H146491   0.787   6.267  13.347  0.8204  1.1745 -2.1206
 7432TIP3    H246492   0.792   6.120  13.383 -4.1361  1.1146 -1.0272
 7433TIP3   OH246493   5.822   3.407  11.121 -0.2324 -0.0895  0.1947
 7433TIP3    H146494   5.892   3.359  11.077 -0.8814 -0.2264 -0.7123
 7433TIP3    H246495   5.850   3.411  11.213  0.0505 -1.8217  0.2232
 7434TIP3   OH246496   2.139   5.802  12.047  0.5680 -0.3160 -0.0641
 7434TIP3    H146497   2.226   5.777  12.078  0.1427  1.3460  2.8760
 7434TIP3    H246498   2.084   5.726  12.065  0.0919  0.8663  4.9905
 7435TIP3   OH246499   6.983   2.497  10.756  0.3529 -0.6695  0.3453
 7435TIP3    H146500   6.923   2.454  10.695  1.2069 -2.0570  0.4416
 7435TIP3    H246501   7.070   2.473  10.724  0.8211 -1.2403  1.9503
 7436TIP3   OH246502   0.384   2.475  12.809 -0.1975  0.6405  0.1580
 7436TIP3    H146503   0.349   2.527  12.737 -1.5033 -0.6983 -0.2397
 7436TIP3    H246504   0.432   2.404  12.767 -0.8315 -0.0567  0.5794
 7437TIP3   OH246505   5.618   0.590  10.967  0.0739  0.5568  0.3144
 7437TIP3    H146506   5.574   0.597  11.052 -1.1697  0.7356 -0.3160
 7437TIP3    H246507   5.634   0.680  10.940  1.2609  0.4932  0.7247
 7438TIP3   OH246508   2.037   1.758  12.111 -0.1999  0.2462  0.3181
 7438TIP3    H146509   2.050   1.853  12.106 -0.7060  0.3384  0.6299
 7438TIP3    H246510   2.108   1.727  12.167 -0.8844  0.6532  1.4689
 7439TIP3   OH246511   1.657   7.399  12.510  0.9580  0.0580  0.2686
 7439TIP3    H146512   1.620   7.359  12.431 -3.2090  0.4604  1.7906
 7439TIP3    H246513   1.676   7.325  12.567  1.7011 -0.0979 -0.1572
 7440TIP3   OH246514   4.746   6.311  12.555  0.2051 -0.0710 -0.5962
 7440TIP3    H146515   4.724   6.250  12.625 -2.4070  0.3451 -0.9398
 7440TIP3    H246516   4.832   6.345  12.579 -0.8195  0.5110  2.7389
 7441TIP3   OH246517   4.059   1.871  11.947 -0.2848 -0.4310 -0.1544
 7441TIP3    H146518   4.030   1.921  11.870 -0.7733 -1.3994 -0.6234
 7441TIP3    H246519   4.153   1.886  11.951 -0.2075 -0.5642 -1.1035
 7442TIP3   OH246520   6.847   6.513  12.237  0.0801  0.3962  0.2018
 7442TIP3    H146521   6.875   6.488  12.324  2.3400 -1.2737 -0.8940
 7442TIP3    H246522   6.912   6.578  12.209  0.1893 -0.1085 -0.7414
 7443TIP3   OH246523   5.903   6.583  13.176  0.3010  0.3050  0.1329
 7443TIP3    H146524   5.929   6.491  13.185  0.0383  0.2839  0.6929
 7443TIP3    H246525   5.973   6.632  13.218  0.7140  0.4020 -0.6416
 7444TIP3   OH246526   3.534   5.418  11.927 -0.2933 -0.4040 -0.2440
 7444TIP3    H146527   3.602   5.459  11.872  3.2430 -1.6847  2.7427
 7444TIP3    H246528   3.529   5.328  11.895  0.9079 -0.8309  0.7062
 7445TIP3   OH246529   3.672   0.213  12.113  0.4290  0.7314  0.0458
 7445TIP3    H146530   3.661   0.277  12.043  0.6984  0.7701  0.0353
 7445TIP3    H246531   3.630   0.134  12.081  0.5595  0.7468 -0.1632
 7446TIP3   OH246532   1.136   1.026  12.224 -0.0971  0.2586  0.7005
 7446TIP3    H146533   1.061   0.978  12.259  0.1906 -0.7589 -0.0304
 7446TIP3    H246534   1.117   1.118  12.242 -0.9944 -0.0755  1.5050
 7447TIP3   OH246535   6.945   0.487  10.942 -0.2608 -0.0336  0.5280
 7447TIP3    H146536   6.870   0.459  10.994  0.9814 -1.3536  1.6849
 7447TIP3    H246537   6.997   0.540  11.002  0.9637 -1.1991  0.5528
 7448TIP3   OH246538   5.727   1.492  10.534 -0.1013  0.1388  0.2200
 7448TIP3    H146539   5.674   1.534  10.602  1.2603 -1.3617  2.3454
 7448TIP3    H246540   5.694   1.402  10.531  0.3472 -0.0035 -0.5857
 7449TIP3   OH246541   4.413   6.063  12.229 -0.1712 -0.0617 -0.1953
 7449TIP3    H146542   4.491   6.097  12.274 -0.2500  0.0170 -0.1173
 7449TIP3    H246543   4.414   5.969  12.247 -0.6236  0.0773  0.6267
 7450TIP3   OH246544   6.042   5.738  11.618  0.0727  0.1617  0.2637
 7450TIP3    H146545   6.078   5.722  11.705  1.9753  1.5702 -0.1998
 7450TIP3    H246546   6.096   5.684  11.560 -1.8106 -1.5532 -0.0280
 7451TIP3   OH246547   6.672   0.624  11.702 -0.3372 -0.0140  0.5830
 7451TIP3    H146548   6.750   0.642  11.755 -0.2730  0.9216  0.2070
 7451TIP3    H246549   6.705   0.580  11.624 -0.3824 -1.0253  1.1270
 7452TIP3   OH246550   1.348   0.826  10.447 -0.5583 -0.0026 -0.4353
 7452TIP3    H146551   1.253   0.816  10.462 -0.1695  0.6861  3.8174
 7452TIP3    H246552   1.383   0.738  10.455 -0.5998  0.1049  1.3534
 7453TIP3   OH246553   3.791   3.709  10.953  0.0529 -0.5977 -0.0455
 7453TIP3    H146554   3.715   3.753  10.991 -0.4817  0.7812 -2.5130
 7453TIP3    H246555   3.777   3.616  10.971 -1.5781 -0.2564  0.6140
 7454TIP3   OH246556   4.361   5.160  11.743  0.3387 -0.2203  0.3686
 7454TIP3    H146557   4.317   5.147  11.659 -2.1254  1.0731  1.3557
 7454TIP3    H246558   4.384   5.072  11.772 -0.6034 -0.8484 -0.7280
 7455TIP3   OH246559   4.042   2.378  12.698  0.1697  0.6606 -0.8427
 7455TIP3    H146560   3.993   2.321  12.757  0.2559 -0.0744 -1.4638
 7455TIP3    H246561   4.039   2.334  12.614 -0.9780  2.2852 -1.6993
 7456TIP3   OH246562   5.697   2.808  10.504 -0.6321  0.0976  0.1403
 7456TIP3    H146563   5.738   2.787  10.588  0.6982  0.2554 -0.4440
 7456TIP3    H246564   5.714   2.901  10.491  1.7893 -0.4955 -1.6237
 7457TIP3   OH246565   7.447   3.526  12.814 -0.1196 -0.1451  0.2879
 7457TIP3    H146566   7.509   3.558  12.748 -0.7386  2.6071  0.9158
 7457TIP3    H246567   7.489   3.545  12.898  0.1669 -2.5959  0.7738
 7458TIP3   OH246568   0.212   6.312  12.849 -0.2979  0.1826  0.4144
 7458TIP3    H146569   0.225   6.305  12.755 -0.6790  0.1894  0.3592
 7458TIP3    H246570   0.171   6.229  12.874  2.8072 -1.2796  1.1242
 7459TIP3   OH246571   7.165   3.537  11.438 -0.2421  0.0807 -0.1978
 7459TIP3    H146572   7.134   3.548  11.348  1.0135  0.7163 -0.5714
 7459TIP3    H246573   7.093   3.493  11.483 -3.2431  4.4019 -0.1071
 7460TIP3   OH246574   4.867   0.461  11.534  0.1532  0.1195  0.3113
 7460TIP3    H146575   4.957   0.490  11.552 -0.1852  2.0073 -0.8325
 7460TIP3    H246576   4.818   0.542  11.518 -0.8627 -1.0111 -3.1295
 7461TIP3   OH246577  -0.001   5.112  11.893 -0.1143 -0.2185 -0.3128
 7461TIP3    H146578  -0.007   5.201  11.860 -0.0494 -0.2176 -0.3232
 7461TIP3    H246579   0.084   5.080  11.861  0.2895  0.0415  0.4781
 7462TIP3   OH246580   2.839   0.575  10.582  0.4180 -0.6569  0.4887
 7462TIP3    H146581   2.875   0.488  10.560  1.3926  0.1984 -1.5581
 7462TIP3    H246582   2.826   0.617  10.497 -0.1683  1.1530  1.4473
 7463TIP3   OH246583   2.593   2.838  12.755 -0.6243 -0.3682  0.0854
 7463TIP3    H146584   2.572   2.770  12.820  1.1808 -1.5110 -0.4406
 7463TIP3    H246585   2.665   2.887  12.794 -0.2634 -0.3571 -0.5748
 7464TIP3   OH246586   1.757   3.059  11.937 -0.2412 -0.1834 -0.4509
 7464TIP3    H146587   1.676   3.103  11.911  0.8244  1.4072 -1.3223
 7464TIP3    H246588   1.730   2.991  11.998 -2.0337  1.6099  0.8678
 7465TIP3   OH246589   4.703   3.353  12.103 -0.1892 -0.2989 -0.3185
 7465TIP3    H146590   4.642   3.287  12.136  0.3385 -0.0906  1.1351
 7465TIP3    H246591   4.786   3.335  12.147  0.2588  0.6535 -0.7310
 7466TIP3   OH246592   3.770   6.904  12.790 -0.1879  0.0601  0.2788
 7466TIP3    H146593   3.850   6.955  12.774 -1.3729  2.3182  1.0272
 7466TIP3    H246594   3.799   6.813  12.793  2.3204  0.7924  0.3911
 7467TIP3   OH246595   5.382   6.130  11.318  0.8557  0.2413 -0.4142
 7467TIP3    H146596   5.323   6.197  11.283  1.8041  0.2002 -2.1711
 7467TIP3    H246597   5.468   6.172  11.317  1.0280 -0.0012  1.3078
 7468TIP3   OH246598   6.674   2.555  12.215  0.2446 -0.1874 -0.1701
 7468TIP3    H146599   6.721   2.581  12.136 -0.9834  1.1747 -0.4897
 7468TIP3    H246600   6.736   2.572  12.286  0.5168  0.8523 -0.6402
 7469TIP3   OH246601   0.559   1.874  12.286  0.5751  0.7000 -0.1561
 7469TIP3    H146602   0.629   1.820  12.249 -0.3122 -0.5643 -0.0431
 7469TIP3    H246603   0.605   1.941  12.337  1.6903 -0.8462  0.9357
 7470TIP3   OH246604   0.268   2.096  11.721 -0.1235 -0.4945  0.7981
 7470TIP3    H146605   0.206   2.122  11.653 -0.5788  0.1079  1.4300
 7470TIP3    H246606   0.215   2.084  11.799  0.8801  3.4652  2.3059
 7471TIP3   OH246607   3.295   3.696  12.339  0.5080 -0.3040 -0.4745
 7471TIP3    H146608   3.325   3.638  12.408  1.8182 -0.9418 -1.5387
 7471TIP3    H246609   3.365   3.760  12.328 -0.3416  0.6972 -0.2179
 7472TIP3   OH246610   3.801   0.067  12.716 -0.7270 -0.1599  0.1114
 7472TIP3    H146611   3.722   0.102  12.758 -0.3635  0.6898  0.1109
 7472TIP3    H246612   3.828  -0.006  12.771  0.0502  1.2580  1.6910
 7473TIP3   OH246613   4.545   7.171  12.848 -0.9824 -0.3094 -0.0936
 7473TIP3    H146614   4.589   7.087  12.841 -2.2236 -1.0920  1.0896
 7473TIP3    H246615   4.463   7.159  12.798 -0.6988  0.5524 -0.7990
 7474TIP3   OH246616   5.185   2.400  11.182  0.6995  0.3567  0.5166
 7474TIP3    H146617   5.126   2.377  11.110  1.0652  0.0952  0.2969
 7474TIP3    H246618   5.226   2.317  11.206  3.2182  0.9478 -1.3259
 7475TIP3   OH246619   2.237   5.252  12.904  0.4409  0.8477 -0.4452
 7475TIP3    H146620   2.218   5.290  12.989  1.2854  1.9464 -0.7315
 7475TIP3    H246621   2.267   5.163  12.923  1.2232  1.2924  0.4554
 7476TIP3   OH246622   1.175   1.856  10.855  0.3206 -0.5192 -0.1173
 7476TIP3    H146623   1.207   1.836  10.943 -0.9180 -1.4606  0.1488
 7476TIP3    H246624   1.229   1.803  10.797  2.4119  1.4844 -0.1606
 7477TIP3   OH246625   4.651   0.611  12.609  0.1871 -0.5839 -0.3549
 7477TIP3    H146626   4.646   0.632  12.515 -0.7423 -0.4808 -0.2889
 7477TIP3    H246627   4.736   0.567  12.619  1.4802  1.6284 -0.8043
 7478TIP3   OH246628   5.320   1.204  11.222 -0.3992 -0.1399  0.2485
 7478TIP3    H146629   5.323   1.192  11.128  0.9808 -0.2500  0.2806
 7478TIP3    H246630   5.274   1.287  11.235  1.2538  0.9746 -0.6624
 7479TIP3   OH246631   7.031   0.906  18.038  0.1889  0.0830  0.0166
 7479TIP3    H146632   7.051   0.813  18.028 -0.5057 -0.0659 -0.0097
 7479TIP3    H246633   7.026   0.940  17.948  0.4855  0.1626  0.0265
 7480TIP3   OH246634   0.017   2.946  12.301 -0.0961  0.2672  0.1662
 7480TIP3    H146635   0.041   2.892  12.226 -1.7761 -1.1373  0.5693
 7480TIP3    H246636  -0.045   3.010  12.266  0.9805  1.1956 -0.0824
 7481TIP3   OH246637   1.997   4.827  12.368  0.2838 -0.2580 -0.2514
 7481TIP3    H146638   1.991   4.738  12.403  0.4421 -0.4513 -0.7190
 7481TIP3    H246639   1.961   4.882  12.438 -0.7375 -0.7746 -0.3472
 7482TIP3   OH246640   7.645   1.519  11.126 -0.4278  0.3117  0.7421
 7482TIP3    H146641   7.692   1.439  11.103 -1.7235 -0.3852  0.4226
 7482TIP3    H246642   7.565   1.489  11.168 -1.3137  1.3999 -0.1007
 7483TIP3   OH246643   7.670   2.169  10.682  0.4006  0.6170  0.1421
 7483TIP3    H146644   7.624   2.119  10.750 -1.4854  0.8150 -0.9200
 7483TIP3    H246645   7.705   2.245  10.727 -0.4978  0.5543  0.9734
 7484TIP3   OH246646   7.501   2.627  10.422 -0.4012  0.4234 -0.4116
 7484TIP3    H146647   7.507   2.714  10.462 -1.4471  1.3235 -2.1216
 7484TIP3    H246648   7.421   2.629  10.371 -0.4055 -1.5510 -0.5567
 7485TIP3   OH246649   0.658   1.759  10.188 -0.3305 -0.1336 -0.3512
 7485TIP3    H146650   0.628   1.781  10.100 -0.6400 -1.0159 -0.4728
 7485TIP3    H246651   0.704   1.837  10.218 -1.2460  0.6159 -0.8366
 7486TIP3   OH246652   1.076   5.802  11.045  0.2008  0.2661 -0.3333
 7486TIP3    H146653   1.107   5.842  11.127  1.9831 -2.4283  0.4709
 7486TIP3    H246654   1.095   5.709  11.056 -2.3003 -0.6417 -2.6511
 7487TIP3   OH246655   3.957   2.152  12.842  0.2226  0.2613 -0.5181
 7487TIP3    H146656   3.898   2.203  12.897 -1.2362  1.9256 -3.3525
 7487TIP3    H246657   3.959   2.065  12.882 -2.9489  0.5722  0.5947
 7488TIP3   OH246658   5.731   1.201  12.081 -0.0603  0.8801  0.7039
 7488TIP3    H146659   5.648   1.198  12.128 -0.3654  0.1562  0.1481
 7488TIP3    H246660   5.797   1.214  12.148 -0.2924 -1.9459  1.6010
 7489TIP3   OH246661   3.857   5.721  10.451  0.0776  1.4554  0.2116
 7489TIP3    H146662   3.928   5.682  10.503 -0.4237  1.4472  0.8940
 7489TIP3    H246663   3.778   5.675  10.478 -0.2311  1.6195 -0.3847
 7490TIP3   OH246664   5.169   0.174  11.755  0.1797 -0.4366  0.7097
 7490TIP3    H146665   5.217   0.113  11.810  1.5732  2.2744  2.7073
 7490TIP3    H246666   5.228   0.191  11.681  0.2032 -0.7495  0.6548
 7491TIP3   OH246667   6.028   2.044  11.326 -0.1704 -0.2041 -0.3311
 7491TIP3    H146668   5.999   1.994  11.249 -0.5160 -2.1305  0.9867
 7491TIP3    H246669   6.109   2.086  11.298 -1.8639  1.7674 -2.7297
 7492TIP3   OH246670   5.298   2.107  11.253  0.0701 -0.0749  0.5142
 7492TIP3    H146671   5.234   2.077  11.318 -0.0354 -1.3151 -0.1152
 7492TIP3    H246672   5.380   2.066  11.280 -0.1683 -1.3684 -0.6063
 7493TIP3   OH246673   0.682   5.678  11.537 -0.6679 -0.4896  0.3085
 7493TIP3    H146674   0.728   5.758  11.510 -0.0566  0.2172  3.1785
 7493TIP3    H246675   0.589   5.700  11.528 -0.4951  0.2622  0.2900
 7494TIP3   OH246676   3.113   3.226  10.831  1.0156 -0.5839 -0.3846
 7494TIP3    H146677   3.069   3.278  10.898  0.7403 -1.0878 -0.1660
 7494TIP3    H246678   3.112   3.281  10.753  0.6665 -0.2880 -0.1745
 7495TIP3   OH246679   7.378   0.820  11.768  0.2340 -0.6966 -0.2499
 7495TIP3    H146680   7.438   0.774  11.709  1.0235  1.2661 -1.0625
 7495TIP3    H246681   7.369   0.907  11.730 -1.7421 -0.3550  0.8532
 7496TIP3   OH246682   1.036   6.021  10.829  0.1607  0.0465  0.0048
 7496TIP3    H146683   1.047   5.956  10.899  0.8647 -0.1278 -0.2543
 7496TIP3    H246684   0.971   5.982  10.770 -0.0946 -0.0129  0.3257
 7497TIP3   OH246685   6.343   2.333  11.450 -0.1281  0.0487  0.5696
 7497TIP3    H146686   6.436   2.354  11.454 -0.4805  1.8721  0.0846
 7497TIP3    H246687   6.315   2.325  11.541  0.7572 -1.8725  0.7077
 7498TIP3   OH246688   5.918   1.283  10.815  0.0133 -0.0688  0.1424
 7498TIP3    H146689   5.836   1.246  10.782  0.5773 -2.7307  1.5039
 7498TIP3    H246690   5.969   1.300  10.736 -1.5667  1.0634 -0.7011
 7499TIP3   OH246691   4.342   6.122  10.958 -0.8066 -0.1514 -0.6248
 7499TIP3    H146692   4.379   6.164  11.036  2.8700 -1.1232 -1.6463
 7499TIP3    H246693   4.275   6.183  10.927 -0.9645  1.2205  2.1093
 7500TIP3   OH246694   4.299   1.875  13.141 -0.3356  0.6086 -0.0342
 7500TIP3    H146695   4.342   1.809  13.195  0.9153 -0.6063 -2.3575
 7500TIP3    H246696   4.206   1.869  13.165 -0.0398 -0.9640  0.8456
 7501TIP3   OH246697   4.441   2.837  11.627  0.0061 -0.2001 -0.1451
 7501TIP3    H146698   4.385   2.899  11.581 -0.2650 -0.5219 -0.2438
 7501TIP3    H246699   4.502   2.805  11.560  0.7812  0.6815  0.1095
 7502TIP3   OH246700   4.662   1.669  11.007  0.1294  0.1743 -0.4452
 7502TIP3    H146701   4.609   1.704  10.935 -0.9274 -1.2563 -0.4216
 7502TIP3    H246702   4.671   1.576  10.986 -0.6673 -0.4021  1.5134
 7503TIP3   OH246703   5.462   4.597  12.397  0.4971  0.1642  0.2592
 7503TIP3    H146704   5.489   4.525  12.454  0.1550 -0.4616 -0.3578
 7503TIP3    H246705   5.368   4.583  12.384  0.2386  1.2259  0.8336
 7504TIP3   OH246706   3.858   6.625  12.770 -0.3715  0.0600  0.1356
 7504TIP3    H146707   3.795   6.637  12.699 -2.0144 -2.7428  0.9648
 7504TIP3    H246708   3.943   6.638  12.728 -1.3595  1.1950 -1.6790
 7505TIP3   OH246709   6.417   5.227  12.287 -0.0382  0.7494  0.4904
 7505TIP3    H146710   6.420   5.246  12.381  0.6727  0.3894  0.5473
 7505TIP3    H246711   6.378   5.306  12.248 -0.4827  0.8404  1.0964
 7506TIP3   OH246712   0.214   4.047  13.173  0.2882  0.0626 -0.2630
 7506TIP3    H146713   0.223   4.101  13.094 -0.1723  0.5350  0.0068
 7506TIP3    H246714   0.214   4.110  13.245  2.2007 -0.4451  0.2482
 7507TIP3   OH246715   6.244   4.052  11.519  0.2817  0.0365  0.3525
 7507TIP3    H146716   6.304   4.105  11.466 -0.6929  0.2341 -0.5728
 7507TIP3    H246717   6.186   4.010  11.456  0.8479 -1.9461  1.0926
 7508TIP3   OH246718   5.443   3.657  11.542  0.2691 -0.4267  0.3622
 7508TIP3    H146719   5.429   3.713  11.466 -0.4554 -1.0750  0.0056
 7508TIP3    H246720   5.527   3.614  11.524  0.6369  0.2283  0.4546
 7509TIP3   OH246721   5.994   2.376  11.773 -0.1575  0.2936  0.0056
 7509TIP3    H146722   5.911   2.329  11.768 -0.6868  0.7792  2.6583
 7509TIP3    H246723   5.988   2.426  11.855  2.3304  1.1916 -0.2800
 7510TIP3   OH246724   4.684   7.069  11.290 -0.1108  0.0634  0.8093
 7510TIP3    H146725   4.592   7.048  11.276  0.7470 -3.9753 -0.1926
 7510TIP3    H246726   4.708   7.018  11.367  2.1672 -2.8388 -1.5736
 7511TIP3   OH246727   2.157   2.863  11.599  0.3493  0.3147  0.2365
 7511TIP3    H146728   2.237   2.860  11.650  0.1933 -0.0498  0.4639
 7511TIP3    H246729   2.129   2.771  11.593  0.2386  0.3813 -0.2938
 7512TIP3   OH246730   3.591   2.156  12.125  0.4985  0.2997  0.6495
 7512TIP3    H146731   3.624   2.115  12.205  0.3551  2.9344  2.1346
 7512TIP3    H246732   3.500   2.178  12.144  0.0183 -0.2668 -0.7946
 7513TIP3   OH246733   0.109   1.695  12.672  0.4644  0.1594  0.9862
 7513TIP3    H146734   0.063   1.687  12.589  1.7815 -0.4422  0.2805
 7513TIP3    H246735   0.047   1.738  12.730 -0.6513  0.1605 -0.1703
 7514TIP3   OH246736   6.259   7.698  11.624 -0.3407  0.4754 -0.2645
 7514TIP3    H146737   6.241   7.791  11.635 -0.3627  0.4558 -0.1371
 7514TIP3    H246738   6.267   7.686  11.529 -0.9239  0.4972 -0.3176
 7515TIP3   OH246739   1.834   0.533  11.188 -0.0555  0.0205 -0.0110
 7515TIP3    H146740   1.746   0.553  11.156  0.3137  3.0982  0.5425
 7515TIP3    H246741   1.820   0.485  11.270 -1.2480  0.7101  0.2145
 7516TIP3   OH246742   4.025   1.382  10.940  0.1060 -0.3374  0.0348
 7516TIP3    H146743   4.021   1.446  11.011 -0.6994 -1.7980  1.3794
 7516TIP3    H246744   4.114   1.391  10.904  0.4061  0.6737  0.9864
 7517TIP3   OH246745   6.295   7.585  10.511 -0.0669  0.1231 -0.0216
 7517TIP3    H146746   6.217   7.578  10.455 -0.7626 -0.1735  0.9713
 7517TIP3    H246747   6.274   7.654  10.573  1.2472  1.4269 -0.9364
 7518TIP3   OH246748   6.390   3.532  10.597 -0.1394 -0.4800 -0.4262
 7518TIP3    H146749   6.477   3.569  10.611 -0.1585 -1.3538  3.0059
 7518TIP3    H246750   6.330   3.604  10.613 -0.0805 -0.7814  1.2799
 7519TIP3   OH246751   3.319   3.973  12.529 -0.2095  0.0347 -0.6221
 7519TIP3    H146752   3.393   3.956  12.470  0.3416  0.4924 -0.0753
 7519TIP3    H246753   3.266   4.038  12.482 -0.1648 -0.1493 -0.9310
 7520TIP3   OH246754   4.277   6.465  13.332  0.1207  0.2610 -0.2534
 7520TIP3    H146755   4.314   6.377  13.326  0.8862  0.6665 -2.3114
 7520TIP3    H246756   4.320   6.514  13.263  0.4201  2.5670  1.4502
 7521TIP3   OH246757   4.228   0.308  12.624 -0.0195  0.0635  0.2938
 7521TIP3    H146758   4.137   0.315  12.595 -0.1043 -1.2437  0.2204
 7521TIP3    H246759   4.231   0.361  12.704 -0.3903  1.5932 -0.6490
 7522TIP3   OH246760   5.778   1.503  10.990  0.2292 -0.0601 -0.2491
 7522TIP3    H146761   5.829   1.562  11.045  1.1197 -0.3870 -0.7092
 7522TIP3    H246762   5.834   1.427  10.978  0.6245  0.5273 -2.6855
 7523TIP3   OH246763   0.785   6.621  11.494 -0.0485  0.3831  0.3759
 7523TIP3    H146764   0.812   6.648  11.406  0.2331  1.7130  0.8452
 7523TIP3    H246765   0.722   6.551  11.479  0.4838  0.1323 -0.8668
 7524TIP3   OH246766   1.047   1.964  11.197  0.4573  0.2294 -0.5294
 7524TIP3    H146767   1.035   1.960  11.292 -0.5613  0.1946 -0.6471
 7524TIP3    H246768   1.124   1.909  11.180  1.0085  0.7035  0.3251
 7525TIP3   OH246769   4.708   1.907  11.984  0.2344  0.2783  0.0201
 7525TIP3    H146770   4.726   1.864  11.900 -1.0423  0.6982 -0.4921
 7525TIP3    H246771   4.692   1.998  11.961 -0.4887  0.3228  0.6624
 7526TIP3   OH246772   5.546   7.198  12.556  0.2599 -0.0495 -0.2411
 7526TIP3    H146773   5.589   7.112  12.553  1.8050  0.7104 -0.7426
 7526TIP3    H246774   5.520   7.215  12.465  0.7390  0.3885 -0.2994
 7527TIP3   OH246775   1.121   3.018  10.915 -0.1997 -0.6757 -0.2920
 7527TIP3    H146776   1.133   2.930  10.951  0.7677 -1.2153 -1.8379
 7527TIP3    H246777   1.027   3.024  10.899 -0.3610 -1.1930  0.3586
 7528TIP3   OH246778   0.368   1.843  10.482  0.2728 -0.0625 -0.2176
 7528TIP3    H146779   0.288   1.877  10.522  1.6005  1.4302  1.3329
 7528TIP3    H246780   0.362   1.870  10.390 -0.6937  0.6194  0.0312
 7529TIP3   OH246781   5.337   0.354  11.109  0.5972 -0.0111  0.1896
 7529TIP3    H146782   5.295   0.272  11.135  1.1571  0.0316  1.2869
 7529TIP3    H246783   5.416   0.327  11.064  1.0274 -0.0847  0.9746
 7530TIP3   OH246784   4.540   1.668  12.981 -0.4008  0.1393  0.1919
 7530TIP3    H146785   4.593   1.747  12.986  0.2023 -0.2087 -0.4833
 7530TIP3    H246786   4.514   1.651  13.072 -2.1860  2.1811  0.1547
 7531TIP3   OH246787   0.882   7.035  10.586  0.2772  1.0352 -0.1114
 7531TIP3    H146788   0.798   7.015  10.545 -0.5194 -0.2772  1.9874
 7531TIP3    H246789   0.886   7.130  10.589 -1.3731  1.1231  0.1240
 7532TIP3   OH246790   5.830   0.250  11.314  0.2983 -0.4231 -0.5764
 7532TIP3    H146791   5.783   0.331  11.334 -0.2316 -1.2072  1.6018
 7532TIP3    H246792   5.918   0.265  11.348  0.0542 -0.9301  0.2973
 7533TIP3   OH246793   4.238   1.056  11.068  1.2579 -0.4954  0.3932
 7533TIP3    H146794   4.235   0.974  11.020 -0.8897 -0.5381  0.4859
 7533TIP3    H246795   4.185   1.040  11.146  1.2903  0.7911  0.6999
 7534TIP3   OH246796   1.837   5.014  11.610 -0.1820  0.3035  0.1490
 7534TIP3    H146797   1.868   4.939  11.661  1.0142  0.1370 -0.7817
 7534TIP3    H246798   1.761   5.046  11.659  0.2132 -0.5678  1.3935
 7535TIP3   OH246799   1.289   3.837  12.284 -0.2233  0.2710 -0.1900
 7535TIP3    H146800   1.242   3.908  12.240  0.7810  1.0608 -0.0143
 7535TIP3    H246801   1.349   3.802  12.217 -1.3470 -1.0544 -0.5611
 7536TIP3   OH246802   1.172   3.379  13.354 -0.0391  0.3396 -0.0586
 7536TIP3    H146803   1.211   3.423  13.429 -0.0429  1.6977 -0.8115
 7536TIP3    H246804   1.083   3.414  13.349  0.2764  1.0273 -1.2530
 7537TIP3   OH246805   6.204   3.294  13.078 -0.2904  0.2246 -0.3699
 7537TIP3    H146806   6.219   3.367  13.138 -1.9885  0.0698  0.3006
 7537TIP3    H246807   6.179   3.221  13.135 -1.0851 -0.1677 -1.1965
 7538TIP3   OH246808   6.895   3.886  11.248 -0.0057  0.3114 -0.5754
 7538TIP3    H146809   6.971   3.827  11.249  0.5870  0.9815  2.0942
 7538TIP3    H246810   6.929   3.969  11.281 -1.4498  1.3419 -1.5498
 7539TIP3   OH246811   4.993   7.545  11.841  0.1427 -0.1747 -0.2841
 7539TIP3    H146812   4.973   7.509  11.755  3.4137 -0.3277 -1.1085
 7539TIP3    H246813   4.969   7.638  11.835 -1.4141 -0.5758 -0.6589
 7540TIP3   OH246814   0.622   0.030  11.778  0.0760 -0.2687  0.6742
 7540TIP3    H146815   0.529   0.025  11.755  0.3321 -0.9760 -0.2452
 7540TIP3    H246816   0.625   0.094  11.849 -0.9860  0.5558  0.0181
 7541TIP3   OH246817   1.222   6.695  10.752 -0.2950  0.4928  0.5683
 7541TIP3    H146818   1.261   6.727  10.833  1.4309  2.0665 -0.7916
 7541TIP3    H246819   1.161   6.764  10.726  0.6100  0.9343 -0.4423
 7542TIP3   OH246820   5.189   1.158  11.716  0.5066  0.5162  0.7168
 7542TIP3    H146821   5.278   1.169  11.681  0.5263 -1.4922  0.0236
 7542TIP3    H246822   5.196   1.086  11.779 -0.9144 -0.9595 -0.6983
 7543TIP3   OH246823   6.182   0.409  12.219 -0.0980  0.2067  0.1540
 7543TIP3    H146824   6.129   0.411  12.140  0.8364 -0.6615 -0.5189
 7543TIP3    H246825   6.271   0.428  12.189  0.5480 -1.6812  0.7215
 7544TIP3   OH246826   6.038   6.976  10.446  0.1099 -0.2802  0.2304
 7544TIP3    H146827   5.990   7.023  10.515 -0.9266 -0.6298 -0.2372
 7544TIP3    H246828   5.971   6.923  10.402  0.9694 -0.9306 -0.3144
 7545TIP3   OH246829   2.729   4.472  11.720  0.1471 -0.0549  0.3059
 7545TIP3    H146830   2.712   4.565  11.711 -0.1587 -0.1141  0.2630
 7545TIP3    H246831   2.643   4.431  11.713  0.3027 -0.3540  0.1341
 7546TIP3   OH246832   7.588   5.276  10.588  0.5597  0.1180 -0.0335
 7546TIP3    H146833   7.521   5.220  10.549 -0.2626  1.5773 -0.7552
 7546TIP3    H246834   7.562   5.283  10.680 -0.4691  0.9261 -0.3763
 7547TIP3   OH246835   1.236   2.183  13.489  0.3910 -0.3888 -0.0613
 7547TIP3    H146836   1.219   2.272  13.521  0.7608  0.1616 -1.3236
 7547TIP3    H246837   1.300   2.195  13.419 -1.3141 -1.3943 -1.8701
 7548TIP3   OH246838   3.070   1.381  12.085 -0.2702  0.6577  0.0671
 7548TIP3    H146839   3.020   1.397  12.165 -1.0717  0.8553 -0.4605
 7548TIP3    H246840   3.016   1.418  12.016 -1.2892 -2.4877 -0.9995
 7549TIP3   OH246841   4.811   6.486  11.309 -0.0420 -0.1791  0.4001
 7549TIP3    H146842   4.741   6.504  11.246 -2.7918 -2.5842  2.4863
 7549TIP3    H246843   4.771   6.502  11.395  2.3636 -0.5081  1.6593
 7550TIP3   OH246844   2.705   3.063  10.538 -0.5016  0.1432  0.6383
 7550TIP3    H146845   2.719   2.990  10.598  2.5866 -0.4844 -0.6325
 7550TIP3    H246846   2.678   3.023  10.456 -1.0047  0.6456  0.5522
 7551TIP3   OH246847   5.252   7.538  11.018 -0.0686  0.6274 -0.2477
 7551TIP3    H146848   5.262   7.623  11.061 -0.9016  0.7846 -0.3597
 7551TIP3    H246849   5.294   7.549  10.933 -1.2014  1.3038 -0.7440
 7552TIP3   OH246850   2.695   6.246  13.020 -0.5011  0.6831 -0.5556
 7552TIP3    H146851   2.747   6.187  12.965 -0.9197 -0.8941  0.6892
 7552TIP3    H246852   2.689   6.327  12.968  2.8730  0.8427 -0.9231
 7553TIP3   OH246853   1.010   4.730  12.401 -0.2727  0.1690 -0.0569
 7553TIP3    H146854   1.057   4.809  12.428 -1.1054  1.3319 -1.7586
 7553TIP3    H246855   1.067   4.690  12.335  0.6388 -1.2947  1.5567
 7554TIP3   OH246856   0.545   5.676  13.194  0.3370  0.1284 -0.6473
 7554TIP3    H146857   0.578   5.602  13.143  1.2459  0.5135 -0.6236
 7554TIP3    H246858   0.463   5.644  13.232  1.5060 -1.4258  0.6728
 7555TIP3   OH246859   2.632   2.268  12.643  0.3070  0.4584 -0.6569
 7555TIP3    H146860   2.722   2.297  12.632  0.2812  0.6585 -0.3441
 7555TIP3    H246861   2.635   2.203  12.713  0.0583  1.2226  0.0782
 7556TIP3   OH246862   0.781   2.091  10.676 -0.0609  0.2491 -0.1645
 7556TIP3    H146863   0.791   2.129  10.589  0.8232  1.8986  0.5998
 7556TIP3    H246864   0.727   2.013  10.662 -4.0131  2.8929 -1.6050
 7557TIP3   OH246865   7.124   0.360  12.206  0.2569 -0.0003  0.3391
 7557TIP3    H146866   7.076   0.291  12.252 -0.3577 -0.8289 -1.4713
 7557TIP3    H246867   7.057   0.417  12.170  0.7023  0.2853 -0.0586
 7558TIP3   OH246868   1.991   3.792  11.586 -0.5453 -0.8528  0.0074
 7558TIP3    H146869   1.918   3.729  11.590  0.5239 -2.1692  4.8184
 7558TIP3    H246870   2.069   3.739  11.598  1.0361  0.8903 -1.8850
 7559TIP3   OH246871   3.999   2.238  12.174  0.1862  0.3493 -0.2559
 7559TIP3    H146872   4.090   2.226  12.149  0.0634  0.1626 -0.6189
 7559TIP3    H246873   3.951   2.174  12.122 -0.0320 -0.3582  0.7718
 7560TIP3   OH246874   0.710   7.522  12.632 -0.6735 -0.2714  0.2809
 7560TIP3    H146875   0.790   7.495  12.587 -1.0604  2.2050 -2.1661
 7560TIP3    H246876   0.639   7.485  12.580 -1.1174  0.9136  0.0091
 7561TIP3   OH246877   4.436   4.766  12.994 -0.1264  0.1971 -0.2395
 7561TIP3    H146878   4.429   4.716  12.913  0.3221 -1.1741  0.5312
 7561TIP3    H246879   4.346   4.782  13.021 -0.2739  0.0358 -0.6429
 7562TIP3   OH246880   4.979   4.659  10.754 -0.1817 -0.1304 -0.1122
 7562TIP3    H146881   5.012   4.604  10.825  0.9222  0.6726  0.0272
 7562TIP3    H246882   5.054   4.670  10.695 -0.2787  1.4267  0.0086
 7563TIP3   OH246883   3.808   2.958  12.020  0.0240 -0.4437 -0.3722
 7563TIP3    H146884   3.850   2.934  12.102 -0.1206  0.3913 -0.0472
 7563TIP3    H246885   3.874   2.937  11.953  0.4570 -0.3724  0.0247
 7564TIP3   OH246886   1.305   3.139  11.227  0.0492  0.2410 -0.2693
 7564TIP3    H146887   1.252   3.156  11.304 -0.2574 -1.6192 -0.0212
 7564TIP3    H246888   1.393   3.124  11.261  0.0728  0.1712 -0.3598
 7565TIP3   OH246889   2.334   6.227  11.733  0.6508  0.0330  0.1017
 7565TIP3    H146890   2.268   6.293  11.715  0.6678  0.0746  0.1913
 7565TIP3    H246891   2.291   6.165  11.792  0.3038 -0.5886 -0.7836
 7566TIP3   OH246892   2.469   2.702  10.523  0.2430  0.4619 -0.0711
 7566TIP3    H146893   2.430   2.784  10.492  0.4251  0.6475  0.1879
 7566TIP3    H246894   2.396   2.641  10.527 -0.0290  0.8130  0.4299
 7567TIP3   OH246895   4.497   6.787  12.293 -0.6038 -0.2806  0.6355
 7567TIP3    H146896   4.449   6.866  12.270  0.0605 -0.4469 -1.5866
 7567TIP3    H246897   4.573   6.817  12.342 -1.1906  0.2822  1.2156
 7568TIP3   OH246898   0.933   0.968  11.591 -0.1585 -0.0992 -0.6275
 7568TIP3    H146899   1.003   0.919  11.547  1.0629  0.8239  0.2001
 7568TIP3    H246900   0.938   0.939  11.682  1.1680  2.0824  0.0756
 7569TIP3   OH246901   1.012   0.903  10.760 -0.3982  0.3837 -0.3827
 7569TIP3    H146902   0.964   0.979  10.795  0.2869  0.6573 -0.0232
 7569TIP3    H246903   0.962   0.827  10.790 -0.6532  0.6689 -0.0797
 7570TIP3   OH246904   6.244   6.447  12.423 -0.1657  0.2257 -0.6993
 7570TIP3    H146905   6.209   6.456  12.512  0.2565 -1.0331 -0.3791
 7570TIP3    H246906   6.168   6.420  12.371  0.2256 -2.5858  0.0127
 7571TIP3   OH246907   1.924   7.386  11.461  0.4478 -0.1198  0.0167
 7571TIP3    H146908   1.991   7.334  11.506  0.7348  1.3245  1.3456
 7571TIP3    H246909   1.948   7.381  11.369  1.7848 -0.4825  0.3626
 7572TIP3   OH246910   5.862   0.556  10.536  0.1277 -0.4722 -0.5994
 7572TIP3    H146911   5.798   0.534  10.467  0.0164  0.7849 -0.9208
 7572TIP3    H246912   5.947   0.537  10.496  0.0631  0.2381 -1.0819
 7573TIP3   OH246913   5.733   6.985  12.372 -0.3758 -0.0294  0.2291
 7573TIP3    H146914   5.777   6.912  12.329 -1.1806 -0.1423 -0.4176
 7573TIP3    H246915   5.769   7.064  12.331  0.4539 -0.0481  0.8906
 7574TIP3   OH246916   4.040   0.608  11.189 -0.2282 -0.4155  0.8070
 7574TIP3    H146917   4.064   0.699  11.171  1.0263 -0.9996 -0.6938
 7574TIP3    H246918   4.069   0.594  11.280  0.3284  0.4415  0.7718
 7575TIP3   OH246919   3.596   4.261  11.212 -0.0827  0.1346 -0.6433
 7575TIP3    H146920   3.665   4.272  11.147  0.7843 -0.2604  0.1790
 7575TIP3    H246921   3.549   4.344  11.213  0.4750  0.4568 -1.1177
 7576TIP3   OH246922   5.532   4.266  11.644 -0.0005 -0.1360 -0.1084
 7576TIP3    H146923   5.600   4.200  11.658  0.7531  0.5173 -0.5433
 7576TIP3    H246924   5.573   4.348  11.674 -0.6887  0.2293 -0.1489
 7577TIP3   OH246925   3.958   6.898  11.253  0.1791  0.2063 -0.2503
 7577TIP3    H146926   3.907   6.979  11.245 -0.7420 -0.2164  1.0229
 7577TIP3    H246927   3.936   6.848  11.174 -1.2574  0.1188  0.1847
 7578TIP3   OH246928   7.244   5.651  12.367 -0.3614  0.7318 -0.2555
 7578TIP3    H146929   7.311   5.592  12.400 -0.6687  0.7382  0.4001
 7578TIP3    H246930   7.161   5.605  12.382 -0.6843  1.6666  1.0997
 7579TIP3   OH246931   5.442   5.395  11.074  0.0893 -0.2448  0.1226
 7579TIP3    H146932   5.532   5.423  11.089  0.1006 -1.5480  3.3394
 7579TIP3    H246933   5.396   5.475  11.048  1.0925  1.8932  4.0290
 7580TIP3   OH246934   6.324   3.489  13.219 -0.2834  0.4195  0.1671
 7580TIP3    H146935   6.243   3.539  13.206  1.0046  2.0253 -2.6350
 7580TIP3    H246936   6.374   3.540  13.283 -0.1640  1.1793 -0.5247
 7581TIP3   OH246937   3.170   7.094  13.137  0.2454  0.4088  0.5608
 7581TIP3    H146938   3.121   7.074  13.216  0.6470  0.3302  0.7940
 7581TIP3    H246939   3.209   7.011  13.111 -2.4985 -0.3764 -1.5955
 7582TIP3   OH246940   6.004   5.478  12.041  0.3306 -0.4883  0.6085
 7582TIP3    H146941   5.940   5.532  12.086 -2.8023 -1.5789 -2.1205
 7582TIP3    H246942   6.065   5.541  12.002 -1.3966  0.9209  0.0653
 7583TIP3   OH246943   6.084   2.595  13.211  0.6781  0.2325 -0.1498
 7583TIP3    H146944   6.029   2.671  13.195 -0.0618  0.1502  1.7715
 7583TIP3    H246945   6.086   2.549  13.126  1.0430  2.2798 -1.2992
 7584TIP3   OH246946   0.260   6.632  13.174 -0.5638 -0.3587 -0.0692
 7584TIP3    H146947   0.260   6.537  13.162  0.5538 -0.6493  1.7780
 7584TIP3    H246948   0.336   6.663  13.125 -1.6836 -0.1962 -1.7863
 7585TIP3   OH246949   0.247   3.182  10.627 -0.3381 -0.6901 -0.5329
 7585TIP3    H146950   0.187   3.108  10.621 -1.2001 -0.2236  1.4213
 7585TIP3    H246951   0.191   3.259  10.635  0.3559 -0.3450  2.5326
 7586TIP3   OH246952   2.799   4.081  12.329 -0.2065 -0.6402  0.0936
 7586TIP3    H146953   2.830   4.023  12.399 -0.3744 -1.2492 -0.3232
 7586TIP3    H246954   2.847   4.051  12.251  0.4396  0.4332  0.0624
 7587TIP3   OH246955   7.188   6.443  11.723  0.0085  0.0658  0.9843
 7587TIP3    H146956   7.174   6.349  11.734 -0.5113  0.1944  1.5060
 7587TIP3    H246957   7.102   6.482  11.744  0.0464  0.6093  0.1482
 7588TIP3   OH246958   5.429   5.662  11.662 -0.1129  0.4949  0.1235
 7588TIP3    H146959   5.509   5.673  11.713 -0.0629  0.5144  0.0410
 7588TIP3    H246960   5.448   5.591  11.601 -0.1086  0.5923  0.0083
 7589TIP3   OH246961   3.914   6.661  11.453 -0.4516 -0.3526  0.5746
 7589TIP3    H146962   3.933   6.728  11.387 -0.8040 -0.9388 -0.1310
 7589TIP3    H246963   3.902   6.580  11.403  0.8089 -1.1326  1.4651
 7590TIP3   OH246964   4.958   0.798  12.121  0.0852 -0.0644  0.0177
 7590TIP3    H146965   5.045   0.781  12.084 -0.2045  0.9725 -1.2058
 7590TIP3    H246966   4.916   0.857  12.058 -1.6066 -0.7374  0.4611
 7591TIP3   OH246967   6.723   4.695  11.055  0.3434  0.6533  0.4363
 7591TIP3    H146968   6.779   4.771  11.065  0.4433  0.6164  0.1474
 7591TIP3    H246969   6.728   4.650  11.139  0.3417  0.9237  0.5825
 7592TIP3   OH246970   4.643   6.899  10.627 -0.0614  0.3708  0.5091
 7592TIP3    H146971   4.635   6.804  10.620  0.4113  0.3581  0.0656
 7592TIP3    H246972   4.735   6.915  10.647 -0.0389  0.7512  0.1352
 7593TIP3   OH246973   3.650   1.914  12.768 -0.4727 -0.2241  0.2495
 7593TIP3    H146974   3.660   1.936  12.861 -1.8154 -1.5650  0.7596
 7593TIP3    H246975   3.572   1.962  12.740  0.4194  0.8596 -0.4456
 7594TIP3   OH246976   6.878   0.376  11.785  0.2438  0.2819  0.4602
 7594TIP3    H146977   6.911   0.464  11.799  1.9524  0.1402 -1.9738
 7594TIP3    H246978   6.810   0.386  11.719  0.4645 -0.2124  0.1506
 7595TIP3   OH246979   3.824   7.149  11.209  0.1984 -0.3306  0.5688
 7595TIP3    H146980   3.883   7.144  11.133 -1.0895 -0.6368 -0.4543
 7595TIP3    H246981   3.846   7.233  11.250  0.5059  0.1489 -0.5129
 7596TIP3   OH246982   5.513   3.490  11.906  0.2423  0.1748  0.0837
 7596TIP3    H146983   5.517   3.417  11.844  1.0982  0.1647  0.1355
 7596TIP3    H246984   5.601   3.528  11.903 -0.4150  1.7125 -0.5544
 7597TIP3   OH246985   3.243   1.190  11.983  0.5960  0.2987  0.1005
 7597TIP3    H146986   3.179   1.261  11.997 -0.0917 -0.5041  1.2664
 7597TIP3    H246987   3.204   1.135  11.916  0.0846 -0.1386  0.7436
 7598TIP3   OH246988   7.496   6.796  11.580  0.1781 -0.2161 -0.0031
 7598TIP3    H146989   7.420   6.809  11.636 -0.3995 -1.8322 -0.3617
 7598TIP3    H246990   7.487   6.861  11.511  0.4373  1.2126  1.2660
 7599TIP3   OH246991   3.945   3.058  12.748  0.3620  1.0732 -0.1872
 7599TIP3    H146992   3.922   3.150  12.735  1.3153  1.0770 -2.1034
 7599TIP3    H246993   4.039   3.054  12.730  0.4265 -0.2131  0.3373
 7600TIP3   OH246994   4.754   2.662  12.053  0.2767 -0.1356 -0.1464
 7600TIP3    H146995   4.680   2.666  12.115  1.0848 -0.0530  0.8514
 7600TIP3    H246996   4.778   2.754  12.040 -0.0271 -0.1435 -0.7538
 7601TIP3   OH246997   7.335   3.399  13.369  0.0740 -0.1687  0.0859
 7601TIP3    H146998   7.264   3.340  13.395  0.3740 -1.2380 -1.3785
 7601TIP3    H246999   7.292   3.481  13.348 -0.7260 -0.7725 -0.6678
 7602TIP3   OH247000   5.588   3.050  10.834 -0.6466  0.0336 -0.3867
 7602TIP3    H147001   5.553   3.127  10.879  0.5861  0.7026 -0.5290
 7602TIP3    H247002   5.546   2.975  10.877  0.1161  0.6622  1.5541
 7603TIP3   OH247003   4.972   3.835  12.520 -0.4313 -0.2321 -0.5268
 7603TIP3    H147004   4.968   3.742  12.500 -0.0384  0.2275 -3.0530
 7603TIP3    H247005   5.001   3.876  12.439  1.2312  1.9353  1.0312
 7604TIP3   OH247006   6.960   0.228  11.973  0.0309 -0.0451 -0.1255
 7604TIP3    H147007   6.991   0.293  12.036 -0.4299  1.6567 -1.5834
 7604TIP3    H247008   6.934   0.279  11.897 -0.5373 -1.9464 -1.2647
 7605TIP3   OH247009   5.415   0.569  10.273 -0.4802 -0.2723 -0.0475
 7605TIP3    H147010   5.404   0.590  10.180  0.6624 -0.9881 -0.3613
 7605TIP3    H247011   5.370   0.640  10.319 -0.1618  0.6550 -1.1293
 7606TIP3   OH247012   3.407   1.408  10.865 -0.2547  0.0508 -0.4137
 7606TIP3    H147013   3.461   1.412  10.786 -1.0266  1.8718 -0.9187
 7606TIP3    H247014   3.329   1.359  10.838 -1.0789  1.6911 -1.2331
 7607TIP3   OH247015   2.645   2.451  11.705  0.0784 -0.4225  0.3252
 7607TIP3    H147016   2.550   2.441  11.705 -0.1984  1.7717  0.6398
 7607TIP3    H247017   2.660   2.545  11.707  2.2852 -0.5623 -2.7240
 7608TIP3   OH247018   4.413   2.952  11.911 -0.3747 -0.5467  0.2145
 7608TIP3    H147019   4.418   2.905  11.829 -1.4968 -0.4652  0.0865
 7608TIP3    H247020   4.446   3.040  11.891  2.2585 -1.3633  0.5841
 7609TIP3   OH247021   0.461   6.389  12.105  0.6459  0.0886  0.4259
 7609TIP3    H147022   0.382   6.402  12.158  1.2311  1.1769  1.0749
 7609TIP3    H247023   0.460   6.296  12.083 -0.6740  0.0309  0.6443
 7610TIP3   OH247024   2.387   7.747  11.610 -0.3876  0.6155 -0.0024
 7610TIP3    H147025   2.444   7.693  11.666  0.6828  2.5510  0.8574
 7610TIP3    H247026   2.434   7.753  11.527 -1.0281 -0.6113 -0.4819
 7611TIP3   OH247027   7.707   1.240  11.017  0.6008  0.4742 -0.1105
 7611TIP3    H147028   7.751   1.168  10.971 -0.0020  0.7814 -1.2083
 7611TIP3    H247029   7.650   1.197  11.080  0.7056  0.0044 -0.3333
 7612TIP3   OH247030   2.549   3.218  12.211 -0.0073  0.0224 -0.5188
 7612TIP3    H147031   2.467   3.168  12.209 -0.0788  0.1060  0.0371
 7612TIP3    H247032   2.571   3.232  12.119 -0.3475 -0.4436 -0.6752
 7613TIP3   OH247033   0.410   1.929  10.233 -0.1236  0.1325 -0.1972
 7613TIP3    H147034   0.483   1.869  10.242 -1.0603 -0.9196  0.7104
 7613TIP3    H247035   0.439   2.009  10.277  0.6195 -0.1425 -0.1812
 7614TIP3   OH247036   4.409   1.516  13.496  0.2026 -0.0026  0.1755
 7614TIP3    H147037   4.448   1.442  13.451  2.5183  0.4423  1.2734
 7614TIP3    H247038   4.483   1.573  13.518 -1.2527  1.6531  1.1315
 7615TIP3   OH247039   6.740   4.259  10.651 -0.1681 -0.0570 -0.3817
 7615TIP3    H147040   6.816   4.287  10.702 -0.0512  0.9417 -1.0852
 7615TIP3    H247041   6.673   4.324  10.670 -0.5248 -0.3740 -0.5493
 7616TIP3   OH247042   3.146   0.448  11.748  0.0441 -0.5018 -1.3558
 7616TIP3    H147043   3.197   0.496  11.683  0.5102  1.1290  0.1409
 7616TIP3    H247044   3.074   0.507  11.771  0.4157 -0.6504  0.2669
 7617TIP3   OH247045   0.769   5.957  13.448  0.1243 -0.3708  0.2222
 7617TIP3    H147046   0.815   5.886  13.403 -0.8788 -0.3126 -0.9350
 7617TIP3    H247047   0.680   5.923  13.460 -0.2315  0.5100  0.0858
 7618TIP3   OH247048   7.645   6.177  11.084  0.1281 -0.6567 -0.2273
 7618TIP3    H147049   7.608   6.098  11.124 -1.3238 -0.9089 -1.9229
 7618TIP3    H247050   7.677   6.148  10.999  2.4349  0.0162  0.3457
 7619TIP3   OH247051   2.331   2.937  10.476 -0.1805 -0.2332  0.4846
 7619TIP3    H147052   2.312   3.004  10.541 -0.2830  0.4097 -0.1858
 7619TIP3    H247053   2.252   2.932  10.423  0.5489  0.6455 -0.7623
 7620TIP3   OH247054   1.086   1.681  12.652  0.2233 -0.3734 -0.5202
 7620TIP3    H147055   1.065   1.747  12.586  1.1530 -1.0607 -1.5127
 7620TIP3    H247056   1.148   1.725  12.710 -2.2004  0.9834  1.2594
 7621TIP3   OH247057   3.234   2.757  11.044 -0.0796 -0.3069  0.4910
 7621TIP3    H147058   3.302   2.774  10.979  0.2621 -0.0874  0.9003
 7621TIP3    H247059   3.237   2.833  11.102 -2.2248  0.8398 -0.7741
 7622TIP3   OH247060   5.294   2.310  12.250 -0.4586 -0.4816 -0.3237
 7622TIP3    H147061   5.276   2.330  12.158  1.6538 -2.0580 -1.1838
 7622TIP3    H247062   5.357   2.378  12.277 -2.0833  0.7786  0.4293
 7623TIP3   OH247063   1.819   2.600  11.220  0.2833  0.4590  0.2205
 7623TIP3    H147064   1.893   2.541  11.231  0.3206  0.3052 -0.7540
 7623TIP3    H247065   1.858   2.685  11.200  0.2112  0.5877  0.6185
 7624TIP3   OH247066   3.704   0.502  10.852  0.2785 -0.2908  0.3773
 7624TIP3    H147067   3.745   0.431  10.803 -0.1323 -0.6128  0.4960
 7624TIP3    H247068   3.773   0.533  10.911  1.3695  1.3001 -1.6110
 7625TIP3   OH247069   0.814   1.347  12.058 -0.1742 -0.2715  0.1821
 7625TIP3    H147070   0.833   1.265  12.013 -0.1840 -0.7958  1.1171
 7625TIP3    H247071   0.825   1.327  12.151 -1.9996  0.2728  0.5558
 7626TIP3   OH247072   6.192   3.657  12.241  0.3758  0.4710  0.3553
 7626TIP3    H147073   6.224   3.586  12.184  1.0081 -0.1273  1.4314
 7626TIP3    H247074   6.151   3.719  12.180  2.6024  0.7593 -1.0079
 7627TIP3   OH247075   3.334   2.747  11.654  0.0483 -0.0526 -0.4427
 7627TIP3    H147076   3.401   2.732  11.720  0.0529 -2.3339 -0.8754
 7627TIP3    H247077   3.377   2.799  11.586  0.6957  0.4264  0.3281
 7628TIP3   OH247078   2.333   1.752  13.021  0.6415 -0.5697  0.5192
 7628TIP3    H147079   2.298   1.669  13.055 -0.5325  0.4562  1.9532
 7628TIP3    H247080   2.416   1.762  13.067 -0.4466  0.2860  2.4506
 7629TIP3   OH247081   0.978   6.127  12.130 -0.0756 -0.5520  0.1487
 7629TIP3    H147082   0.901   6.069  12.125 -1.4548  1.1471  0.6709
 7629TIP3    H247083   1.008   6.119  12.221 -0.7964  0.1541  0.4646
 7630TIP3   OH247084   0.630   2.101  10.371 -0.0782  0.7133  0.3428
 7630TIP3    H147085   0.655   2.183  10.330  1.5839 -0.6128 -1.5017
 7630TIP3    H247086   0.702   2.041  10.352 -1.7754 -1.5500  0.4943
 7631TIP3   OH247087   2.261   3.210  12.095  0.0279 -0.0272  0.1985
 7631TIP3    H147088   2.214   3.239  12.173 -0.8653 -1.1427  0.1032
 7631TIP3    H247089   2.277   3.290  12.045 -0.4303  0.5530  0.9626
 7632TIP3   OH247090   5.409   4.892  10.956  0.0531 -0.0749  0.0965
 7632TIP3    H147091   5.315   4.910  10.964  0.1106  0.0004  0.6477
 7632TIP3    H247092   5.419   4.805  10.995  0.4028  0.4518  1.2295
 7633TIP3   OH247093   4.100  -0.044  11.870  0.6783  0.0895  0.2565
 7633TIP3    H147094   4.034  -0.039  11.940 -0.0184  0.3165 -0.3983
 7633TIP3    H247095   4.088  -0.131  11.833 -0.4489  0.7351 -0.9793
 7634TIP3   OH247096   0.784   1.334  12.947 -0.0341  0.3936 -0.0831
 7634TIP3    H147097   0.767   1.417  12.991  0.2541  0.7675 -0.6674
 7634TIP3    H247098   0.760   1.267  13.012  0.3629  0.9298  0.6311
 7635TIP3   OH247099   4.405   7.278  11.896 -0.0554  0.0539 -0.1549
 7635TIP3    H147100   4.347   7.309  11.966 -0.5122  0.5038 -0.7234
 7635TIP3    H247101   4.493   7.283  11.934 -0.3607 -0.3698  0.6216
 7636TIP3   OH247102   3.062   2.351  12.930  0.4518 -0.2703  0.1896
 7636TIP3    H147103   3.134   2.355  12.867 -0.6504 -1.6702 -1.2355
 7636TIP3    H247104   3.093   2.402  13.005  1.8058  1.5101 -1.4730
 7637TIP3   OH247105   5.434   6.672  11.933 -0.0100 -0.5423 -0.3851
 7637TIP3    H147106   5.390   6.588  11.919 -0.6140 -0.4339  0.7397
 7637TIP3    H247107   5.409   6.725  11.858 -0.4914 -1.0211 -0.5712
 7638TIP3   OH247108   4.012   7.111  11.024 -0.6325  0.1843  0.1216
 7638TIP3    H147109   4.094   7.066  11.006 -1.3867 -0.8687 -0.7984
 7638TIP3    H247110   4.038   7.199  11.053  0.8069 -0.2334  0.1524
 7639TIP3   OH247111   3.304   6.661  11.051 -0.4952 -0.3416 -0.1233
 7639TIP3    H147112   3.338   6.639  10.964  0.0220 -1.5880  0.3710
 7639TIP3    H247113   3.331   6.752  11.065  3.3732 -1.3888  0.4875
 7640TIP3   OH247114   2.226   5.679  13.048  0.1757 -0.2558  0.6669
 7640TIP3    H147115   2.147   5.727  13.074 -1.2152 -1.3816 -1.1927
 7640TIP3    H247116   2.246   5.624  13.124  0.0528  1.0913  1.7113
 7641TIP3   OH247117   5.078   2.169  13.030 -0.1808  0.2172  0.4682
 7641TIP3    H147118   5.013   2.231  13.065 -0.2976  0.3563  0.0168
 7641TIP3    H247119   5.105   2.208  12.947 -0.0291 -0.1889  0.3254
 7642TIP3   OH247120   3.133   7.220  11.069 -0.4892  0.4637  0.3687
 7642TIP3    H147121   3.128   7.246  11.161 -0.7672 -0.6072  0.6740
 7642TIP3    H247122   3.062   7.269  11.026 -0.2690  1.0742  0.6904
 7643TIP3   OH247123   4.398   4.740  11.095 -0.1796 -0.2851 -0.3779
 7643TIP3    H147124   4.469   4.683  11.123  0.9666  1.6042  0.8213
 7643TIP3    H247125   4.392   4.806  11.164 -1.7023  0.8054 -1.4844
 7644TIP3   OH247126   2.127   7.512  11.783  0.2602  0.1740 -0.1974
 7644TIP3    H147127   2.130   7.607  11.777 -0.8308  0.2505  0.2165
 7644TIP3    H247128   2.133   7.494  11.877  1.3641 -0.2256 -0.3207
 7645TIP3   OH247129   0.552   2.798  13.263  0.5971  0.3063 -0.6425
 7645TIP3    H147130   0.593   2.782  13.178  0.8096  0.3523 -0.5500
 7645TIP3    H247131   0.625   2.820  13.321  0.5916 -0.8065 -0.1852
 7646TIP3   OH247132   3.769   3.791  12.471  0.1942  0.0969 -0.2299
 7646TIP3    H147133   3.840   3.753  12.522  0.0823 -0.6461 -0.6118
 7646TIP3    H247134   3.776   3.750  12.385 -0.8897 -0.2266 -0.1800
 7647TIP3   OH247135   1.799   3.135  11.617 -0.8516 -0.3001 -0.1766
 7647TIP3    H147136   1.866   3.196  11.651 -0.6217  0.4645 -1.8763
 7647TIP3    H247137   1.736   3.127  11.688  0.7510 -0.6072  1.2843
 7648TIP3   OH247138   6.371   0.749  11.010 -0.0529  0.7447  0.1717
 7648TIP3    H147139   6.339   0.701  11.086 -0.5343  0.7339 -0.0327
 7648TIP3    H247140   6.464   0.728  11.005 -0.0935  0.4757  0.5560
 7649TIP3   OH247141   6.946   7.516  10.262 -0.1043  0.5153  0.1785
 7649TIP3    H147142   6.968   7.442  10.206  1.3256  0.7688  0.3694
 7649TIP3    H247143   6.981   7.494  10.348  0.5695  1.5002  0.1783
 7650TIP3   OH247144   6.085   4.847  10.828  0.3553  0.0353  0.9228
 7650TIP3    H147145   6.105   4.879  10.740 -1.7616 -1.2935 -0.1217
 7650TIP3    H247146   6.104   4.922  10.885 -1.8311  2.3477 -1.0887
 7651TIP3   OH247147   2.453   5.251  11.065 -0.1301 -0.1843 -0.7489
 7651TIP3    H147148   2.407   5.202  10.997 -0.6618 -0.8123  0.0311
 7651TIP3    H247149   2.395   5.244  11.141  1.6544 -1.7988  0.5600
 7652TIP3   OH247150   4.896   1.606  11.197 -0.2132 -0.2211  0.2376
 7652TIP3    H147151   4.901   1.625  11.103 -2.0426 -1.2265 -0.0974
 7652TIP3    H247152   4.948   1.526  11.208 -2.3640 -1.7864 -0.4758
 7653TIP3   OH247153   3.240   7.537  12.494  0.4243 -0.6297  0.4511
 7653TIP3    H147154   3.187   7.607  12.456  3.4904  1.0081 -1.1965
 7653TIP3    H247155   3.260   7.480  12.420  0.6185 -1.4868  1.1460
 7654TIP3   OH247156   1.087   0.454  12.679 -0.7553 -0.1195  0.0948
 7654TIP3    H147157   1.130   0.410  12.606  0.4951  1.0419  0.0878
 7654TIP3    H247158   1.025   0.515  12.638 -1.9464 -1.2864  0.0918
 7655TIP3   OH247159   0.513   0.125  13.295 -0.2966  0.1364  0.3698
 7655TIP3    H147160   0.517   0.206  13.245  0.1097  0.7572  1.3566
 7655TIP3    H247161   0.534   0.152  13.385 -1.2644 -0.8833  0.9302
 7656TIP3   OH247162   0.524   7.223  10.426  0.1085  0.0355  0.1305
 7656TIP3    H147163   0.443   7.245  10.380 -1.0487 -1.5344  1.2587
 7656TIP3    H247164   0.539   7.297  10.485 -1.5838 -0.3941  1.2044
 7657TIP3   OH247165   4.135   0.709  12.374  0.2715  0.2305 -0.0774
 7657TIP3    H147166   4.107   0.634  12.427 -1.9283  1.5051  0.7132
 7657TIP3    H247167   4.230   0.701  12.368  0.2236 -1.8734  1.0884
 7658TIP3   OH247168   6.504   0.174  11.178  0.0182  0.3341  0.0117
 7658TIP3    H147169   6.519   0.210  11.265  0.5541  0.5561 -0.1673
 7658TIP3    H247170   6.513   0.249  11.119  0.8989 -0.0281 -0.3433
 7659TIP3   OH247171   6.651   5.787  11.698 -0.4166  0.1606  0.5534
 7659TIP3    H147172   6.650   5.861  11.638 -0.0086  0.9947  1.5575
 7659TIP3    H247173   6.608   5.819  11.777 -0.5414 -0.7781  0.8863
 7660TIP3   OH247174   0.291   5.507  11.446  0.8207 -0.2088  0.0909
 7660TIP3    H147175   0.334   5.585  11.411  0.9337 -0.1190  0.4271
 7660TIP3    H247176   0.336   5.489  11.528 -0.0751  0.1725  0.6936
 7661TIP3   OH247177   0.772   5.830  12.355 -0.5483 -0.6330 -0.1374
 7661TIP3    H147178   0.762   5.828  12.450  1.2806 -1.8411  0.1002
 7661TIP3    H247179   0.693   5.872  12.322 -0.3265  1.6610  2.0371
 7662TIP3   OH247180   6.405   1.533  12.165  0.3941 -0.1679  0.6337
 7662TIP3    H147181   6.427   1.590  12.238 -0.7344  0.8654  0.2005
 7662TIP3    H247182   6.379   1.593  12.095  0.6844 -1.1621 -0.3533
 7663TIP3   OH247183   2.663   7.144  11.480  0.3217  0.2399 -0.4475
 7663TIP3    H147184   2.592   7.147  11.416  0.7769  2.4669 -0.9634
 7663TIP3    H247185   2.648   7.064  11.530 -2.8487  0.8506 -0.2018
 7664TIP3   OH247186   1.766   4.089  11.497 -0.0155  0.3351 -0.1545
 7664TIP3    H147187   1.853   4.073  11.460  0.6225  0.6263  1.1463
 7664TIP3    H247188   1.709   4.025  11.454  1.1619 -0.9386  0.1029
 7665TIP3   OH247189   3.757   4.498  10.663 -0.1889  0.1090  0.4347
 7665TIP3    H147190   3.818   4.427  10.679 -0.4192  0.0857  1.2593
 7665TIP3    H247191   3.746   4.541  10.748  0.0069  1.1834 -0.0607
 7666TIP3   OH247192   2.744   0.834  11.974 -0.1507  0.0263  0.1518
 7666TIP3    H147193   2.676   0.771  11.950  0.3418  0.0168 -1.3725
 7666TIP3    H247194   2.696   0.911  12.003 -0.8210 -0.0995 -0.5723
 7667TIP3   OH247195   6.151   5.912  12.667  0.3147  0.2103  0.2510
 7667TIP3    H147196   6.088   5.840  12.654  0.1783  0.4126 -0.2032
 7667TIP3    H247197   6.193   5.891  12.750 -0.0795 -0.1353  0.3693
 7668TIP3   OH247198   6.266   2.886  11.940  0.5368 -0.1846  0.5666
 7668TIP3    H147199   6.186   2.873  11.992  0.4927 -2.2937  0.0701
 7668TIP3    H247200   6.233   2.912  11.853  0.2337 -2.2539 -0.0067
 7669TIP3   OH247201   6.783   3.572  11.285  0.3808  0.4794 -0.4733
 7669TIP3    H147202   6.878   3.566  11.296  0.4317 -0.4098 -1.2617
 7669TIP3    H247203   6.749   3.574  11.374  1.1470  1.1226 -0.1780
 7670TIP3   OH247204   4.067   6.075  12.463 -0.6115  0.1651  0.3016
 7670TIP3    H147205   4.069   6.170  12.475  0.6556  0.4521 -1.7012
 7670TIP3    H247206   3.992   6.060  12.405  0.8187  0.3470 -1.7168
 7671TIP3   OH247207   5.531   3.089  11.869  0.0258 -0.0186  0.0697
 7671TIP3    H147208   5.511   3.010  11.819  0.6831 -1.0221  1.3319
 7671TIP3    H247209   5.495   3.071  11.956  0.4364  0.9626  0.4508
 7672TIP3   OH247210   0.137   3.595  11.519  0.5279 -0.7254  0.2024
 7672TIP3    H147211   0.209   3.591  11.456 -0.8936  0.4349 -1.5944
 7672TIP3    H247212   0.134   3.506  11.556  2.2646 -1.0624 -0.3346
 7673TIP3   OH247213   5.388   3.800  11.772 -0.2251  0.5093  0.3557
 7673TIP3    H147214   5.474   3.838  11.788 -0.0741 -0.1119  1.0536
 7673TIP3    H247215   5.403   3.735  11.703 -0.2360  0.7719  0.1043
 7674TIP3   OH247216   7.216   3.026  11.358  0.5105 -0.6257 -0.2457
 7674TIP3    H147217   7.138   3.067  11.396  0.2133  0.1826 -1.6477
 7674TIP3    H247218   7.289   3.073  11.397  0.3346 -1.4783  1.1838
 7675TIP3   OH247219   4.801   2.975  11.005 -0.3649  0.5411 -0.1563
 7675TIP3    H147220   4.775   2.982  10.913  0.5168  0.6752 -0.4052
 7675TIP3    H247221   4.896   2.959  11.002 -0.4643 -0.3257  0.7042
 7676TIP3   OH247222   5.855   6.728  12.533  0.0282  0.6084 -0.8473
 7676TIP3    H147223   5.867   6.633  12.524 -1.9685  0.1886  0.2950
 7676TIP3    H247224   5.815   6.755  12.450 -1.4345  0.0287 -0.3559
 7677TIP3   OH247225   5.970   5.900  11.943 -0.7603 -0.1913  0.7548
 7677TIP3    H147226   5.961   5.865  12.032  0.7144 -0.5678  0.7723
 7677TIP3    H247227   5.889   5.948  11.929 -1.4329 -0.9144  1.9489
 7678TIP3   OH247228   7.053   1.205  10.647 -0.0207 -0.1673  0.4760
 7678TIP3    H147229   7.148   1.195  10.638  0.1758  0.5787  1.4975
 7678TIP3    H247230   7.016   1.129  10.602  1.0033  0.2420 -1.1740
 7679TIP3   OH247231   2.720   0.714  10.350  0.3663  0.4451 -0.6023
 7679TIP3    H147232   2.788   0.723  10.284  1.4808 -1.3004  0.2301
 7679TIP3    H247233   2.697   0.804  10.374  1.7517  1.0710 -1.5185
 7680TIP3   OH247234   1.023   1.700  11.128  0.4248 -0.0898 -0.2772
 7680TIP3    H147235   0.997   1.645  11.202  0.3944 -0.8202 -0.8245
 7680TIP3    H247236   1.033   1.787  11.166  1.7079 -0.6947  0.8601
 7681TIP3   OH247237   1.464   0.737  12.324  0.1968 -0.4656  0.1110
 7681TIP3    H147238   1.550   0.776  12.341 -0.1787  0.8843 -0.9119
 7681TIP3    H247239   1.404   0.786  12.380  0.0455 -1.3492  0.7581
 7682TIP3   OH247240   4.528   1.850  10.836 -0.2545 -0.2256 -0.6957
 7682TIP3    H147241   4.434   1.868  10.830 -0.2785  0.8392  1.6749
 7682TIP3    H247242   4.569   1.937  10.835  0.5544 -0.5784  0.0981
 7683TIP3   OH247243   2.030   5.557  12.092  0.1175  0.0044  0.2886
 7683TIP3    H147244   1.991   5.479  12.131 -2.1867  1.3710  0.8912
 7683TIP3    H247245   1.967   5.584  12.025  1.6807  0.4502 -1.0740
 7684TIP3   OH247246   6.000   0.238  11.059 -0.2738 -0.4952  0.1653
 7684TIP3    H147247   6.063   0.266  10.993 -0.4884  0.0438  0.1825
 7684TIP3    H247248   6.050   0.234  11.140 -0.0123 -1.1427 -0.0240
 7685TIP3   OH247249   5.126   7.012  13.257  0.0049 -0.8720 -0.4362
 7685TIP3    H147250   5.150   6.928  13.297 -0.8863 -1.2154 -0.6124
 7685TIP3    H247251   5.197   7.029  13.195  1.2177 -0.5171  0.9853
 7686TIP3   OH247252   2.956   3.012  11.138  0.2110 -0.4731 -0.1862
 7686TIP3    H147253   2.873   2.968  11.159  0.4344 -0.3394  1.0935
 7686TIP3    H247254   2.930   3.095  11.099 -0.2511 -0.6790 -0.3301
 7687TIP3   OH247255   1.434   0.727  11.747 -0.0545 -0.1044  0.2455
 7687TIP3    H147256   1.423   0.776  11.665  1.0549 -0.2936 -0.0329
 7687TIP3    H247257   1.452   0.794  11.813 -0.0107 -0.0240  0.1523
 7688TIP3   OH247258   4.207   7.432  12.124  0.0415 -0.0204  0.0290
 7688TIP3    H147259   4.202   7.525  12.106 -1.4225  0.0528  0.6590
 7688TIP3    H247260   4.214   7.426  12.220  1.2354 -0.5381 -0.0781
 7689TIP3   OH247261   7.053   0.702  10.478  0.1139  0.2260 -0.1016
 7689TIP3    H147262   7.145   0.718  10.497  0.0837  3.0051 -1.6561
 7689TIP3    H247263   7.053   0.628  10.416  1.4811  1.1688 -1.2891
 7690TIP3   OH247264   5.318   5.202  13.107 -0.6186 -0.1606  0.2290
 7690TIP3    H147265   5.395   5.164  13.066 -1.0114  0.0276 -0.6945
 7690TIP3    H247266   5.342   5.294  13.120 -0.6748 -0.1073 -0.0359
 7691TIP3   OH247267   0.612   1.588  11.375 -0.0420 -0.3822 -0.2216
 7691TIP3    H147268   0.530   1.543  11.357  0.0011 -1.1096  1.2321
 7691TIP3    H247269   0.636   1.629  11.292  0.1158 -3.3702 -1.7975
 7692TIP3   OH247270   5.388   6.473  11.499 -0.2639  0.2202  0.0775
 7692TIP3    H147271   5.378   6.512  11.586 -0.1910 -1.0156  0.6729
 7692TIP3    H247272   5.302   6.479  11.459 -0.3232  0.7088  0.2763
 7693TIP3   OH247273   3.837   4.814  19.012 -0.1271  0.0769 -0.1054
 7693TIP3    H147274   3.897   4.771  18.950 -1.7840 -0.1925 -1.5924
 7693TIP3    H247275   3.893   4.839  19.085  1.7297 -0.5291 -1.2410
 7694TIP3   OH247276   2.919   1.499  11.895 -0.6368  0.3484 -0.2212
 7694TIP3    H147277   2.956   1.445  11.825 -2.6830 -3.9732  1.6306
 7694TIP3    H247278   2.845   1.543  11.855  1.1218  2.0360 -1.8155
 7695TIP3   OH247279   6.535   0.329  11.426 -1.0321 -0.1425  0.3935
 7695TIP3    H147280   6.471   0.339  11.496 -2.0778  1.8204 -0.7463
 7695TIP3    H247281   6.607   0.280  11.466 -1.3961  1.2237  2.9445
 7696TIP3   OH247282   0.844   2.439  12.015 -0.2138 -0.1050  0.3069
 7696TIP3    H147283   0.935   2.467  12.031 -0.5762  1.1636  0.3060
 7696TIP3    H247284   0.852   2.350  11.981  0.9400 -0.5899  1.7059
 7697TIP3   OH247285   6.690   2.645  12.953 -0.3579 -0.3071  0.0778
 7697TIP3    H147286   6.718   2.563  12.913 -0.6506 -0.7730  0.8023
 7697TIP3    H247287   6.765   2.703  12.943  0.2443 -0.9990  0.4800
 7698TIP3   OH247288   1.201   5.879  12.950 -0.2041 -0.0621 -0.3025
 7698TIP3    H147289   1.157   5.955  12.912  0.9613  0.5486 -0.4739
 7698TIP3    H247290   1.130   5.826  12.987 -1.0483  1.0369 -0.3001
 7699TIP3   OH247291   2.500   4.061  11.595  0.1055  0.6378  0.3798
 7699TIP3    H147292   2.424   4.100  11.551  0.2804  2.1419  1.3521
 7699TIP3    H247293   2.463   3.993  11.652 -0.1804 -0.8781 -1.5125
 7700TIP3   OH247294   5.590   7.150  11.158  0.2156  0.0696  0.0862
 7700TIP3    H147295   5.636   7.203  11.224  1.6721 -1.5238  0.4363
 7700TIP3    H247296   5.515   7.114  11.205 -0.0699  0.7969  0.2011
 7701TIP3   OH247297   6.103   1.015  12.289 -0.6938  0.0727  0.2302
 7701TIP3    H147298   6.102   1.082  12.221  1.7902  0.1121  0.1458
 7701TIP3    H247299   6.033   0.955  12.265 -0.6600  0.7392 -1.6736
 7702TIP3   OH247300   3.980   4.220  11.224 -0.0895  0.0488 -0.3643
 7702TIP3    H147301   3.920   4.171  11.167  0.4409 -1.3005  0.2060
 7702TIP3    H247302   4.030   4.275  11.164 -1.5015  0.8099 -0.9073
 7703TIP3   OH247303   6.617   7.505  10.734 -0.3433 -0.1873 -0.0390
 7703TIP3    H147304   6.611   7.515  10.639  1.1294 -0.4864 -0.1900
 7703TIP3    H247305   6.685   7.566  10.761 -0.5112 -0.3450  0.7866
 7704TIP3   OH247306   6.818   0.206  10.776  0.3076 -0.3351  0.2546
 7704TIP3    H147307   6.909   0.231  10.797  0.5974  0.4538 -1.7204
 7704TIP3    H247308   6.771   0.289  10.770 -0.3258 -0.6864  0.2621
 7705TIP3   OH247309   0.271   6.408  10.984  0.1001 -0.0830 -0.4649
 7705TIP3    H147310   0.306   6.381  10.900 -0.9334 -1.3222 -0.5223
 7705TIP3    H247311   0.313   6.350  11.048 -1.3296 -1.1626 -0.4693
 7706TIP3   OH247312   4.150   3.893  11.137 -0.2993  0.4704  0.0243
 7706TIP3    H147313   4.064   3.888  11.095 -1.2216 -0.3559  1.8763
 7706TIP3    H247314   4.195   3.964  11.092 -1.0626 -0.5425 -2.5234
 7707TIP3   OH247315   0.482   5.783  12.635  0.5231  0.2075 -0.2254
 7707TIP3    H147316   0.493   5.758  12.726 -2.6850 -1.4238 -0.1359
 7707TIP3    H247317   0.451   5.873  12.638 -3.2133 -0.9133  0.7631
 7708TIP3   OH247318   6.679   5.720  10.725 -0.0216 -0.1937 -0.2042
 7708TIP3    H147319   6.629   5.664  10.665 -0.3736  0.2119 -0.2962
 7708TIP3    H247320   6.617   5.790  10.750  0.4725  0.2667 -0.2522
 7709TIP3   OH247321   3.188   0.735  11.617  0.7703  0.1892  0.0626
 7709TIP3    H147322   3.101   0.701  11.638  0.8253  1.3984  2.6561
 7709TIP3    H247323   3.180   0.768  11.528 -1.2833 -0.2121  0.0451
 7710TIP3   OH247324   2.811   1.271  10.810  0.7505  1.2584  0.1415
 7710TIP3    H147325   2.819   1.176  10.815  0.8150  1.2628  0.1196
 7710TIP3    H247326   2.777   1.297  10.895 -1.9419  0.9289 -0.7095
 7711TIP3   OH247327   1.793   5.948  11.126  0.1829  0.3757 -0.4463
 7711TIP3    H147328   1.763   5.934  11.215  1.5286  2.9530  0.5115
 7711TIP3    H247329   1.850   5.873  11.108  0.4637  0.1691  1.1449
 7712TIP3   OH247330   6.683   5.486  13.000 -0.2339 -0.5836 -0.0797
 7712TIP3    H147331   6.716   5.396  12.999 -1.6200 -1.1256  0.4702
 7712TIP3    H247332   6.631   5.492  13.080 -0.0745  0.7540 -0.0555
 7713TIP3   OH247333   3.549   5.041  11.529 -0.1095 -0.2034  0.0804
 7713TIP3    H147334   3.495   5.101  11.581  0.8669 -0.1547  1.0654
 7713TIP3    H247335   3.547   5.078  11.441 -1.9821 -0.4110 -0.0168
 7714TIP3   OH247336   4.319   5.789  11.490  0.5142  0.6907  0.0799
 7714TIP3    H147337   4.396   5.804  11.545  2.3582 -0.5117 -1.9759
 7714TIP3    H247338   4.290   5.700  11.512  0.0463  0.9356  0.4624
 7715TIP3   OH247339   3.579   7.197  12.915  0.7753  0.4829  0.3339
 7715TIP3    H147340   3.658   7.197  12.969  0.7144 -0.3811  0.4432
 7715TIP3    H247341   3.546   7.107  12.922  0.7803  0.3480 -1.1799
 7716TIP3   OH247342   0.948   0.317  11.352 -0.2492 -0.0546  0.0540
 7716TIP3    H147343   0.877   0.277  11.402 -0.2533  0.1270  0.1962
 7716TIP3    H247344   0.906   0.358  11.277 -0.5264  1.5538  1.0375
 7717TIP3   OH247345   3.487   2.220  11.253  0.0662 -0.2319 -0.0762
 7717TIP3    H147346   3.475   2.315  11.249 -2.2102 -0.4203  0.8852
 7717TIP3    H247347   3.415   2.189  11.307  1.2878 -2.4462  0.3778
 7718TIP3   OH247348   3.969   0.919  12.251 -0.6877 -0.2565 -0.3505
 7718TIP3    H147349   4.046   0.976  12.256  0.0070 -0.8724 -2.6754
 7718TIP3    H247350   3.996   0.838  12.295  0.2889 -0.7047 -1.6947
 7719TIP3   OH247351   5.191   2.657  12.262  0.4027 -0.0595  0.1963
 7719TIP3    H147352   5.192   2.589  12.329  0.6637 -0.9657 -0.7084
 7719TIP3    H247353   5.141   2.620  12.190  0.7291  0.6172 -0.3967
 7720TIP3   OH247354   4.309   6.269  10.630  0.7600 -0.1969 -0.4381
 7720TIP3    H147355   4.300   6.212  10.554 -0.9614  0.8899 -1.1038
 7720TIP3    H247356   4.295   6.211  10.705 -1.1149 -0.6739 -1.1087
 7721TIP3   OH247357   4.478   3.139  10.521 -0.1115 -0.2144  0.2976
 7721TIP3    H147358   4.504   3.205  10.457  0.2934 -1.0044 -0.3700
 7721TIP3    H247359   4.559   3.094  10.544 -0.4349 -0.7339  0.4458
 7722TIP3   OH247360   7.500   6.557  12.092  0.4534  0.3252  0.2484
 7722TIP3    H147361   7.553   6.560  12.171  0.7355  1.8407  0.0203
 7722TIP3    H247362   7.555   6.510  12.028  0.7654  0.2711  0.5537
 7723TIP3   OH247363   3.440   2.855  11.382  0.0537 -0.8353  0.3916
 7723TIP3    H147364   3.361   2.897  11.348  0.6269  2.3096  2.4449
 7723TIP3    H247365   3.498   2.849  11.307 -0.7187  0.5940 -0.3739
 7724TIP3   OH247366   6.348   5.271  12.545 -0.0749  0.0471  0.6730
 7724TIP3    H147367   6.332   5.351  12.595  1.0410 -0.3190  1.6788
 7724TIP3    H247368   6.322   5.200  12.605 -0.1508 -0.3690  0.1570
 7725TIP3   OH247369   5.137   4.396  11.182 -0.0286  0.5714 -0.4404
 7725TIP3    H147370   5.200   4.402  11.254 -0.3454  2.6056 -0.2506
 7725TIP3    H247371   5.190   4.403  11.103  0.0469  2.5704 -0.2793
 7726TIP3   OH247372   7.154   6.934  12.148 -0.7144 -0.6929 -0.2590
 7726TIP3    H147373   7.179   7.026  12.154 -0.0330 -0.6664 -2.6559
 7726TIP3    H247374   7.070   6.934  12.102 -0.8828 -1.2597  0.0319
 7727TIP3   OH247375   3.738   6.638  11.648 -0.1651 -0.2090 -0.6422
 7727TIP3    H147376   3.708   6.548  11.636  0.3786 -0.5169  0.2949
 7727TIP3    H247377   3.797   6.654  11.574 -0.2797 -0.6103 -0.8190
 7728TIP3   OH247378   6.542   3.529  11.868  0.4342  0.1526  0.6037
 7728TIP3    H147379   6.521   3.556  11.779 -1.0008 -0.1616  0.8299
 7728TIP3    H247380   6.553   3.434  11.862  0.9831  0.2115  0.6466
 7729TIP3   OH247381   6.410   1.021  12.653 -0.4753  0.5659  0.0426
 7729TIP3    H147382   6.335   1.010  12.594 -0.4303  0.1566  0.0649
 7729TIP3    H247383   6.373   1.010  12.740 -0.2622 -0.3024  0.0241
 7730TIP3   OH247384   0.601   2.098  11.726  0.0350  0.1479 -0.8102
 7730TIP3    H147385   0.581   2.191  11.724 -0.9266 -0.0111  0.1194
 7730TIP3    H247386   0.515   2.056  11.731  0.4847 -0.7554 -0.5168
 7731TIP3   OH247387   5.383   7.231  11.431  0.3796 -0.4066 -0.8122
 7731TIP3    H147388   5.393   7.278  11.348  0.5130 -0.5074 -0.8527
 7731TIP3    H247389   5.406   7.296  11.497 -1.6422  0.3072 -0.7193
 7732TIP3   OH247390   5.918   3.710  11.140 -0.0327 -0.1172 -0.3490
 7732TIP3    H147391   5.861   3.707  11.218  0.8467 -1.9898  0.2912
 7732TIP3    H247392   5.905   3.624  11.099  1.3077 -0.0478 -0.9473
 7733TIP3   OH247393   4.622   7.121  12.311  0.6603  0.5158  0.0592
 7733TIP3    H147394   4.655   7.112  12.400  1.0023  0.9988 -0.0117
 7733TIP3    H247395   4.667   7.198  12.277  0.4673  0.3853 -0.5018
 7734TIP3   OH247396   2.268   0.345  11.489 -0.2607  0.7574 -0.3934
 7734TIP3    H147397   2.210   0.355  11.564 -0.1585  0.6025 -0.2895
 7734TIP3    H247398   2.214   0.306  11.421 -0.3506  0.8856 -0.3944
 7735TIP3   OH247399   6.197   4.746  11.475 -0.2011 -0.0391  0.2242
 7735TIP3    H147400   6.219   4.815  11.412  1.2764 -1.0133 -0.3853
 7735TIP3    H247401   6.172   4.793  11.554  3.3213  1.3029  0.7211
 7736TIP3   OH247402   5.731   4.481  11.680 -0.8990 -0.1041 -0.1897
 7736TIP3    H147403   5.772   4.437  11.605  1.8912  0.9337  0.5679
 7736TIP3    H247404   5.700   4.564  11.644  0.3126  0.3358 -0.2878
 7737TIP3   OH247405   1.672   5.790  12.683  0.0406  0.0954 -0.0254
 7737TIP3    H147406   1.749   5.790  12.625  2.0124  3.0333  2.3307
 7737TIP3    H247407   1.655   5.697  12.699  1.7605 -0.7103 -2.2775
 7738TIP3   OH247408   5.806   4.799  10.876  0.1068 -0.4764  0.1626
 7738TIP3    H147409   5.753   4.871  10.841  0.5984 -0.2715 -0.1664
 7738TIP3    H247410   5.896   4.824  10.858  0.2694 -1.3615 -0.3251
 7739TIP3   OH247411   5.354   5.748  11.953 -0.3638  0.2088 -0.4597
 7739TIP3    H147412   5.285   5.785  12.008  0.5931  1.3240  0.0342
 7739TIP3    H247413   5.316   5.667  11.919 -1.0990 -0.3710  1.6044
 7740TIP3   OH247414   5.043   7.672  12.902 -0.1506 -0.0492  0.0729
 7740TIP3    H147415   5.034   7.590  12.950 -1.8990 -0.4921 -0.9265
 7740TIP3    H247416   5.009   7.738  12.961  3.3379  0.4475  1.8292
 7741TIP3   OH247417   2.830   4.108  12.738 -0.4807 -0.2156 -0.4119
 7741TIP3    H147418   2.890   4.153  12.678 -0.2119  0.2479  0.1866
 7741TIP3    H247419   2.777   4.178  12.775  0.1660 -0.3283  0.7812
 7742TIP3   OH247420   4.179   5.850  13.029  0.6348  0.0295 -0.1011
 7742TIP3    H147421   4.125   5.859  13.107  2.0550  0.1563  0.9107
 7742TIP3    H247422   4.209   5.759  13.030 -0.5281 -0.3975 -1.3398
 7743TIP3   OH247423   1.194   7.032  11.322  0.2846  0.4942 -0.3019
 7743TIP3    H147424   1.194   6.937  11.305  0.6917  0.5259 -0.4886
 7743TIP3    H247425   1.101   7.056  11.320  0.2059  0.1789 -0.7041
 7744TIP3   OH247426   4.903   5.300  11.773  0.0724  0.0835 -0.7252
 7744TIP3    H147427   4.924   5.376  11.719 -0.1233  0.0135 -0.9008
 7744TIP3    H247428   4.969   5.235  11.750  1.0339  0.6431  0.3702
 7745TIP3   OH247429   1.699   1.672  10.646 -0.0386  0.2781 -0.4032
 7745TIP3    H147430   1.736   1.678  10.558  2.4879  0.8963  0.6171
 7745TIP3    H247431   1.624   1.731  10.645 -0.3605 -0.0862 -2.2363
 7746TIP3   OH247432   2.605   5.277  12.132 -0.2499  0.1848  0.5792
 7746TIP3    H147433   2.652   5.213  12.186 -0.4249  0.7966  1.4784
 7746TIP3    H247434   2.608   5.358  12.183 -0.1536  0.8649 -0.4762
 7747TIP3   OH247435   1.056   0.843  11.282 -0.1909 -0.3324  0.7231
 7747TIP3    H147436   1.122   0.885  11.227  0.7551 -1.2437  1.1169
 7747TIP3    H247437   1.095   0.842  11.370 -0.8297 -0.6622  1.0114
 7748TIP3   OH247438   0.428   7.322  10.867  0.1716 -0.2309  0.2754
 7748TIP3    H147439   0.437   7.364  10.953  0.2827 -0.5467  0.4186
 7748TIP3    H247440   0.469   7.236  10.878  0.7090 -0.0506 -0.2562
 7749TIP3   OH247441   6.269   5.073  12.702  0.0559  0.0623 -0.3807
 7749TIP3    H147442   6.175   5.089  12.690 -0.0018 -0.5016 -0.7413
 7749TIP3    H247443   6.273   5.005  12.769  0.1247 -0.9837 -1.4006
 7750TIP3   OH247444   5.688   7.592  11.569 -0.4045  0.4422 -0.1774
 7750TIP3    H147445   5.592   7.587  11.571 -0.6716  0.1785 -4.1313
 7750TIP3    H247446   5.717   7.504  11.591 -0.7322  1.1713  3.9687
 7751TIP3   OH247447   0.658   5.551  10.934 -0.0521  0.5287 -0.0775
 7751TIP3    H147448   0.631   5.630  10.981  0.4817 -0.4801  2.0636
 7751TIP3    H247449   0.730   5.516  10.986  2.1389  0.4781 -2.9015
 7752TIP3   OH247450   4.059   4.764  11.376  0.1127  0.1912 -0.1451
 7752TIP3    H147451   3.994   4.821  11.335 -1.3602 -1.1408  0.2403
 7752TIP3    H247452   4.049   4.680  11.332 -1.4545 -1.2655  2.7331
 7753TIP3   OH247453   3.517   2.483  11.696 -0.4073 -0.1583 -0.2811
 7753TIP3    H147454   3.560   2.498  11.612 -0.5585  1.0417 -0.1616
 7753TIP3    H247455   3.576   2.522  11.760 -0.4146 -0.8482  0.1551
 7754TIP3   OH247456   4.569   1.773  12.346  0.0437  0.0696 -0.7486
 7754TIP3    H147457   4.521   1.784  12.264  1.4382  1.5215 -1.4277
 7754TIP3    H247458   4.509   1.725  12.403 -1.0371 -0.7831 -2.5361
 7755TIP3   OH247459   4.525   1.709  12.061 -0.1532 -0.2487 -0.0605
 7755TIP3    H147460   4.575   1.634  12.094  0.4696  0.0478 -0.3022
 7755TIP3    H247461   4.592   1.769  12.028 -0.5333  1.1338  1.5611
 7756TIP3   OH247462   3.302   4.194  11.979  0.2823 -0.0748  0.5114
 7756TIP3    H147463   3.382   4.227  12.020  0.5071  0.0184  0.0083
 7756TIP3    H247464   3.331   4.120  11.926  0.0295 -0.0575  0.3488
 7757TIP3   OH247465   0.797   3.791  10.924 -0.2189 -0.7434  0.0905
 7757TIP3    H147466   0.887   3.818  10.943 -0.1338 -0.1944 -1.0247
 7757TIP3    H247467   0.795   3.697  10.943  0.4286 -0.6476  0.6586
 7758TIP3   OH247468   7.100   6.918  10.704  0.0383 -0.1942 -0.2619
 7758TIP3    H147469   7.032   6.909  10.771 -0.6343  1.9845 -0.5888
 7758TIP3    H247470   7.169   6.968  10.746  1.1416 -1.6947 -0.2013
 7759TIP3   OH247471   3.285   5.705  12.604 -0.0801 -0.5737 -0.2521
 7759TIP3    H147472   3.249   5.709  12.692  0.1513  0.1989 -0.1915
 7759TIP3    H247473   3.372   5.743  12.611 -1.1675  2.4296 -1.3694
 7760TIP3   OH247474   3.262   3.792  11.735 -0.7368 -0.5408  0.1375
 7760TIP3    H147475   3.319   3.742  11.793 -0.6457 -1.5502 -0.8060
 7760TIP3    H247476   3.293   3.882  11.743  0.2182 -0.8950  0.5416
 7761TIP3   OH247477   3.047   1.249  11.417  0.0541 -0.0171 -0.2289
 7761TIP3    H147478   3.067   1.264  11.325  1.4580  0.9055  0.1969
 7761TIP3    H247479   2.957   1.279  11.427 -0.8355 -1.9933 -1.7028
 7762TIP3   OH247480   3.076   1.978  11.950 -0.0118 -0.6104 -0.4809
 7762TIP3    H147481   3.015   1.940  11.887 -2.2635  0.0382  1.1802
 7762TIP3    H247482   3.093   1.907  12.013  0.6102 -0.6436 -0.6775
 7763TIP3   OH247483   2.831   6.605  12.642 -0.2005 -0.2996 -0.2838
 7763TIP3    H147484   2.773   6.573  12.573  0.5523  0.2984 -1.2081
 7763TIP3    H247485   2.853   6.527  12.694 -0.1704 -0.8875 -1.1626
 7764TIP3   OH247486   6.568   1.123  11.627  0.6088 -0.1449 -0.4599
 7764TIP3    H147487   6.482   1.143  11.590 -0.3845 -0.2228  1.6265
 7764TIP3    H247488   6.626   1.191  11.591 -0.2123 -0.3104 -2.1866
 7765TIP3   OH247489   4.004   2.809  10.671 -0.1449 -0.3941  0.3718
 7765TIP3    H147490   4.038   2.882  10.618  0.7335 -1.4270 -0.5294
 7765TIP3    H247491   4.035   2.827  10.759 -1.1980  1.0956  0.4887
 7766TIP3   OH247492   4.028   7.608  10.865 -0.4202  0.5962  0.4742
 7766TIP3    H147493   4.118   7.582  10.848 -1.1230 -0.3095 -2.3796
 7766TIP3    H247494   4.023   7.700  10.838 -0.5907  0.2966 -0.5715
 7767TIP3   OH247495   1.845   0.498  11.875  0.1668 -0.1483  0.5588
 7767TIP3    H147496   1.788   0.443  11.821 -0.6701 -1.0399  2.2636
 7767TIP3    H247497   1.927   0.449  11.880  0.6489  0.4715 -0.7576
 7768TIP3   OH247498   7.088   6.675  12.177 -0.7686 -0.2235 -0.0284
 7768TIP3    H147499   7.146   6.750  12.194 -0.1774 -1.0622  1.9429
 7768TIP3    H247500   7.127   6.633  12.100  0.9661 -0.4493  0.9136
 7769TIP3   OH247501   0.124   2.180  10.937  0.5558 -0.2815 -0.0778
 7769TIP3    H147502   0.109   2.087  10.956  1.3837 -0.3067  0.5250
 7769TIP3    H247503   0.045   2.224  10.969  0.9883 -0.5714  1.4661
 7770TIP3   OH247504   5.521   7.043  11.602  0.0104 -0.0002  0.3987
 7770TIP3    H147505   5.494   7.091  11.680 -0.9754  0.3414 -0.1379
 7770TIP3    H247506   5.458   7.069  11.535  0.1638 -1.1487 -0.2123
 7771TIP3   OH247507   4.227   2.920  12.685 -0.1213 -0.3927 -0.0862
 7771TIP3    H147508   4.239   2.918  12.590  1.8096 -0.9565  0.1226
 7771TIP3    H247509   4.204   2.830  12.709  0.9854 -0.6316  0.1299
 7772TIP3   OH247510   2.942   2.987  11.502 -0.3294 -0.5699 -0.4685
 7772TIP3    H147511   2.927   3.039  11.423 -0.7065  0.5490  0.3243
 7772TIP3    H247512   2.866   3.005  11.557  0.7895  0.0898  0.9051
 7773TIP3   OH247513   1.827   2.533  11.877  0.3059 -0.2833  0.2327
 7773TIP3    H147514   1.848   2.626  11.888  1.3312 -0.2707 -1.4093
 7773TIP3    H247515   1.763   2.531  11.805 -0.8465 -0.7746  1.2309
 7774TIP3   OH247516   3.652   7.003  11.890 -0.1754 -0.0006  0.0465
 7774TIP3    H147517   3.655   6.934  11.824  0.0323 -0.6274  0.7009
 7774TIP3    H247518   3.641   7.084  11.840  0.4988 -0.4164 -0.7803
 7775TIP3   OH247519   5.672   2.309  10.373 -0.6058  0.5100  0.3199
 7775TIP3    H147520   5.601   2.350  10.422 -2.2881 -0.4812 -1.1623
 7775TIP3    H247521   5.694   2.373  10.305  1.1977  1.5583  1.8070
 7776TIP3   OH247522   3.313   3.219  12.536 -0.3525  0.7751  0.0304
 7776TIP3    H147523   3.275   3.138  12.503  1.7261 -0.7214  1.0321
 7776TIP3    H247524   3.398   3.225  12.492 -0.0086  1.7886  0.7979
 7777TIP3   OH247525   0.659   7.386  11.307 -0.5070  0.3654  0.3690
 7777TIP3    H147526   0.564   7.392  11.300 -0.4185 -0.2726 -2.7133
 7777TIP3    H247527   0.685   7.470  11.345 -2.1691  1.3794 -0.5847
 7778TIP3   OH247528   5.061   7.356  11.092 -0.5079 -0.0035 -0.4285
 7778TIP3    H147529   4.997   7.419  11.125 -0.4750 -1.3735  2.5942
 7778TIP3    H247530   5.132   7.409  11.057 -0.6193  1.6848  1.7454
 7779TIP3   OH247531   1.389   6.852  11.496  0.0759  0.6295 -0.0321
 7779TIP3    H147532   1.415   6.911  11.568 -0.5925 -0.3234  1.0289
 7779TIP3    H247533   1.440   6.773  11.512  0.3854  0.6300 -0.9937
 7780TIP3   OH247534   4.510   3.591  11.040 -0.0317  0.0826 -0.3187
 7780TIP3    H147535   4.498   3.627  10.952 -0.4015  1.5666  0.2952
 7780TIP3    H247536   4.439   3.630  11.092  1.2011  0.6743  1.0139
 7781TIP3   OH247537   1.554   2.701  11.399  0.5810  0.3945  0.4367
 7781TIP3    H147538   1.623   2.657  11.449  3.8048  1.6094 -2.5374
 7781TIP3    H247539   1.550   2.652  11.317 -3.5224 -0.6927  1.1023
 7782TIP3   OH247540   5.368   1.431  11.869 -0.1814  0.3022 -0.1756
 7782TIP3    H147541   5.463   1.421  11.881 -0.3049 -0.1448  0.4539
 7782TIP3    H247542   5.345   1.364  11.804 -0.0916  0.3060 -0.2114
 7783TIP3   OH247543   6.226   3.294  11.107 -0.2795 -0.2159  0.0032
 7783TIP3    H147544   6.145   3.299  11.057 -0.3261 -0.9287 -0.0111
 7783TIP3    H247545   6.295   3.311  11.043 -0.3111 -1.5919 -0.4281
 7784TIP3   OH247546   7.139   2.002  10.451 -0.1898 -0.5644 -0.4455
 7784TIP3    H147547   7.161   2.002  10.358 -0.4834 -0.3058 -0.5133
 7784TIP3    H247548   7.222   2.023  10.495 -0.2881  0.3793 -0.7009
 7785TIP3   OH247549   1.499   6.705  12.269  0.6788 -0.2396 -0.1425
 7785TIP3    H147550   1.505   6.774  12.334  0.9851 -0.0958 -0.3258
 7785TIP3    H247551   1.440   6.740  12.202 -0.9965 -1.0220  0.8514
 7786TIP3   OH247552   1.330   4.732  12.817  0.1050 -0.2958  0.4617
 7786TIP3    H147553   1.408   4.686  12.784  0.0009 -0.5645  0.5877
 7786TIP3    H247554   1.364   4.792  12.882  0.0850 -1.2880  1.4221
 7787TIP3   OH247555   0.419   3.795  11.093 -0.1013 -0.8507 -0.2786
 7787TIP3    H147556   0.493   3.825  11.146  0.3500 -1.7536 -0.3662
 7787TIP3    H247557   0.424   3.849  11.014  0.8955 -1.3523 -0.5808
 7788TIP3   OH247558   1.846  -0.055  17.742  0.2713 -0.1810 -0.4135
 7788TIP3    H147559   1.915  -0.118  17.721  1.7249  1.3722 -0.4878
 7788TIP3    H247560   1.845  -0.050  17.837  1.0284  0.5893 -0.4384
 7789TIP3   OH247561   2.559   1.313  11.811  0.1234 -0.6362 -0.2216
 7789TIP3    H147562   2.616   1.291  11.885  1.8351  1.6194 -0.7622
 7789TIP3    H247563   2.491   1.245  11.813  0.8547 -1.4450  2.5613
 7790TIP3   OH247564   1.097   6.134  13.308  0.5375  0.4926 -0.2148
 7790TIP3    H147565   1.005   6.157  13.297  0.9383  2.1528 -0.3270
 7790TIP3    H247566   1.145   6.214  13.285  1.9385  0.1281  1.2750
 7791TIP3   OH247567   1.441   4.227  11.855 -0.4317  0.5447  0.0730
 7791TIP3    H147568   1.436   4.298  11.919 -0.7212  0.7739 -0.2010
 7791TIP3    H247569   1.364   4.240  11.799  0.1727  0.7445 -0.7252
 7792TIP3   OH247570   7.182   3.653  13.288 -0.2351  0.0684 -1.0372
 7792TIP3    H147571   7.140   3.652  13.374  0.5202 -0.0458 -0.6593
 7792TIP3    H247572   7.115   3.620  13.228 -0.4799 -0.7290 -0.3480
 7793TIP3   OH247573   2.748   5.206  12.767 -0.1866 -0.3891 -0.3535
 7793TIP3    H147574   2.752   5.110  12.775  0.2279 -0.2389  2.0586
 7793TIP3    H247575   2.677   5.232  12.826  0.7269  0.8657  0.2428
 7794TIP3   OH247576   6.092   4.240  10.666 -0.2536  0.2767 -1.4557
 7794TIP3    H147577   6.027   4.188  10.618 -1.1238  0.7626 -0.8246
 7794TIP3    H247578   6.041   4.300  10.718  0.5547 -1.3648  1.4457
 7795TIP3   OH247579   2.315   7.564  11.163 -0.2183  0.2985 -0.9896
 7795TIP3    H147580   2.235   7.557  11.110 -0.0918 -1.8693 -0.9494
 7795TIP3    H247581   2.286   7.546  11.252  0.2721 -0.2433 -0.9386
 7796TIP3   OH247582   1.985   1.630  10.932  0.1307 -0.9787  0.3234
 7796TIP3    H147583   1.962   1.718  10.903 -0.7468 -0.4709  2.3601
 7796TIP3    H247584   1.901   1.585  10.945  0.4645 -1.2797  1.6325
 7797TIP3   OH247585   7.462   2.883  12.609 -0.3616 -0.1760 -0.2025
 7797TIP3    H147586   7.500   2.916  12.690  0.3811 -0.2580 -0.5091
 7797TIP3    H247587   7.449   2.961  12.555  1.2584 -0.3113 -0.8699
 7798TIP3   OH247588   4.309   4.372  11.970 -0.7421  0.2094 -0.2421
 7798TIP3    H147589   4.269   4.394  11.886 -1.3388 -1.3341 -0.3947
 7798TIP3    H247590   4.352   4.288  11.955  0.8840  0.8591  0.4707
 7799TIP3   OH247591   2.520   6.893  10.924 -0.6082  0.6158 -0.6337
 7799TIP3    H147592   2.581   6.841  10.976 -1.3912 -1.1269 -1.3555
 7799TIP3    H247593   2.434   6.862  10.952 -1.0716  0.8677 -1.7366
 7800TIP3   OH247594   1.899   2.867  11.238  0.1793 -0.0655 -1.0386
 7800TIP3    H147595   1.894   2.890  11.330  0.3090  0.7512 -1.2304
 7800TIP3    H247596   1.958   2.932  11.200  0.4643 -0.6528 -1.6182
 7801TIP3   OH247597   5.049   1.898  11.244 -0.2726 -0.2600  0.3163
 7801TIP3    H147598   4.996   1.819  11.241  0.6826 -0.9042 -0.2647
 7801TIP3    H247599   5.123   1.879  11.186  0.7929  0.4639  1.4029
 7802TIP3   OH247600   7.602   0.407  11.719  0.1095  0.3410 -0.6172
 7802TIP3    H147601   7.528   0.447  11.764 -1.0585 -0.8119 -1.4363
 7802TIP3    H247602   7.563   0.352  11.651  1.7266 -0.0874 -1.2694
 7803TIP3   OH247603   0.497   5.258  12.361  0.3717 -0.2714 -0.9052
 7803TIP3    H147604   0.578   5.283  12.316 -0.2363  1.0518 -1.3238
 7803TIP3    H247605   0.492   5.163  12.352  2.6808 -0.6026  0.4877
 7804TIP3   OH247606   6.040   6.008  13.288  0.2037 -0.1626  0.6489
 7804TIP3    H147607   6.004   5.940  13.230 -0.2848  1.0271 -0.4880
 7804TIP3    H247608   6.131   6.017  13.258  0.1873 -0.1151  0.6141
 7805TIP3   OH247609   4.667   1.841  13.273 -0.5410  0.0500  0.0235
 7805TIP3    H147610   4.617   1.771  13.316 -2.0023  0.9191 -0.1847
 7805TIP3    H247611   4.750   1.844  13.321 -0.6812 -1.4273  0.4114
 7806TIP3   OH247612   0.915   5.246  11.242 -0.4424 -0.2873  0.0898
 7806TIP3    H147613   0.981   5.202  11.295  1.2549  0.1514 -1.5265
 7806TIP3    H247614   0.832   5.211  11.273  0.4708 -0.4613  2.5895
 7807TIP3   OH247615   4.991   0.211  11.342  0.1661 -0.0559  0.0337
 7807TIP3    H147616   5.030   0.297  11.359 -0.6729  0.1043  1.2323
 7807TIP3    H247617   4.898   0.228  11.332 -0.2657 -0.9994  1.9563
 7808TIP3   OH247618   1.424   7.392  13.043  0.1271  0.3000 -0.7032
 7808TIP3    H147619   1.333   7.385  13.074  0.1937 -2.0954 -0.8788
 7808TIP3    H247620   1.471   7.431  13.117 -0.7462  0.0024  0.0423
 7809TIP3   OH247621   2.382   2.811  11.388  0.1069 -0.0574 -0.4529
 7809TIP3    H147622   2.335   2.842  11.465 -0.5340  0.1205 -0.9101
 7809TIP3    H247623   2.474   2.807  11.416 -0.0403  0.5549  0.1400
 7810TIP3   OH247624   2.929   0.697  10.850  0.1424  0.2243 -0.0176
 7810TIP3    H147625   2.946   0.625  10.789 -0.4633 -1.1340  1.3470
 7810TIP3    H247626   2.855   0.666  10.903 -1.4522  2.6771 -0.6525
 7811TIP3   OH247627   4.339   0.351  12.985 -0.5247  0.7503 -0.0091
 7811TIP3    H147628   4.367   0.442  12.980  1.0530  0.2603 -0.8472
 7811TIP3    H247629   4.383   0.316  13.062  1.3603 -0.0433 -1.3725
 7812TIP3   OH247630   1.941   2.698  10.524  0.4026 -0.3569 -0.5233
 7812TIP3    H147631   1.980   2.677  10.609 -2.0941  0.2497  0.8505
 7812TIP3    H247632   1.981   2.782  10.500 -1.4385  1.3542  1.8893
 7813TIP3   OH247633   0.685   6.184  11.195 -0.1396  0.1994  0.4031
 7813TIP3    H147634   0.729   6.269  11.187 -0.4886  0.2864 -0.9322
 7813TIP3    H247635   0.592   6.204  11.190 -0.2091 -0.3058 -0.6181
 7814TIP3   OH247636   5.761   5.749  13.346  0.0472 -0.0773  0.1966
 7814TIP3    H147637   5.779   5.664  13.387 -1.7471 -0.2509  0.7431
 7814TIP3    H247638   5.676   5.736  13.303 -0.3180  1.4794  0.4000
 7815TIP3   OH247639   1.908   7.549  11.200  0.0408 -0.2046  0.5768
 7815TIP3    H147640   1.941   7.464  11.172  2.1552  0.2052  1.6120
 7815TIP3    H247641   1.883   7.593  11.119  1.3206 -0.8871 -0.2152
 7816TIP3   OH247642   3.702   0.871  12.054  0.9042  0.2081 -0.2461
 7816TIP3    H147643   3.749   0.861  12.137  0.6454 -0.5126 -0.1792
 7816TIP3    H247644   3.645   0.795  12.050  0.2059  0.7454 -0.6348
 7817TIP3   OH247645   3.432   7.318  11.763 -0.5069  0.4201  0.0924
 7817TIP3    H147646   3.514   7.283  11.730 -0.4377  0.1364  0.5607
 7817TIP3    H247647   3.421   7.401  11.716 -0.7924 -0.3098 -1.2066
 7818TIP3   OH247648   4.706   3.340  11.254  0.0769 -0.2073  0.1751
 7818TIP3    H147649   4.687   3.433  11.259 -0.9157 -0.4606  2.1565
 7818TIP3    H247650   4.686   3.307  11.341  0.2770 -2.3076 -0.5199
 7819TIP3   OH247651   7.136   4.655  12.830  0.7456 -0.5378  0.1390
 7819TIP3    H147652   7.061   4.597  12.817  1.9954 -2.0558 -0.4198
 7819TIP3    H247653   7.184   4.617  12.904  0.9509  0.4827  0.5601
 7820TIP3   OH247654   0.157   4.542  11.879  0.3926 -0.6348 -0.5394
 7820TIP3    H147655   0.107   4.581  11.808  1.6451  1.9309 -0.1322
 7820TIP3    H247656   0.132   4.592  11.956  1.4097 -1.2433  0.2070
 7821TIP3   OH247657   2.755   7.602  10.940  0.0417  0.1906 -0.2677
 7821TIP3    H147658   2.673   7.593  10.988 -0.1992  1.3142 -0.4550
 7821TIP3    H247659   2.763   7.695  10.921  2.5277  0.5102  1.7866
 7822TIP3   OH247660   4.786   3.756  13.119 -0.0330  0.1034  0.6742
 7822TIP3    H147661   4.800   3.843  13.083 -1.2278  0.1372  0.2365
 7822TIP3    H247662   4.829   3.697  13.057 -0.0078  0.3150  0.4903
 7823TIP3   OH247663   4.308   7.594  10.842  0.5414 -0.3381  0.5299
 7823TIP3    H147664   4.395   7.557  10.856  0.4337 -1.0406 -0.5411
 7823TIP3    H247665   4.323   7.675  10.795  0.6121 -0.5970  0.0981
 7824TIP3   OH247666   0.274   0.245  10.420  0.1744 -0.2730 -0.3005
 7824TIP3    H147667   0.198   0.232  10.476  0.3643  0.0223  0.0337
 7824TIP3    H247668   0.256   0.326  10.373  1.1088  0.8888  1.2123
 7825TIP3   OH247669   2.044   3.072  11.157  0.7204  0.1958  0.3374
 7825TIP3    H147670   2.135   3.101  11.150  0.6830 -0.0055 -1.5465
 7825TIP3    H247671   2.002   3.138  11.211  1.8710  0.5594  0.8254
 7826TIP3   OH247672   2.949   7.085  10.813  0.0690 -0.5883  0.2733
 7826TIP3    H147673   2.953   7.066  10.906 -1.5957  0.3326  0.5797
 7826TIP3    H247674   2.979   7.176  10.806 -0.0715 -0.5652 -0.0448
 7827TIP3   OH247675   3.025   6.689  12.355  0.5134 -0.1801 -0.0386
 7827TIP3    H147676   3.112   6.653  12.339  1.2808  1.4099  0.3131
 7827TIP3    H247677   2.980   6.683  12.271  1.8777  1.3051 -0.9218
 7828TIP3   OH247678   1.619   2.001  10.556  0.0317 -0.5352  0.0242
 7828TIP3    H147679   1.584   1.954  10.631  1.5032  0.7033  1.5582
 7828TIP3    H247680   1.610   2.093  10.578  1.0252 -0.1491 -1.0524
 7829TIP3   OH247681   2.821   2.192  11.755 -0.4115 -0.2923  1.0219
 7829TIP3    H147682   2.762   2.255  11.714 -0.0794 -0.2657  0.5864
 7829TIP3    H247683   2.786   2.182  11.844 -0.3026  0.7240  1.1965
 7830TIP3   OH247684   6.470   6.211  12.929  0.6214 -0.2689  0.2399
 7830TIP3    H147685   6.427   6.200  13.014  0.7478  1.1738  0.5100
 7830TIP3    H247686   6.563   6.199  12.948  0.7153  0.7178  0.4469
 7831TIP3   OH247687   4.976   0.980  10.617 -0.2077  0.0744 -0.8401
 7831TIP3    H147688   4.994   1.070  10.646  1.5927 -0.0802 -1.3285
 7831TIP3    H247689   4.888   0.984  10.580 -0.3409  1.5291 -0.4361
 7832TIP3   OH247690   3.784   1.537  11.972  0.0090 -0.7414 -0.1268
 7832TIP3    H147691   3.843   1.612  11.961  0.2582 -0.5861  1.9293
 7832TIP3    H247692   3.814   1.474  11.906  2.7060 -0.7575  0.9842
 7833TIP3   OH247693   6.832   2.774  10.825  0.2648  0.1105  0.5941
 7833TIP3    H147694   6.798   2.804  10.740  1.7153  0.1183 -0.0068
 7833TIP3    H247695   6.916   2.735  10.805  0.6260  0.0859  2.0443
 7834TIP3   OH247696   0.503   6.086  12.099 -0.3191 -0.4334  0.2786
 7834TIP3    H147697   0.456   6.033  12.035 -0.0177  0.8989 -1.1142
 7834TIP3    H247698   0.595   6.062  12.088 -0.3718 -1.0163  1.0333
 7835TIP3   OH247699   2.038   3.709  10.993  0.5616  0.2113  0.0517
 7835TIP3    H147700   2.064   3.698  10.901  0.7245  2.0894 -0.1581
 7835TIP3    H247701   2.120   3.698  11.042  0.7315  0.6065 -0.1437
 7836TIP3   OH247702   6.854   2.793  11.440  0.3156 -0.5838  0.5528
 7836TIP3    H147703   6.770   2.822  11.403  0.5770 -2.2395 -1.4864
 7836TIP3    H247704   6.832   2.718  11.494  0.0969  1.1260  3.0065
 7837TIP3   OH247705   6.214   5.546  11.524  0.1439 -0.2917  0.0010
 7837TIP3    H147706   6.175   5.466  11.489  0.3486 -1.4479  2.2585
 7837TIP3    H247707   6.299   5.519  11.559  0.4081  0.9946  0.4134
 7838TIP3   OH247708   4.721   6.062  12.310  0.2372 -0.3708  0.2649
 7838TIP3    H147709   4.700   6.049  12.403  0.3840 -1.5027  0.1435
 7838TIP3    H247710   4.764   6.148  12.308 -0.4697  0.0303  1.1219
 7839TIP3   OH247711   2.944   1.716  10.725 -0.0975  0.1995  0.2343
 7839TIP3    H147712   2.919   1.662  10.651 -2.5789 -0.5336  1.4792
 7839TIP3    H247713   2.860   1.742  10.765  1.1135  0.7015  2.6636
 7840TIP3   OH247714   4.698   4.656  12.395  0.0422  0.1907  0.5326
 7840TIP3    H147715   4.778   4.627  12.351  0.7760  0.9915  1.2957
 7840TIP3    H247716   4.654   4.575  12.421 -0.8241 -0.3610 -2.2723
 7841TIP3   OH247717   0.824   4.460  12.853  0.4366 -0.4827 -0.3296
 7841TIP3    H147718   0.789   4.479  12.940 -1.0706  0.5870 -1.1233
 7841TIP3    H247719   0.915   4.489  12.857 -0.2675  1.8639  0.2201
 7842TIP3   OH247720   0.899   6.859  12.656 -0.1543  0.3728  0.2716
 7842TIP3    H147721   0.963   6.885  12.721 -0.0256 -2.1476  1.2807
 7842TIP3    H247722   0.832   6.928  12.659  1.7588  2.3344  0.1686
 7843TIP3   OH247723   6.841   5.578  10.890  0.0571 -0.5803 -0.1289
 7843TIP3    H147724   6.829   5.632  10.968 -0.3255 -0.4744 -0.2564
 7843TIP3    H247725   6.777   5.613  10.827 -0.8246 -1.7547  0.0923
 7844TIP3   OH247726   0.914   1.733  11.581 -0.1314  0.4701  0.2458
 7844TIP3    H147727   0.837   1.770  11.537  1.5600  2.1917 -1.4429
 7844TIP3    H247728   0.985   1.741  11.517  1.6529 -0.3136  2.0172
 7845TIP3   OH247729   0.181   3.866  11.160  0.2258 -0.6700 -0.2069
 7845TIP3    H147730   0.141   3.894  11.077 -1.2201 -0.2022  0.6005
 7845TIP3    H247731   0.261   3.821  11.134 -0.8388 -1.7031 -1.9502
 7846TIP3   OH247732   6.788   0.883  11.047  0.2950  0.1787 -0.0447
 7846TIP3    H147733   6.773   0.789  11.038 -0.2962  0.2492  0.1239
 7846TIP3    H247734   6.805   0.914  10.958  2.0128 -0.3231  0.0809
 7847TIP3   OH247735   6.965   0.651  12.431 -0.4566  0.5761  0.3346
 7847TIP3    H147736   7.011   0.639  12.347  0.3342  3.2599  0.2959
 7847TIP3    H247737   7.028   0.622  12.497 -0.7443 -0.7062  0.0633
 7848TIP3   OH247738   4.383   4.540  12.172 -0.0780 -1.0010  0.2201
 7848TIP3    H147739   4.427   4.455  12.178 -0.5162 -1.2969 -0.5955
 7848TIP3    H247740   4.350   4.544  12.082  0.5156  0.3288  0.0360
 7849TIP3   OH247741   0.560   2.903  10.965 -0.2545  0.2782  0.0760
 7849TIP3    H147742   0.645   2.873  10.998  0.3941  0.9856 -0.8606
 7849TIP3    H247743   0.567   2.891  10.870  0.0570  3.2321 -0.3805
 7850TIP3   OH247744   4.788   7.332  12.216 -0.1262 -0.1651 -0.2633
 7850TIP3    H147745   4.853   7.327  12.146 -3.0491  0.5069 -3.3405
 7850TIP3    H247746   4.774   7.426  12.229 -0.8829 -0.2957 -0.0942
 7851TIP3   OH247747   2.936   6.461  11.342 -0.1265  0.3674 -0.0164
 7851TIP3    H147748   2.863   6.504  11.298  0.7349  0.5116 -1.3706
 7851TIP3    H247749   3.000   6.447  11.273  0.1325 -2.0091  0.6203
 7852TIP3   OH247750   6.433   5.032  12.099 -0.3996  0.2480 -0.2546
 7852TIP3    H147751   6.423   5.097  12.168 -2.6548 -0.6443  0.3363
 7852TIP3    H247752   6.392   4.953  12.134 -2.0571 -0.1186 -2.7264
 7853TIP3   OH247753   3.319   2.083  11.856 -0.2351 -0.1568  0.4898
 7853TIP3    H147754   3.230   2.046  11.863  0.1665 -1.4427 -0.8105
 7853TIP3    H247755   3.306   2.167  11.811 -0.7315 -0.6583 -0.3341
 7854TIP3   OH247756   2.214   6.217  13.232 -0.0427  0.8331  0.0905
 7854TIP3    H147757   2.200   6.285  13.165  0.9558 -0.3356 -1.3563
 7854TIP3    H247758   2.292   6.171  13.203 -0.9025 -1.1775  0.8315
 7855TIP3   OH247759   1.130   6.272  12.562 -0.5095 -0.3590 -0.1939
 7855TIP3    H147760   1.082   6.349  12.534  2.2736  1.4955 -0.2276
 7855TIP3    H247761   1.158   6.291  12.652  0.7285 -1.0347 -0.4049
 7856TIP3   OH247762   6.939   1.800  10.445 -0.0766 -0.0451 -0.5909
 7856TIP3    H147763   6.995   1.746  10.500 -0.3067  0.8908  0.6250
 7856TIP3    H247764   6.988   1.881  10.432  0.1563 -0.4194 -2.1635
 7857TIP3   OH247765   7.006   1.858  12.650  0.3815 -0.4186 -0.2615
 7857TIP3    H147766   6.917   1.855  12.684  0.9846  2.2793  1.9143
 7857TIP3    H247767   6.998   1.905  12.567 -0.1711  0.2946  0.1842
 7858TIP3   OH247768   0.354   0.584  12.358  0.2060  0.5808 -0.0627
 7858TIP3    H147769   0.283   0.646  12.341 -0.4505 -0.5762 -1.7394
 7858TIP3    H247770   0.424   0.638  12.394 -0.3781  2.3123 -1.3820
 7859TIP3   OH247771   4.880  -0.005  11.485  0.3251 -0.7622 -0.4276
 7859TIP3    H147772   4.855   0.034  11.402  2.0098  0.1321 -0.5611
 7859TIP3    H247773   4.873   0.067  11.548 -0.0020 -1.1873  0.0333
 7860TIP3   OH247774   2.196   2.547  10.991 -0.4089 -0.0311  0.4156
 7860TIP3    H147775   2.173   2.569  11.081  1.2796  0.3671  0.8004
 7860TIP3    H247776   2.261   2.477  11.000 -1.0590 -0.7773 -0.5515
 7861TIP3   OH247777   4.425   0.458  10.695  0.3632 -0.0303 -0.8391
 7861TIP3    H147778   4.511   0.458  10.653 -0.4287  1.3398 -2.6196
 7861TIP3    H247779   4.371   0.514  10.638 -1.8315 -1.2270 -0.0406
 7862TIP3   OH247780   0.360   1.290  12.269  0.0155  0.3782 -0.2547
 7862TIP3    H147781   0.309   1.338  12.334 -0.1041  0.3665 -0.3386
 7862TIP3    H247782   0.304   1.217  12.244  0.6993 -0.5472  0.8095
 7863TIP3   OH247783   5.012   1.343  11.649  0.7797 -0.0842 -0.1531
 7863TIP3    H147784   5.084   1.280  11.657  0.5554 -0.7436 -2.5880
 7863TIP3    H247785   4.944   1.310  11.707  1.1198 -1.4565 -0.5061
 7864TIP3   OH247786   3.660   6.773  10.820 -0.7141 -0.4223 -0.0073
 7864TIP3    H147787   3.722   6.839  10.789  0.7067 -0.9867  1.5168
 7864TIP3    H247788   3.575   6.817  10.816  0.3188  2.0443  2.2097
 7865TIP3   OH247789   5.063   2.661  10.703 -0.0150  0.7064  0.2163
 7865TIP3    H147790   5.141   2.628  10.748  0.0263  1.6789  0.9012
 7865TIP3    H247791   4.990   2.631  10.757 -0.1513 -0.3702 -0.5306
 7866TIP3   OH247792   2.881   6.469  11.023 -0.4308  0.0062  0.1311
 7866TIP3    H147793   2.970   6.472  11.058 -0.2309 -2.9174  0.1004
 7866TIP3    H247794   2.883   6.528  10.948  1.6317 -0.3706 -0.1629
 7867TIP3   OH247795   6.593   1.064  11.026  0.3415 -0.0779 -0.2370
 7867TIP3    H147796   6.669   1.007  11.042  0.4079 -0.1933 -0.9107
 7867TIP3    H247797   6.632   1.148  11.001  0.2565 -0.3057 -1.1569
 7868TIP3   OH247798   7.428   3.189  11.456 -0.0782  0.5741 -0.3234
 7868TIP3    H147799   7.440   3.284  11.464 -3.1290  1.1012 -0.8299
 7868TIP3    H247800   7.495   3.151  11.513  0.8304  3.0378  0.3559
 7869TIP3   OH247801   6.360   7.057  10.761  0.6109  0.5957 -0.0440
 7869TIP3    H147802   6.454   7.040  10.754  0.1965 -1.5495 -1.5100
 7869TIP3    H247803   6.341   7.119  10.690  0.6923 -0.2810 -0.8567
 7870TIP3   OH247804   0.376   3.281  13.155  0.1671  0.1007 -0.2822
 7870TIP3    H147805   0.345   3.371  13.142  1.8444  0.7908  0.1632
 7870TIP3    H247806   0.321   3.247  13.226 -1.6010  0.1646 -1.5709
 7871TIP3   OH247807   7.387   4.908  11.636 -0.3003 -0.2784  0.4331
 7871TIP3    H147808   7.303   4.897  11.679  0.6415 -0.0053  2.4645
 7871TIP3    H247809   7.433   4.824  11.650  1.0714  0.7256  2.5391
 7872TIP3   OH247810   0.307   5.256  12.731  0.4199 -0.1802  0.2666
 7872TIP3    H147811   0.304   5.172  12.685  1.3907  0.2425 -0.6122
 7872TIP3    H247812   0.295   5.321  12.662  2.2338  0.4839  0.5350
 7873TIP3   OH247813   2.238   1.666  10.483 -0.1915  0.2627 -1.0134
 7873TIP3    H147814   2.268   1.603  10.547 -0.4932 -0.8850 -1.9706
 7873TIP3    H247815   2.237   1.618  10.400 -1.7628  1.1105 -1.5254
 7874TIP3   OH247816   1.777   5.413  11.466  0.3042 -0.9508  0.6151
 7874TIP3    H147817   1.702   5.352  11.466 -0.7605  0.3074  1.3419
 7874TIP3    H247818   1.741   5.494  11.429  1.7168 -0.7461 -0.4016
 7875TIP3   OH247819   4.571   0.226  12.134  0.4108  0.4161 -0.4017
 7875TIP3    H147820   4.518   0.257  12.060  0.2624 -0.0183 -0.4777
 7875TIP3    H247821   4.661   0.227  12.100  0.2930 -0.2458 -0.7534
 7876TIP3   OH247822   5.408   1.346  12.327 -0.3038 -0.2773  0.5271
 7876TIP3    H147823   5.435   1.258  12.303 -0.1960  0.3740 -2.0385
 7876TIP3    H247824   5.345   1.371  12.260  1.3521  2.3970 -0.2089
 7877TIP3   OH247825   1.231   4.941  12.252  0.0680  0.2965  0.3572
 7877TIP3    H147826   1.142   4.977  12.258 -0.0806 -0.1619  1.1110
 7877TIP3    H247827   1.224   4.871  12.187 -0.7667 -1.4573  2.2084
 7878TIP3   OH247828   0.063   5.994  10.347 -0.4777  0.3284 -0.6065
 7878TIP3    H147829   0.121   6.026  10.278 -0.0959  0.1096 -0.3952
 7878TIP3    H247830   0.052   5.901  10.327 -0.4193  0.2793 -0.4075
 7879TIP3   OH247831   0.010   2.208  11.313 -0.2072  0.1197 -0.1774
 7879TIP3    H147832  -0.013   2.299  11.334  1.4083  0.0786  2.0459
 7879TIP3    H247833   0.047   2.213  11.225  0.4723  1.7577  0.1509
 7880TIP3   OH247834   6.752   3.466  10.903 -0.4793  0.0916 -0.5118
 7880TIP3    H147835   6.805   3.540  10.934  0.1534 -0.7700  0.5380
 7880TIP3    H247836   6.816   3.397  10.886 -1.1136 -0.3927 -0.9543
 7881TIP3   OH247837   2.517   1.895  12.456 -0.3427  0.2328 -0.0911
 7881TIP3    H147838   2.429   1.932  12.444  0.4747  1.9544 -1.1121
 7881TIP3    H247839   2.575   1.955  12.409  1.4327 -0.7119  0.7997
 7882TIP3   OH247840   0.145   4.665  12.124 -0.2524 -0.1331 -0.3929
 7882TIP3    H147841   0.118   4.744  12.170  0.2019 -1.0708  1.6030
 7882TIP3    H247842   0.241   4.669  12.122 -0.2003 -0.8800  0.2224
 7883TIP3   OH247843   4.542   3.192  10.933  0.6687  0.1561 -0.0554
 7883TIP3    H147844   4.583   3.237  11.007  0.0429  0.7505 -0.0543
 7883TIP3    H247845   4.466   3.246  10.912  0.6318 -0.2118 -0.8967
 7884TIP3   OH247846   6.415   3.034  12.275  0.5756 -0.7312  0.0754
 7884TIP3    H147847   6.449   2.953  12.238  0.4191 -0.1025 -1.5540
 7884TIP3    H247848   6.389   3.012  12.364 -0.0223 -2.6173 -0.5284
 7885TIP3   OH247849   1.070   5.311  12.803  0.0544 -0.0461 -0.1409
 7885TIP3    H147850   1.083   5.320  12.898 -1.7890 -2.6619  0.4546
 7885TIP3    H247851   0.979   5.334  12.789  0.0400 -0.6595 -1.1083
 7886TIP3   OH247852   2.482   0.473  12.157  0.8131  0.2817 -0.2290
 7886TIP3    H147853   2.480   0.553  12.104  1.0055  0.6725  0.3399
 7886TIP3    H247854   2.394   0.437  12.150  0.7067  0.5811 -0.4368
 7887TIP3   OH247855   5.881   6.232  13.190 -0.4137  0.0610  0.5340
 7887TIP3    H147856   5.888   6.149  13.236 -0.7404  0.4734  1.3483
 7887TIP3    H247857   5.945   6.289  13.232  0.7214 -0.1352 -0.8602
 7888TIP3   OH247858   3.576   5.157  11.872 -0.0352  0.0668 -0.1602
 7888TIP3    H147859   3.530   5.099  11.932 -0.4173 -1.9526 -2.2375
 7888TIP3    H247860   3.663   5.169  11.911 -0.2091 -1.3155  0.7183
 7889TIP3   OH247861   5.109   7.122  11.731 -0.4335  0.3321  0.2121
 7889TIP3    H147862   5.030   7.171  11.705 -0.6263  0.4505  1.0052
 7889TIP3    H247863   5.080   7.066  11.803 -0.6145 -2.1362 -1.6254
 7890TIP3   OH247864   3.512   7.651  12.484 -0.1549  0.1679 -0.1007
 7890TIP3    H147865   3.534   7.586  12.418 -1.0945  0.7184 -0.9771
 7890TIP3    H247866   3.428   7.623  12.520  0.0238  0.2403  0.3875
 7891TIP3   OH247867   3.131   6.464  11.129 -0.0513  0.4820 -0.1946
 7891TIP3    H147868   3.191   6.526  11.087  0.1295  1.5524  1.5645
 7891TIP3    H247869   3.189   6.403  11.176 -0.2882  0.6848  0.3701
 7892TIP3   OH247870   2.361   2.123  12.163 -0.3287 -0.4954  0.1497
 7892TIP3    H147871   2.287   2.184  12.171 -1.7698 -2.1848  0.3219
 7892TIP3    H247872   2.381   2.122  12.070 -2.2496 -1.8905 -0.3105
 7893TIP3   OH247873   1.952   0.954  11.412 -0.1500  0.0936 -0.2440
 7893TIP3    H147874   2.028   0.976  11.465 -0.0367 -1.5968  0.3377
 7893TIP3    H247875   1.877   0.977  11.467 -0.0613  0.8364 -0.4260
 7894TIP3   OH247876   7.562   4.848  11.963 -0.3782 -0.6417 -0.8299
 7894TIP3    H147877   7.578   4.766  11.916 -1.5595 -0.3060 -1.8515
 7894TIP3    H247878   7.605   4.915  11.909 -2.7515 -0.0939 -2.1600
 7895TIP3   OH247879   2.536   4.237  12.016  0.2083  0.4138 -0.1727
 7895TIP3    H147880   2.574   4.224  12.103  1.0721 -1.7401 -0.8193
 7895TIP3    H247881   2.522   4.148  11.982 -3.6985  1.0519 -0.7571
 7896TIP3   OH247882   4.812   5.707  12.779  0.1538 -0.1693 -0.4390
 7896TIP3    H147883   4.733   5.679  12.826  0.5644  1.4840  1.3522
 7896TIP3    H247884   4.783   5.716  12.688 -0.9527 -2.4068 -0.3937
 7897TIP3   OH247885   4.738   0.204  11.605 -0.2626 -0.2270 -0.1303
 7897TIP3    H147886   4.644   0.201  11.589 -0.2966  0.4640 -0.1103
 7897TIP3    H247887   4.765   0.289  11.571 -0.0887  0.6985  2.1169
 7898TIP3   OH247888   2.616   7.451  10.650 -0.1496  0.5320  0.1518
 7898TIP3    H147889   2.711   7.443  10.640 -0.0973  0.7483  0.4680
 7898TIP3    H247890   2.595   7.540  10.621 -0.4760 -0.0519 -1.4787
 7899TIP3   OH247891   7.453   4.483  11.113 -0.2010 -0.2468  0.1949
 7899TIP3    H147892   7.541   4.448  11.128  0.0035  0.1314 -0.0936
 7899TIP3    H247893   7.420   4.434  11.038  0.0302  0.0715 -0.1200
 7900TIP3   OH247894   6.351   1.210  11.911  0.0431  0.3970 -0.4505
 7900TIP3    H147895   6.390   1.277  11.855 -1.2179  1.8689  0.3574
 7900TIP3    H247896   6.257   1.217  11.895 -0.2308 -0.1300  0.7876
 7901TIP3   OH247897   1.718   3.636  11.554 -0.4813  0.3355 -0.2006
 7901TIP3    H147898   1.751   3.596  11.473 -1.8163 -2.1678  0.3887
 7901TIP3    H247899   1.675   3.564  11.600  3.1039  0.6825  4.4363
 7902TIP3   OH247900   1.362   1.649  10.780  1.0983  0.0913  0.1524
 7902TIP3    H147901   1.424   1.629  10.709  0.4229 -0.7709 -0.2174
 7902TIP3    H247902   1.389   1.592  10.852  0.2655 -0.8978 -0.2886
 7903TIP3   OH247903   3.063   6.197  13.310 -0.1279  0.1712  0.3740
 7903TIP3    H147904   2.976   6.166  13.336 -0.9374  0.8971 -1.3430
 7903TIP3    H247905   3.069   6.285  13.348 -0.1668  0.1531  0.4239
 7904TIP3   OH247906   4.062   4.317  12.160 -0.0734 -0.5133  0.2433
 7904TIP3    H147907   4.105   4.338  12.077 -0.5248 -3.2790 -0.7962
 7904TIP3    H247908   3.979   4.365  12.156  0.2217 -0.0427 -0.5775
 7905TIP3   OH247909   1.618   5.182  12.359  0.2505  0.3189 -0.0704
 7905TIP3    H147910   1.559   5.106  12.356 -1.7190  1.7519  0.0962
 7905TIP3    H247911   1.689   5.154  12.417 -1.6200 -0.6517  1.9082
 7906TIP3   OH247912   0.545   7.437  10.650  0.0189  0.1145 -0.0189
 7906TIP3    H147913   0.605   7.478  10.712  2.1518 -2.9611  0.1496
 7906TIP3    H247914   0.484   7.387  10.705 -0.2466  0.1129 -0.3143
 7907TIP3   OH247915   5.661   6.642  18.105  0.6895  0.3530 -0.2484
 7907TIP3    H147916   5.658   6.677  18.016  1.0611  0.4226 -0.2336
 7907TIP3    H247917   5.668   6.548  18.094  0.2720  0.3225 -0.2880
 7908TIP3   OH247918   5.407   2.253  12.673  0.2356 -0.0819 -0.2377
 7908TIP3    H147919   5.426   2.324  12.734 -3.3998  0.8254  0.0735
 7908TIP3    H247920   5.420   2.292  12.586  1.9268 -0.2902 -0.1202
 7909TIP3   OH247921   7.184   3.237  12.082  0.0958 -0.2728  0.4843
 7909TIP3    H147922   7.194   3.331  12.092 -1.6217 -0.1110  1.0080
 7909TIP3    H247923   7.188   3.202  12.171  1.2979 -0.7751  0.2487
 7910TIP3   OH247924   5.244   1.033  12.373 -0.0889  0.1885  0.2897
 7910TIP3    H147925   5.179   1.013  12.440  0.4196 -1.5117  0.3181
 7910TIP3    H247926   5.193   1.044  12.293 -0.5407  0.4122  0.6054
 7911TIP3   OH247927   1.204   1.059  12.874  0.4885 -0.0695 -0.0858
 7911TIP3    H147928   1.162   1.038  12.958 -1.3190 -0.9716 -1.1570
 7911TIP3    H247929   1.297   1.045  12.890  0.0858 -1.3546  1.4437
 7912TIP3   OH247930   5.843   5.455  10.881  0.2457 -0.4295 -0.2415
 7912TIP3    H147931   5.840   5.391  10.809  2.8245 -0.5471 -0.3166
 7912TIP3    H247932   5.935   5.478  10.889 -0.3018  1.4269  1.4638
 7913TIP3   OH247933   7.312   7.448  13.230  0.1472  0.4754  0.4834
 7913TIP3    H147934   7.236   7.400  13.197  0.1082  0.7965  0.1007
 7913TIP3    H247935   7.300   7.450  13.324 -0.1758  0.2830  0.4490
 7914TIP3   OH247936   0.553   5.907  10.704  0.3715  0.7566  0.6774
 7914TIP3    H147937   0.523   5.831  10.653 -2.2758  0.9543  1.8035
 7914TIP3    H247938   0.532   5.885  10.794  0.9961  2.2052  1.2036
 7915TIP3   OH247939   6.553   6.550  12.168  0.6062 -0.3878  0.2306
 7915TIP3    H147940   6.583   6.462  12.192  0.5476 -0.0149  1.7132
 7915TIP3    H247941   6.632   6.604  12.174  0.2847 -0.0029  1.0912
 7916TIP3   OH247942   3.726   2.995  10.861 -0.2924  0.1285 -0.0101
 7916TIP3    H147943   3.751   2.903  10.869  1.9516  0.6675 -0.2624
 7916TIP3    H247944   3.805   3.043  10.882 -1.7441  2.0786  1.3256
 7917TIP3   OH247945   0.243   6.707  12.218 -0.0325  0.1921  0.3127
 7917TIP3    H147946   0.227   6.613  12.229  0.4993  0.2505  1.8027
 7917TIP3    H247947   0.188   6.732  12.144  0.4184 -1.4412 -0.6386
 7918TIP3   OH247948   1.623   0.158  12.298  0.2523  0.3134  0.3287
 7918TIP3    H147949   1.668   0.113  12.370  0.4302 -0.2210 -0.1118
 7918TIP3    H247950   1.563   0.093  12.262 -2.0445  1.4586  1.8590
 7919TIP3   OH247951   7.006   6.988  11.078  0.4931  0.2204 -0.4973
 7919TIP3    H147952   7.005   7.014  11.170  2.0768  0.5018 -0.5325
 7919TIP3    H247953   6.987   7.069  11.030  0.7271  0.2952 -0.4607
 7920TIP3   OH247954   2.050   2.047  12.053  0.3127 -0.6211  0.0860
 7920TIP3    H147955   2.144   2.045  12.034  0.4168  2.1267 -0.0359
 7920TIP3    H247956   2.045   2.068  12.146 -0.0220  3.7358 -0.7297
 7921TIP3   OH247957   6.299   2.049  11.728 -0.1660 -0.0116  0.0522
 7921TIP3    H147958   6.289   2.142  11.745 -2.4733 -0.3045  0.7087
 7921TIP3    H247959   6.387   2.040  11.691 -0.1685  2.5049 -0.7508
 7922TIP3   OH247960   4.778   3.872  10.901 -0.3914 -0.3953  0.1430
 7922TIP3    H147961   4.721   3.818  10.847 -1.4692  0.8712 -0.0397
 7922TIP3    H247962   4.822   3.931  10.840  1.4651 -1.5948  0.2319
 7923TIP3   OH247963   1.730   1.722  12.049 -0.4239 -0.0195 -0.3286
 7923TIP3    H147964   1.816   1.761  12.066  0.5770 -1.7782 -1.1747
 7923TIP3    H247965   1.704   1.757  11.964 -0.1410 -0.1824 -0.4812
 7924TIP3   OH247966   1.810   1.511  11.860 -0.1726 -0.1799  0.2100
 7924TIP3    H147967   1.734   1.566  11.840 -1.9772 -1.5489  2.7454
 7924TIP3    H247968   1.884   1.573  11.862 -1.6834  1.7173  0.4770
 7925TIP3   OH247969   4.340   2.497  10.848 -0.1638 -0.4488  0.2298
 7925TIP3    H147970   4.343   2.468  10.939  1.5667 -2.1146 -0.2695
 7925TIP3    H247971   4.352   2.416  10.797 -1.2881  0.4040 -1.4896
 7926TIP3   OH247972   2.412   6.624  11.240 -0.8390 -0.4427 -0.3353
 7926TIP3    H147973   2.382   6.535  11.261  2.0727 -2.0351 -2.2599
 7926TIP3    H247974   2.507   6.617  11.235 -0.4812  2.9008 -0.3259
 7927TIP3   OH247975   2.440   5.644  11.063 -0.1118 -0.3886  0.0916
 7927TIP3    H147976   2.531   5.669  11.052  0.5842 -2.5511  0.3618
 7927TIP3    H247977   2.434   5.609  11.152 -1.2381 -0.1804  0.1198
 7928TIP3   OH247978   7.244   3.130  12.676 -0.4170  0.8035  0.2779
 7928TIP3    H147979   7.305   3.125  12.602  1.5413  0.9260  1.7948
 7928TIP3    H247980   7.293   3.176  12.744 -1.8564  0.0088  1.9231
 7929TIP3   OH247981   7.556   0.096  11.898  0.1890  0.1525 -0.3991
 7929TIP3    H147982   7.625   0.156  11.869 -2.2423  2.1116 -2.6292
 7929TIP3    H247983   7.543   0.038  11.823 -1.0060  0.2902 -0.3177
 7930TIP3   OH247984   4.818   7.142  11.044  0.0756  0.1578 -0.4218
 7930TIP3    H147985   4.864   7.226  11.049  0.4898 -0.1141  0.7259
 7930TIP3    H247986   4.760   7.142  11.121 -1.6324  0.3505 -1.6460
 7931TIP3   OH247987   2.276   2.607  12.573  0.3214 -0.1924 -0.3433
 7931TIP3    H147988   2.368   2.632  12.582 -0.1351  1.8934 -0.9521
 7931TIP3    H247989   2.228   2.689  12.584 -1.5908 -1.4678  1.5492
 7932TIP3   OH247990   0.672   3.644  13.110  0.7415  0.0492 -0.8509
 7932TIP3    H147991   0.669   3.673  13.201 -2.4491  1.0123 -1.1537
 7932TIP3    H247992   0.693   3.551  13.115  1.1691  0.2149  0.8260
 7933TIP3   OH247993   7.195   2.781  12.029 -0.0371  0.1984 -0.0370
 7933TIP3    H147994   7.208   2.833  12.108  2.1198  0.1564 -0.3160
 7933TIP3    H247995   7.278   2.736  12.015 -0.5296 -0.2079 -2.0426
 7934TIP3   OH247996   5.377   7.454  11.999 -0.2756 -0.1910  0.5033
 7934TIP3    H147997   5.465   7.419  12.013 -0.4865 -1.1177 -0.4176
 7934TIP3    H247998   5.319   7.379  12.007 -0.9075  0.2580  0.2217
 7935TIP3   OH247999   5.737   5.439  12.675  0.1365  0.2917 -0.0910
 7935TIP3    H148000   5.717   5.370  12.739 -1.0608  1.6215  1.0438
 7935TIP3    H248001   5.816   5.480  12.708  0.0723  0.3471 -0.0056
 7936TIP3   OH248002   3.470   4.757  10.969  0.1771  0.1392  0.0787
 7936TIP3    H148003   3.443   4.701  11.041  1.2459 -1.6103 -0.8164
 7936TIP3    H248004   3.525   4.825  11.009 -1.1627  0.6096  1.1757
 7937TIP3   OH248005   7.299   0.525  12.043 -0.3739 -0.6400  0.2395
 7937TIP3    H148006   7.213   0.488  12.063  0.3305 -1.8354  1.1444
 7937TIP3    H248007   7.308   0.514  11.948 -1.0662 -0.7981  0.1844
 7938TIP3   OH248008   5.640   1.355  11.828 -0.1814  0.8369 -0.5504
 7938TIP3    H148009   5.681   1.295  11.890 -0.9094  1.6998  0.8093
 7938TIP3    H248010   5.698   1.431  11.824 -0.8476  1.4004  0.2013
 7939TIP3   OH248011   0.479   5.569  12.317  0.2678 -0.1963  0.0189
 7939TIP3    H148012   0.452   5.642  12.261 -0.6450  0.1933  0.9392
 7939TIP3    H248013   0.527   5.510  12.258  0.6517  0.9270 -0.8362
 7940TIP3   OH248014   4.545   7.480  12.543 -0.2907 -0.5210 -0.5024
 7940TIP3    H148015   4.496   7.495  12.624  2.0198 -0.5875  0.9990
 7940TIP3    H248016   4.627   7.441  12.572  0.4227 -0.9799 -2.9488
 7941TIP3   OH248017   1.633   6.101  11.884 -0.2227 -0.4043 -0.9518
 7941TIP3    H148018   1.695   6.028  11.892 -1.2995 -1.1499  1.0369
 7941TIP3    H248019   1.547   6.060  11.888 -0.8566  1.0184  0.8316
 7942TIP3   OH248020   0.703   2.043  12.490  0.2576 -0.1023 -0.1570
 7942TIP3    H148021   0.787   2.089  12.496 -0.6583  1.4655  2.4228
 7942TIP3    H248022   0.703   1.985  12.566 -0.4892 -1.0176 -0.8462
 7943TIP3   OH248023   7.162   4.371  12.003 -0.0756 -0.3375 -0.1295
 7943TIP3    H148024   7.108   4.444  11.973  1.4955 -0.0740 -2.6866
 7943TIP3    H248025   7.155   4.306  11.932  1.6285 -0.9516  0.2090
 7944TIP3   OH248026   3.889   6.484  11.965 -0.0434 -0.4804  0.7382
 7944TIP3    H148027   3.805   6.527  11.947  1.0216  1.8993  0.9677
 7944TIP3    H248028   3.872   6.426  12.039 -1.9965 -1.9336 -0.7744
 7945TIP3   OH248029   2.702   2.984  11.614  0.4758 -0.2721  0.0775
 7945TIP3    H148030   2.635   2.926  11.651 -0.1129 -0.9548 -1.9286
 7945TIP3    H248031   2.670   3.072  11.630 -0.8094 -0.5914 -0.6392
 7946TIP3   OH248032   1.997   5.765  13.179 -0.1916 -0.5489 -0.5332
 7946TIP3    H148033   1.947   5.683  13.180 -1.7584  0.3861 -0.1288
 7946TIP3    H248034   1.975   5.808  13.261 -0.6365  0.9893 -1.4100
 7947TIP3   OH248035   6.775   2.569  11.674 -0.6623  0.0028  0.2749
 7947TIP3    H148036   6.848   2.508  11.668 -0.6806  0.0708 -0.7423
 7947TIP3    H248037   6.754   2.572  11.768 -1.6359 -2.7305  0.2400
 7948TIP3   OH248038   6.630   7.638  13.166 -0.4454 -0.1708 -0.2416
 7948TIP3    H148039   6.623   7.672  13.256  1.5939 -0.8134  0.2055
 7948TIP3    H248040   6.566   7.567  13.163 -1.7384  0.9201  0.1364
 7949TIP3   OH248041   3.813   1.366  12.873 -0.0022 -0.1848 -0.3974
 7949TIP3    H148042   3.794   1.453  12.838 -2.8764  0.3036  1.9968
 7949TIP3    H248043   3.779   1.306  12.808 -1.3493  0.6071 -0.4688
 7950TIP3   OH248044   0.464   5.100  11.666 -0.1893 -0.0610  0.0702
 7950TIP3    H148045   0.464   5.030  11.602 -0.7602 -0.2918  0.3185
 7950TIP3    H248046   0.533   5.077  11.728 -0.3058 -0.3490  0.0907
 7951TIP3   OH248047   5.645   2.649  11.910  0.2785  0.7473 -0.7000
 7951TIP3    H148048   5.616   2.716  11.972 -0.9603  1.1646 -1.6897
 7951TIP3    H248049   5.564   2.615  11.873  0.9654 -0.2329 -1.3268
 7952TIP3   OH248050   2.593   3.253  10.718 -0.0036  0.1349  0.1141
 7952TIP3    H148051   2.532   3.268  10.647 -0.4621  0.3107  0.5411
 7952TIP3    H248052   2.669   3.212  10.676 -1.0331 -1.5601 -0.1906
 7953TIP3   OH248053   4.636   5.964  12.813  0.1447 -0.2444 -0.2461
 7953TIP3    H148054   4.600   5.929  12.895 -0.9798 -1.0311 -1.0434
 7953TIP3    H248055   4.590   6.047  12.801 -0.5396 -0.6748 -0.6500
 7954TIP3   OH248056  -0.067   3.715  10.809 -0.0197 -0.0143 -0.4159
 7954TIP3    H148057  -0.133   3.779  10.782  0.0258 -0.0235 -0.5493
 7954TIP3    H248058  -0.117   3.639  10.838 -0.1073  0.4605  0.7286
 7955TIP3   OH248059   4.575   5.621  12.845 -0.0154 -0.0385 -0.0511
 7955TIP3    H148060   4.543   5.534  12.868 -2.6519  0.5033 -1.4074
 7955TIP3    H248061   4.511   5.655  12.783  1.5397  2.4593 -0.4072
 7956TIP3   OH248062   5.811   2.242  12.164 -0.0890 -0.4422 -0.0942
 7956TIP3    H148063   5.729   2.254  12.116  0.5492 -0.4675 -1.2129
 7956TIP3    H248064   5.861   2.181  12.111  1.3165  0.8119 -0.2827
 7957TIP3   OH248065   5.954   3.402  12.649 -0.3039 -0.3025  0.2579
 7957TIP3    H148066   6.042   3.439  12.653  0.4637 -1.8240 -1.1819
 7957TIP3    H248067   5.934   3.375  12.738  1.0332 -0.6489  0.4691
 7958TIP3   OH248068   6.718   3.579  11.564 -0.2361 -0.2968  0.0509
 7958TIP3    H148069   6.741   3.672  11.563 -1.3967  0.0195  1.1785
 7958TIP3    H248070   6.624   3.577  11.581  0.2137 -1.7315  2.9579
 7959TIP3   OH248071   6.335   6.673  12.279  0.1707 -0.2366  0.2062
 7959TIP3    H148072   6.300   6.607  12.339 -1.1979 -0.7971 -1.1476
 7959TIP3    H248073   6.409   6.629  12.237  1.8114  0.5081  2.1329
 7960TIP3   OH248074   3.465   2.230  13.375  0.0452  0.1824  0.2099
 7960TIP3    H148075   3.386   2.178  13.366  0.1200  0.1310 -0.1776
 7960TIP3    H248076   3.474   2.245  13.469  0.3803 -1.0412  0.3894
 7961TIP3   OH248077   1.969   7.689  12.132  0.2540  0.2637 -0.1265
 7961TIP3    H148078   1.980   7.643  12.215 -1.0928  1.0661  0.5274
 7961TIP3    H248079   1.883   7.660  12.100 -0.6747  2.3100  0.3456
 7962TIP3   OH248080   4.133   1.462  13.619 -0.1118  0.1153  0.8669
 7962TIP3    H148081   4.228   1.472  13.618 -0.1756  0.7860 -1.0142
 7962TIP3    H248082   4.099   1.551  13.632 -0.4986 -0.0000  0.6631
 7963TIP3   OH248083   6.400   4.804  11.192  0.1018 -0.4932  0.1641
 7963TIP3    H148084   6.377   4.833  11.104 -0.2227 -2.0619 -0.2995
 7963TIP3    H248085   6.414   4.709  11.184  1.7243 -0.4229  1.4625
 7964TIP3   OH248086   0.422   6.032  11.461  0.0240  0.0137 -0.4361
 7964TIP3    H148087   0.488   6.080  11.411 -0.8514  1.6841 -0.0731
 7964TIP3    H248088   0.338   6.058  11.421 -0.4692 -2.1275 -0.9598
 7965TIP3   OH248089   6.715   4.648  10.746  0.1653 -0.3874  0.1530
 7965TIP3    H148090   6.741   4.723  10.693 -0.2226 -0.8714 -0.7580
 7965TIP3    H248091   6.653   4.684  10.810 -1.0492 -0.1293 -1.1257
 7966TIP3   OH248092   5.925   5.144  10.729  0.1442 -0.0573 -0.0350
 7966TIP3    H148093   5.988   5.111  10.665  0.7137  0.9333  0.0049
 7966TIP3    H248094   5.953   5.106  10.812 -1.1009 -2.0509 -0.4530
 7967TIP3   OH248095   7.505   3.787  12.533  0.5844  0.0278  0.0618
 7967TIP3    H148096   7.509   3.818  12.624 -0.2011  0.7404 -0.1356
 7967TIP3    H248097   7.593   3.800  12.499  1.1305 -1.0696  0.9744
 7968TIP3   OH248098   6.105   4.145  11.068  0.1357  0.1628 -0.1881
 7968TIP3    H148099   6.175   4.107  11.014  1.4654  1.4936  0.5289
 7968TIP3    H248100   6.150   4.179  11.145 -1.4937 -0.0869  0.9349
 7969TIP3   OH248101   4.715   6.927  11.508 -0.1267 -0.5956  0.0801
 7969TIP3    H148102   4.786   6.879  11.551  0.1520 -1.8852 -1.7004
 7969TIP3    H248103   4.635   6.889  11.544  0.0815 -0.5234  0.6297
 7970TIP3   OH248104   1.165   0.176  13.198 -0.3669  0.1174  0.0341
 7970TIP3    H148105   1.151   0.088  13.163  0.8560 -0.0279 -0.1430
 7970TIP3    H248106   1.250   0.202  13.164  0.0528  0.6901  1.4442
 7971TIP3   OH248107   5.774   7.375  10.421 -0.1366 -0.3370  0.1126
 7971TIP3    H148108   5.783   7.470  10.420 -1.2682 -0.2098  0.5636
 7971TIP3    H248109   5.864   7.342  10.422  0.2738  0.7098 -0.8441
 7972TIP3   OH248110   6.370   2.452  12.623 -0.0817  0.3621 -0.2142
 7972TIP3    H148111   6.381   2.359  12.602  0.2912  0.7924 -2.0342
 7972TIP3    H248112   6.451   2.493  12.594 -0.0557  1.2110  1.0097
 7973TIP3   OH248113   5.730   6.151  13.615  0.1851  0.1339  0.0168
 7973TIP3    H148114   5.780   6.232  13.623  0.5141  0.1940 -2.0558
 7973TIP3    H248115   5.781   6.096  13.555 -1.5035 -0.3680 -1.0337
 7974TIP3   OH248116   1.532   1.482  12.090 -0.4667  0.3201 -0.7431
 7974TIP3    H148117   1.574   1.562  12.058 -0.2998 -0.0521 -1.4823
 7974TIP3    H248118   1.558   1.415  12.028 -1.3534 -0.1238 -0.6577
 7975TIP3   OH248119   2.349   3.787  10.572 -0.4672 -0.1896 -0.1920
 7975TIP3    H148120   2.319   3.801  10.482  0.4001  1.5814 -0.2396
 7975TIP3    H248121   2.416   3.854  10.586  1.5044 -2.2456  0.8452
 7976TIP3   OH248122   1.232   1.346  12.024 -0.3289 -0.3315 -0.0479
 7976TIP3    H148123   1.315   1.393  12.017 -0.2478 -0.1817  1.5294
 7976TIP3    H248124   1.207   1.354  12.116 -1.8038 -0.8788 -0.3621
 7977TIP3   OH248125   7.437   7.028  11.074 -0.0114  0.1081 -0.4116
 7977TIP3    H148126   7.446   7.105  11.130 -1.0973  1.3194 -1.8309
 7977TIP3    H248127   7.522   7.018  11.033  0.9050 -0.9922  1.6230
 7978TIP3   OH248128   5.559   2.798  10.945  0.4861 -0.1688 -0.0031
 7978TIP3    H148129   5.576   2.777  11.037 -0.1130  1.4622  0.5213
 7978TIP3    H248130   5.603   2.729  10.896 -1.5804 -2.7685  1.5208
 7979TIP3   OH248131   7.061   2.839  11.231  0.0820 -0.4337  0.4905
 7979TIP3    H148132   7.012   2.786  11.293 -0.4280  0.3461  0.7710
 7979TIP3    H248133   7.096   2.911  11.284 -0.9647  0.6443 -0.2466
 7980TIP3   OH248134   7.513   6.324  12.952  0.2614  0.2575 -0.2124
 7980TIP3    H148135   7.555   6.408  12.970 -0.0310  0.1092  1.2917
 7980TIP3    H248136   7.564   6.260  13.002 -0.4709 -0.2193 -0.0502
 7981TIP3   OH248137   2.944   3.950  13.406 -0.3396  0.2946  0.2268
 7981TIP3    H148138   2.985   3.888  13.466 -0.6450 -0.4189 -0.2870
 7981TIP3    H248139   2.920   3.898  13.330 -3.1467  0.4232  0.9121
 7982TIP3   OH248140   4.998   4.820  10.403 -0.2581 -0.0018 -0.0519
 7982TIP3    H148141   5.091   4.804  10.420 -0.5200 -0.7678  0.7605
 7982TIP3    H248142   4.953   4.774  10.473 -1.3006 -0.5987 -1.0769
 7983TIP3   OH248143   6.509   2.014  12.158 -0.5851  0.0410 -0.1978
 7983TIP3    H148144   6.494   1.930  12.202  1.4144 -0.7695 -0.9549
 7983TIP3    H248145   6.512   2.078  12.229  0.8430 -0.9861  0.7242
 7984TIP3   OH248146   4.842   5.169  12.653  0.3923 -0.2882  0.1729
 7984TIP3    H148147   4.898   5.118  12.595  0.4222 -0.5316  0.4147
 7984TIP3    H248148   4.784   5.105  12.693  0.4640 -0.1384  0.5192
 7985TIP3   OH248149   4.074   0.601  10.920 -0.1429  0.7547  0.2798
 7985TIP3    H148150   4.039   0.592  11.008 -0.9729  2.1985  0.1433
 7985TIP3    H248151   4.161   0.562  10.923 -0.2676  0.5612  1.6597
 7986TIP3   OH248152   7.544   5.430  10.869  0.4739 -0.4678 -0.5954
 7986TIP3    H148153   7.451   5.412  10.859 -0.0340 -0.5840  3.0995
 7986TIP3    H248154   7.548   5.513  10.916  2.2928  0.0950 -1.6507
 7987TIP3   OH248155   2.892   2.138  11.285  0.4673 -0.3587  0.2251
 7987TIP3    H148156   2.847   2.195  11.347 -1.6706 -1.3574 -0.3164
 7987TIP3    H248157   2.939   2.075  11.339 -2.0075 -1.7098  0.9376
 7988TIP3   OH248158   6.390   4.460  11.478  0.0246  0.5140 -0.1174
 7988TIP3    H148159   6.418   4.444  11.388 -1.7784 -1.0006 -0.4654
 7988TIP3    H248160   6.352   4.548  11.475  0.4824  0.7027 -0.6979
 7989TIP3   OH248161   6.730   7.418  10.453  0.2309 -0.1118 -0.8204
 7989TIP3    H148162   6.657   7.360  10.474  0.3307 -0.1316 -0.5280
 7989TIP3    H248163   6.805   7.379  10.497  0.0479  0.9490  0.4978
 7990TIP3   OH248164   0.855   2.200  11.711 -0.0431 -0.1714  0.6739
 7990TIP3    H148165   0.855   2.282  11.762  0.3495 -0.0033  0.4089
 7990TIP3    H248166   0.768   2.163  11.726 -0.3547  0.4710  0.5143
 7991TIP3   OH248167   3.656   0.568  12.185 -0.3540  0.3508  0.4999
 7991TIP3    H148168   3.595   0.500  12.213 -0.7238  0.6496  0.4351
 7991TIP3    H248169   3.742   0.527  12.189 -0.4233  0.2988  1.8086
 7992TIP3   OH248170   1.679   6.187  10.995 -0.3025  0.0086  0.5295
 7992TIP3    H148171   1.756   6.243  10.988 -0.1818 -0.0600  1.2063
 7992TIP3    H248172   1.714   6.103  11.026  0.0552 -1.6828 -3.7187
 7993TIP3   OH248173   0.208   0.748  11.118  0.1485 -0.6358 -0.5889
 7993TIP3    H148174   0.177   0.734  11.029 -0.8937  0.8579 -0.4948
 7993TIP3    H248175   0.298   0.779  11.107 -0.0060 -0.3637 -1.1294
 7994TIP3   OH248176   0.169   2.860  12.686  0.3130 -0.0143 -0.1917
 7994TIP3    H148177   0.180   2.857  12.781  0.7294  1.5462 -0.1706
 7994TIP3    H248178   0.076   2.843  12.672  0.0848  0.5732  0.5535
 7995TIP3   OH248179   2.867   5.530  12.715 -0.1959  0.6391 -0.2372
 7995TIP3    H148180   2.859   5.598  12.782  0.5687  0.8531 -0.3595
 7995TIP3    H248181   2.789   5.542  12.660 -1.0852  0.1651  0.8614
 7996TIP3   OH248182   3.029   6.885  13.319  0.0832 -0.4701  0.4468
 7996TIP3    H148183   2.951   6.879  13.373 -0.7066 -0.0286 -0.6139
 7996TIP3    H248184   2.997   6.885  13.229  1.2676  0.0797 -0.0058
 7997TIP3   OH248185   0.007   6.453  11.021 -0.7077  0.4709 -0.1194
 7997TIP3    H148186  -0.025   6.367  11.051 -0.6298  1.0154  1.6664
 7997TIP3    H248187   0.102   6.444  11.022 -0.7072  0.4608 -0.2947
 7998TIP3   OH248188   2.116   5.085  12.377  0.3466  0.2871 -0.5147
 7998TIP3    H148189   2.022   5.075  12.393  0.0452  0.4369 -2.0498
 7998TIP3    H248190   2.147   5.139  12.450 -0.7006  0.0360  0.1438
 7999TIP3   OH248191   1.943   6.515  12.113  0.0990  0.4314  0.2246
 7999TIP3    H148192   1.877   6.446  12.104  0.2184  0.0238  2.1349
 7999TIP3    H248193   1.897   6.595  12.088 -1.1971  0.1812  1.6359
 8000TIP3   OH248194   3.357   6.953  11.113 -0.6562 -0.0306 -0.2533
 8000TIP3    H148195   3.310   6.983  11.036 -0.0428  3.6657  0.6112
 8000TIP3    H248196   3.290   6.945  11.181 -0.9071 -1.3520 -0.6285
 8001TIP3   OH248197   1.460   0.828  11.497  0.2918 -0.9044 -0.5093
 8001TIP3    H148198   1.466   0.838  11.402  0.9389  1.2843 -0.3036
 8001TIP3    H248199   1.551   0.826  11.527  0.0922 -1.4717  0.0901
 8002TIP3   OH248200   7.336   0.447  11.772  0.4080  0.3759  0.0097
 8002TIP3    H148201   7.305   0.357  11.778 -0.0675  0.5409  0.0747
 8002TIP3    H248202   7.294   0.482  11.694  1.1844  0.3193 -0.4439
 8003TIP3   OH248203   6.179   0.054  10.707 -0.2247 -0.0701  0.4218
 8003TIP3    H148204   6.169   0.008  10.790 -1.3032 -1.0909 -0.2541
 8003TIP3    H248205   6.107   0.117  10.705 -0.6723 -0.5874 -0.0716
 8004TIP3   OH248206   6.503   3.056  12.828 -0.4827 -0.5755 -0.5203
 8004TIP3    H148207   6.425   3.111  12.829 -0.2771 -0.2875  0.1102
 8004TIP3    H248208   6.525   3.044  12.921  1.5034  1.1691 -0.6982
 8005TIP3   OH248209   5.812   6.003  13.418 -0.6729  0.1620  0.5445
 8005TIP3    H148210   5.901   6.005  13.382 -0.8202  0.4248  0.1926
 8005TIP3    H248211   5.776   5.920  13.387 -0.4745 -0.0495  0.8735
 8006TIP3   OH248212   2.317   3.134  11.119 -0.1998  0.1132  0.4161
 8006TIP3    H148213   2.391   3.194  11.110 -0.8044  1.2249  2.2067
 8006TIP3    H248214   2.341   3.058  11.066  1.8235  0.7828  0.2668
 8007TIP3   OH248215   3.836   4.706  12.913  0.2565 -0.1735  0.7043
 8007TIP3    H148216   3.915   4.684  12.865 -1.2200 -0.4024 -1.7519
 8007TIP3    H248217   3.830   4.639  12.981  2.0736 -0.1916  0.9094
 8008TIP3   OH248218   3.458   1.894  11.690  0.1576 -0.1711  0.6586
 8008TIP3    H148219   3.395   1.947  11.738  1.2891  0.7876  1.1329
 8008TIP3    H248220   3.439   1.912  11.597  1.7315  2.6673  0.7700
 8009TIP3   OH248221   0.878   1.207  11.467  0.0912 -0.0048 -0.3366
 8009TIP3    H148222   0.884   1.128  11.521 -2.6283 -0.4140 -0.5188
 8009TIP3    H248223   0.887   1.280  11.530 -0.0438 -0.4576  0.2122
 8010TIP3   OH248224   1.922   6.364  12.788  0.4761  0.0179  0.5225
 8010TIP3    H148225   1.921   6.366  12.884  0.2616  0.8592  0.5153
 8010TIP3    H248226   1.850   6.422  12.762  2.7135  2.7074 -0.1267
 8011TIP3   OH248227   5.230   5.886  13.253 -0.2902 -0.0991  0.2517
 8011TIP3    H148228   5.176   5.958  13.285 -0.4348  0.3086 -0.8776
 8011TIP3    H248229   5.282   5.858  13.329  0.2337  1.6110  0.5499
 8012TIP3   OH248230   1.226   6.368  12.901 -0.3264 -0.1629 -1.1305
 8012TIP3    H148231   1.293   6.300  12.907  0.7398  0.9803  1.2672
 8012TIP3    H248232   1.272   6.444  12.865 -0.5916  0.3140 -0.4780
 8013TIP3   OH248233   1.472   4.497  12.007  0.0425  0.1053 -0.2096
 8013TIP3    H148234   1.377   4.486  12.004 -0.0466  0.7027  0.1968
 8013TIP3    H248235   1.485   4.580  12.053  0.8333 -1.4302  2.6124
 8014TIP3   OH248236   5.457   7.058  12.065  0.7826  0.5820  0.1294
 8014TIP3    H148237   5.461   7.031  12.157 -1.1369  3.2154  1.1095
 8014TIP3    H248238   5.521   7.129  12.059  1.1973  0.1450 -0.7014
 8015TIP3   OH248239   4.532   4.478  10.673  0.1584 -0.1756 -0.5987
 8015TIP3    H148240   4.565   4.474  10.583  0.9455 -0.9818 -0.2846
 8015TIP3    H248241   4.593   4.536  10.719  0.8586 -1.2517 -0.1432
 8016TIP3   OH248242   4.935   1.591  11.579 -0.2180  0.6371  0.4386
 8016TIP3    H148243   4.979   1.511  11.605  1.0979  0.7457 -1.3124
 8016TIP3    H248244   4.852   1.561  11.542 -0.2683  0.1877  0.9014
 8017TIP3   OH248245   7.010   6.645  10.291  0.0258  0.0332  0.3554
 8017TIP3    H148246   7.092   6.597  10.305 -0.2825 -0.8871 -0.8419
 8017TIP3    H248247   7.035   6.719  10.236  0.0058 -0.5128 -0.4165
 8018TIP3   OH248248   7.025   6.500  11.181  0.1229 -0.1947  0.0162
 8018TIP3    H148249   7.083   6.526  11.253 -0.4003  2.8806 -0.5045
 8018TIP3    H248250   6.937   6.518  11.214 -0.2206 -0.2648 -0.8458
 8019TIP3   OH248251   5.204   2.381  11.709  0.0137  0.4388 -0.0674
 8019TIP3    H148252   5.189   2.304  11.654  2.1761 -0.2615  0.2264
 8019TIP3    H248253   5.116   2.414  11.728 -0.9497 -1.5763 -0.7091
 8020TIP3   OH248254   7.117   6.241  10.656  0.3018  0.3474  0.3307
 8020TIP3    H148255   7.151   6.167  10.706  0.5730  0.1206 -0.1819
 8020TIP3    H248256   7.151   6.227  10.568 -0.2746  0.6731  0.0552
 8021TIP3   OH248257   6.885   2.112  10.518  0.2277 -1.2157 -0.3858
 8021TIP3    H148258   6.856   2.121  10.608  0.0418  1.6784 -0.6402
 8021TIP3    H248259   6.980   2.101  10.524  0.0708 -2.3181  0.1870
 8022TIP3   OH248260   3.613   1.703  12.188 -0.4599 -0.6835 -0.0763
 8022TIP3    H148261   3.576   1.777  12.140  0.2814 -0.5643 -0.4747
 8022TIP3    H248262   3.683   1.740  12.241  0.5422 -1.2190 -0.9841
 8023TIP3   OH248263   2.422   3.934  12.053  0.2259  0.1270  0.0861
 8023TIP3    H148264   2.440   3.870  11.984  0.5296  0.9200 -0.5816
 8023TIP3    H248265   2.331   3.919  12.076 -0.2818  0.7136 -1.4181
 8024TIP3   OH248266   0.093   2.881  10.963  0.2884 -0.1555  0.0906
 8024TIP3    H148267   0.073   2.975  10.961 -1.4261 -0.4329  1.4355
 8024TIP3    H248268   0.166   2.874  11.023  0.6738  0.3535 -0.3115
 8025TIP3   OH248269   6.303   6.629  10.721 -0.4957 -0.0080 -0.2388
 8025TIP3    H148270   6.299   6.709  10.670  0.0554  0.4652  0.4527
 8025TIP3    H248271   6.381   6.638  10.776 -1.7985  0.1287  1.7133
 8026TIP3   OH248272   2.992   3.752  11.745  0.4412  0.1296 -0.2150
 8026TIP3    H148273   3.005   3.724  11.654 -0.3725  1.1120 -0.6554
 8026TIP3    H248274   3.073   3.798  11.767  0.2561  0.7459 -0.7876
 8027TIP3   OH248275   5.850   4.088  11.482  0.6829  0.1387 -0.3744
 8027TIP3    H148276   5.930   4.083  11.430 -1.1567  0.6696 -3.4496
 8027TIP3    H248277   5.845   4.179  11.510  0.0216  0.6924 -2.1916
 8028TIP3   OH248278   6.349   4.633  12.422  0.4511  0.6479  0.0544
 8028TIP3    H148279   6.423   4.574  12.415  0.7577  1.1426 -1.0647
 8028TIP3    H248280   6.352   4.664  12.513  0.8515 -0.3023  0.3754
 8029TIP3   OH248281   3.386   4.161  11.363 -0.3118  0.1301  0.0872
 8029TIP3    H148282   3.415   4.202  11.445 -0.5045  1.2812 -0.4050
 8029TIP3    H248283   3.460   4.171  11.303 -0.6971  0.5973 -0.3183
 8030TIP3   OH248284   3.365   5.633  11.714 -0.1198  0.4094  0.1891
 8030TIP3    H148285   3.320   5.682  11.646  0.1892 -0.3973 -0.6165
 8030TIP3    H248286   3.427   5.695  11.752 -3.2552  2.2728  2.8325
 8031TIP3   OH248287   5.470   1.960  12.708  0.1104 -0.3887 -0.9307
 8031TIP3    H148288   5.455   1.975  12.801 -2.5363 -1.8108 -1.0549
 8031TIP3    H248289   5.445   2.043  12.666 -0.2338 -0.2718 -0.5005
 8032TIP3   OH248290   6.046   0.577  11.293 -0.2196 -0.4086 -0.0603
 8032TIP3    H148291   5.988   0.652  11.307 -0.2061 -0.5590  0.9159
 8032TIP3    H248292   6.134   0.616  11.292 -0.3269 -0.1487 -1.7980
 8033TIP3   OH248293   7.483   5.706  12.733  0.6815 -0.1519 -0.6758
 8033TIP3    H148294   7.528   5.770  12.679 -0.5343  1.1947 -0.1367
 8033TIP3    H248295   7.436   5.650  12.671  0.0311  0.8129 -1.0717
 8034TIP3   OH248296   3.656   1.895  11.014  1.1817 -0.2760  0.7289
 8034TIP3    H148297   3.666   1.861  10.925  2.4801 -1.7771  1.3966
 8034TIP3    H248298   3.651   1.990  11.003  2.2614 -0.3729 -0.8771
 8035TIP3   OH248299   5.526   4.217  11.265 -0.2773  0.5474  0.0682
 8035TIP3    H148300   5.489   4.223  11.177  1.3745 -0.9289 -0.7970
 8035TIP3    H248301   5.590   4.147  11.259  0.9394  1.4024  2.0942
 8036TIP3   OH248302   6.508   7.611  11.100 -0.4520  0.0865  0.9163
 8036TIP3    H148303   6.456   7.591  11.022  2.9145 -1.4328 -1.1577
 8036TIP3    H248304   6.496   7.705  11.113 -0.6072  0.5340 -1.8811
 8037TIP3   OH248305   6.288   6.065  13.212 -0.5789 -0.1939 -0.1416
 8037TIP3    H148306   6.359   6.003  13.228 -1.7049 -1.1451  1.3542
 8037TIP3    H248307   6.328   6.151  13.224 -0.2286 -0.7347  3.4707
 8038TIP3   OH248308   4.024   3.131  10.569  0.4431 -0.5457  0.6415
 8038TIP3    H148309   4.028   3.103  10.478 -0.4704 -0.8547  0.6898
 8038TIP3    H248310   4.106   3.100  10.608  1.3805  0.6067 -0.3463
 8039TIP3   OH248311   3.263   0.021  10.942 -0.2472 -0.2476  0.0929
 8039TIP3    H148312   3.290   0.059  11.026 -1.5793  0.4296  0.2378
 8039TIP3    H248313   3.270  -0.073  10.956  0.1243 -0.1336  0.7656
 8040TIP3   OH248314   1.833   3.688  13.213  0.1490  0.0648  0.1150
 8040TIP3    H148315   1.859   3.599  13.188  0.0211  0.2072 -0.5480
 8040TIP3    H248316   1.761   3.709  13.154  0.1231  0.5763  0.3290
 8041TIP3   OH248317   2.572   5.648  11.861 -0.3489 -0.9686  0.2325
 8041TIP3    H148318   2.553   5.554  11.868  2.3413 -1.6283  0.0311
 8041TIP3    H248319   2.668   5.652  11.860 -0.4058  1.7489 -0.5822
 8042TIP3   OH248320   0.833   4.877  10.931  0.8488 -0.1300 -0.0992
 8042TIP3    H148321   0.738   4.886  10.938  0.7713 -0.7866 -0.2748
 8042TIP3    H248322   0.867   4.964  10.955  0.1173  0.7936 -2.1552
 8043TIP3   OH248323   2.411   5.324  11.630  0.3335 -0.0694 -0.3789
 8043TIP3    H148324   2.503   5.303  11.647  0.2223 -1.2937 -1.2185
 8043TIP3    H248325   2.366   5.240  11.630 -0.7887  0.5060 -0.0813
 8044TIP3   OH248326   3.217   4.470  11.868  0.2486 -0.4100  0.3440
 8044TIP3    H148327   3.166   4.458  11.788  0.4552 -1.7242  0.3816
 8044TIP3    H248328   3.231   4.381  11.901 -2.3281  0.1151  3.4502
 8045TIP3   OH248329   3.182   2.756  11.879  0.2761  0.2461 -0.1637
 8045TIP3    H148330   3.202   2.750  11.786 -1.8318 -0.6240 -0.6110
 8045TIP3    H248331   3.248   2.701  11.922 -0.0875 -1.1992 -1.3843
 8046TIP3   OH248332   1.942   0.202  12.510 -0.3147 -0.4118  0.8794
 8046TIP3    H148333   1.916   0.118  12.473  0.3965 -0.9352  1.5213
 8046TIP3    H248334   1.913   0.197  12.602 -2.3553  0.9904  0.3896
 8047TIP3   OH248335   4.265   7.348  10.940 -1.2759 -0.1177  0.0218
 8047TIP3    H148336   4.254   7.437  10.907 -0.0844  0.1001  0.1845
 8047TIP3    H248337   4.184   7.330  10.989 -2.1314  0.3374 -1.1925
 8048TIP3   OH248338   0.067   2.422  12.056  0.2817  0.1932  0.6654
 8048TIP3    H148339   0.012   2.477  12.001  0.5754 -1.4763 -1.4311
 8048TIP3    H248340   0.135   2.481  12.089  1.4828  0.9531 -2.6895
 8049TIP3   OH248341   7.571   7.147  10.690 -0.3276  0.8339 -0.7277
 8049TIP3    H148342   7.655   7.121  10.652 -0.4898 -0.4368 -0.2595
 8049TIP3    H248343   7.575   7.116  10.780 -1.1153  1.2048 -0.5540
 8050TIP3   OH248344   5.084   3.089  11.925 -0.3790  0.0003 -0.0863
 8050TIP3    H148345   5.039   3.169  11.898 -2.1506 -0.3368  1.6361
 8050TIP3    H248346   5.163   3.120  11.969 -0.0602  0.7085 -1.1271
 8051TIP3   OH248347   1.161   2.411  11.879  0.0431  0.0665 -0.6015
 8051TIP3    H148348   1.219   2.426  11.954  0.3808  1.7631 -1.1666
 8051TIP3    H248349   1.179   2.321  11.852  1.0261 -0.0570  0.3979
 8052TIP3   OH248350   5.922   1.559  12.331 -0.0613 -0.4574  0.2623
 8052TIP3    H148351   5.980   1.524  12.264 -0.1005  0.2286 -0.1330
 8052TIP3    H248352   5.874   1.482  12.364 -0.7769 -0.6742 -1.2046
 8053TIP3   OH248353   5.290   0.695  13.329  0.1139  0.1742  0.2386
 8053TIP3    H148354   5.345   0.769  13.303 -0.6539  0.8933  0.6028
 8053TIP3    H248355   5.227   0.733  13.390 -1.0505 -0.5384 -0.4850
 8054TIP3   OH248356   0.114   1.587  11.736 -0.0050  0.3606  0.6626
 8054TIP3    H148357   0.165   1.506  11.726 -1.5534 -0.7338  1.3176
 8054TIP3    H248358   0.046   1.581  11.669  0.3758  1.5603  0.1386
 8055TIP3   OH248359   2.066   2.193  10.258 -0.0271 -0.0081  0.0651
 8055TIP3    H148360   2.106   2.131  10.319  1.3166  2.0031  1.3228
 8055TIP3    H248361   2.121   2.188  10.180  0.0012 -0.4656  0.1084
 8056TIP3   OH248362   6.645   7.032  10.743 -0.4869 -0.4426  0.3315
 8056TIP3    H148363   6.712   6.968  10.766 -1.9321 -2.5687 -1.0268
 8056TIP3    H248364   6.670   7.063  10.655  0.2629  1.0411  1.0169
 8057TIP3   OH248365   3.468   5.872  11.301 -0.6325 -0.2433 -0.9030
 8057TIP3    H148366   3.508   5.807  11.357  1.1528  0.9067 -0.7669
 8057TIP3    H248367   3.540   5.929  11.275 -1.8831  0.8395 -2.1726
 8058TIP3   OH248368   2.113   7.542  10.964 -0.0990 -0.0080 -0.2968
 8058TIP3    H148369   2.088   7.500  10.881 -2.4588 -0.1845  0.4275
 8058TIP3    H248370   2.119   7.635  10.943  3.3841 -0.3733 -1.5073
 8059TIP3   OH248371   5.302   3.084  12.088 -0.0262 -0.1745 -0.1781
 8059TIP3    H148372   5.293   2.990  12.104  0.7642 -0.1229  0.6831
 8059TIP3    H248373   5.381   3.109  12.137  0.0924  0.8318 -0.8540
 8060TIP3   OH248374   6.308   7.057  13.226  0.3544  0.2563  0.2938
 8060TIP3    H148375   6.398   7.088  13.242  1.0258 -0.5619 -1.5492
 8060TIP3    H248376   6.268   7.126  13.173  0.7503 -0.4612 -0.9845
 8061TIP3   OH248377   0.753   4.964  11.576 -0.6248 -0.0957 -0.0614
 8061TIP3    H148378   0.847   4.977  11.566 -0.4852 -0.6689  0.4488
 8061TIP3    H248379   0.720   5.051  11.600  0.0578 -0.2886  1.7167
 8062TIP3   OH248380   0.437   4.673  11.365  1.0656 -0.1640  0.6587
 8062TIP3    H148381   0.389   4.600  11.404  0.4931  0.2656  0.7651
 8062TIP3    H248382   0.428   4.659  11.270  0.3970  0.1217  0.6740
 8063TIP3   OH248383   1.589   5.943  12.378  0.4132 -0.4371 -0.0297
 8063TIP3    H148384   1.510   5.909  12.419 -0.9304  0.9825 -1.2862
 8063TIP3    H248385   1.557   5.994  12.303  2.5108  0.3137 -0.4888
 8064TIP3   OH248386   5.406   0.579  11.883  0.6124 -0.0678 -0.2048
 8064TIP3    H148387   5.352   0.514  11.837 -2.7667  0.9484  2.0121
 8064TIP3    H248388   5.442   0.531  11.958 -0.3737  0.1353  0.4119
 8065TIP3   OH248389   0.357   4.963  12.085  0.3165 -0.0684 -0.2325
 8065TIP3    H148390   0.423   4.902  12.054 -0.2807 -1.2226  0.6599
 8065TIP3    H248391   0.386   4.987  12.173  0.0062  0.1226 -0.1803
 8066TIP3   OH248392   4.307   2.174  11.903 -0.4024 -0.4715  0.8389
 8066TIP3    H148393   4.323   2.163  11.997 -0.3714 -0.0641  0.8853
 8066TIP3    H248394   4.334   2.091  11.864 -0.3095 -0.6027  1.1784
 8067TIP3   OH248395   2.055   4.906  12.105 -0.1822 -0.1377 -0.1703
 8067TIP3    H148396   2.133   4.895  12.051 -0.1124 -0.4295 -0.0144
 8067TIP3    H248397   2.063   4.838  12.172 -0.3497  0.1137  0.1083
 8068TIP3   OH248398   6.606   0.151  11.678  0.0561 -0.5614 -0.0857
 8068TIP3    H148399   6.606   0.072  11.625 -1.1637 -0.0543 -0.9082
 8068TIP3    H248400   6.633   0.123  11.765  1.8155 -1.4701 -0.8797
 8069TIP3   OH248401   1.308   1.697  11.996  0.2569 -0.3445  0.1644
 8069TIP3    H148402   1.351   1.772  12.037  0.6428  0.4740 -1.6437
 8069TIP3    H248403   1.239   1.671  12.058 -1.3599  2.8971 -0.0637
 8070TIP3   OH248404   7.474   5.566  10.352 -0.1823  0.2349  0.6765
 8070TIP3    H148405   7.543   5.555  10.418 -0.7896  1.7864  1.6194
 8070TIP3    H248406   7.408   5.501  10.376  0.2055 -0.1308  0.7702
 8071TIP3   OH248407   6.140   5.291  11.448 -0.0774  0.2458  0.0490
 8071TIP3    H148408   6.173   5.207  11.416  1.6273  0.8938 -0.0140
 8071TIP3    H248409   6.095   5.329  11.373 -0.7797 -0.5612  0.0488
 8072TIP3   OH248410   1.740   2.363  11.494  0.2973  0.0645  0.0536
 8072TIP3    H148411   1.655   2.344  11.534  0.4922 -1.4055 -0.1607
 8072TIP3    H248412   1.768   2.444  11.535 -0.8040  0.0961  0.7941
 8073TIP3   OH248413   7.588   5.975  11.251 -0.0476  0.0685  0.1921
 8073TIP3    H148414   7.520   6.037  11.277  1.3727  1.0268  1.8457
 8073TIP3    H248415   7.583   5.905  11.315  0.5779  0.2074  0.4037
 8074TIP3   OH248416   3.505   3.903  12.314  0.0611 -0.3066 -0.3030
 8074TIP3    H148417   3.556   3.931  12.237  1.2272  0.1782  0.6005
 8074TIP3    H248418   3.569   3.856  12.369 -0.0482  1.5715  1.5488
 8075TIP3   OH248419   2.748   1.303  13.419  0.1423  0.2040  0.3914
 8075TIP3    H148420   2.744   1.399  13.420 -0.5512  0.1825 -0.0216
 8075TIP3    H248421   2.672   1.276  13.369  1.2261 -0.5155 -0.9389
 8076TIP3   OH248422   4.997   1.371  12.108  0.0960 -0.1217  0.2558
 8076TIP3    H148423   5.092   1.386  12.112  0.1404 -0.1947 -0.3978
 8076TIP3    H248424   4.961   1.422  12.180  0.5445  0.6376 -0.0442
 8077TIP3   OH248425   0.661   4.023  12.932 -0.5711  0.2183 -0.0266
 8077TIP3    H148426   0.574   4.028  12.892 -0.1678 -1.1746 -1.1691
 8077TIP3    H248427   0.718   4.074  12.874 -0.1867 -0.8922 -0.6459
 8078TIP3   OH248428   3.937   6.946  11.649 -0.5131  0.4380 -0.6334
 8078TIP3    H148429   3.952   6.877  11.714  1.3953 -1.3566 -2.7836
 8078TIP3    H248430   3.852   6.924  11.610  0.3453 -1.1879 -1.7190
 8079TIP3   OH248431   3.842   5.152  11.936 -0.4995  0.2709 -0.4209
 8079TIP3    H148432   3.838   5.069  11.984 -2.0384  1.5476  1.8612
 8079TIP3    H248433   3.928   5.189  11.959 -0.9529  0.5613  0.8682
 8080TIP3   OH248434   2.005   6.636  11.045  0.2223  0.2848 -0.2652
 8080TIP3    H148435   1.939   6.702  11.022 -0.6586 -1.0424 -1.8119
 8080TIP3    H248436   2.048   6.616  10.962  1.3974 -0.1304  0.4265
 8081TIP3   OH248437   4.668   1.202  10.586  0.0362  0.2903 -0.0929
 8081TIP3    H148438   4.616   1.281  10.593 -0.1630  0.0346  2.2944
 8081TIP3    H248439   4.663   1.162  10.673  0.3568 -2.2068 -1.1325
 8082TIP3   OH248440   3.655   4.051  12.113  0.3257 -0.2901 -0.2404
 8082TIP3    H148441   3.620   3.998  12.042 -0.7559 -0.4867  0.4267
 8082TIP3    H248442   3.608   4.134  12.108  0.3332 -0.2557  0.1644
 8083TIP3   OH248443   2.010   3.171  12.941 -0.0342  0.7123  0.3533
 8083TIP3    H148444   2.070   3.229  12.894  3.0943 -0.2359  2.8058
 8083TIP3    H248445   1.980   3.223  13.016 -0.1147  0.3223  0.5943
 8084TIP3   OH248446   0.549   2.422  10.587  0.4343  0.0850  0.1964
 8084TIP3    H148447   0.468   2.454  10.547 -0.6755 -1.6898  0.9245
 8084TIP3    H248448   0.571   2.487  10.653 -0.9979  0.0801  0.7089
 8085TIP3   OH248449   6.551   5.602  11.247 -0.2483 -0.2635  0.0019
 8085TIP3    H148450   6.609   5.640  11.181 -0.2621 -2.1927 -1.2037
 8085TIP3    H248451   6.593   5.622  11.331 -0.2538  2.2806 -0.5112
 8086TIP3   OH248452   7.248   7.375  11.501 -0.6762  0.0901 -0.1175
 8086TIP3    H148453   7.212   7.308  11.558 -0.8518  1.6259  1.6710
 8086TIP3    H248454   7.195   7.453  11.519 -0.4414  0.7626 -2.0620
 8087TIP3   OH248455   2.265   5.536  12.802 -0.2660 -0.0853  0.3048
 8087TIP3    H148456   2.243   5.590  12.878 -1.1046 -0.5807  0.4275
 8087TIP3    H248457   2.361   5.531  12.802 -0.1073  2.0271 -0.1549
 8088TIP3   OH248458   2.977   3.503  12.464  0.0566  0.0142 -0.0708
 8088TIP3    H148459   2.974   3.482  12.557 -1.9698 -0.1617 -0.1373
 8088TIP3    H248460   3.062   3.545  12.451  1.2588 -1.8010  1.4393
 8089TIP3   OH248461   4.255   0.323  11.681  0.4694 -0.0492  0.3316
 8089TIP3    H148462   4.198   0.333  11.757  0.3147 -1.7413  0.4869
 8089TIP3    H248463   4.304   0.242  11.698  1.9705  0.6550 -0.4088
 8090TIP3   OH248464   4.930   2.236  12.231  0.1066 -0.3122  0.1578
 8090TIP3    H148465   4.955   2.328  12.240  1.9192 -0.7697  0.2608
 8090TIP3    H248466   4.913   2.206  12.320 -0.6689 -0.0350  0.1053
 8091TIP3   OH248467   4.406   7.102  11.415  0.4329  0.5146 -0.1424
 8091TIP3    H148468   4.440   7.170  11.473 -1.6734  2.2165 -0.7335
 8091TIP3    H248469   4.313   7.096  11.438  0.2872 -1.1978 -1.0567
 8092TIP3   OH248470   2.594   1.387  12.376  0.0782 -0.1325 -0.3414
 8092TIP3    H148471   2.663   1.325  12.396  1.1466  0.9644 -0.4648
 8092TIP3    H248472   2.528   1.373  12.443  0.5031 -1.0728 -0.1053
 8093TIP3   OH248473   0.131   7.608  10.630  0.0877  0.2564  0.2539
 8093TIP3    H148474   0.163   7.519  10.612 -1.1364  0.1817 -1.8891
 8093TIP3    H248475   0.048   7.594  10.676 -1.6315  0.0746 -2.6379
 8094TIP3   OH248476   1.611   0.660  12.008 -0.1786 -0.2351  0.0673
 8094TIP3    H148477   1.652   0.624  12.087 -0.7790 -2.0279 -0.3938
 8094TIP3    H248478   1.661   0.623  11.936 -1.5228 -1.1055 -0.4539
 8095TIP3   OH248479   6.883   4.251  10.989  0.3038  0.6199  0.0003
 8095TIP3    H148480   6.877   4.346  10.979 -1.1042  0.5821  0.2552
 8095TIP3    H248481   6.804   4.218  10.946 -0.1546 -0.3078  1.5100
 8096TIP3   OH248482   3.407   7.575  11.651 -0.1371  0.0578 -0.4530
 8096TIP3    H148483   3.443   7.663  11.643 -3.0452  1.2479 -1.8685
 8096TIP3    H248484   3.378   7.552  11.563 -0.8405 -1.6914  0.1773
 8097TIP3   OH248485   3.533   1.643  11.865 -0.3871 -0.2561  0.1328
 8097TIP3    H148486   3.497   1.633  11.777  0.1202 -1.1611  0.0086
 8097TIP3    H248487   3.539   1.737  11.879  0.7955 -0.0838 -1.3381
 8098TIP3   OH248488   6.637   3.724  13.032  0.4401  0.0768 -0.3119
 8098TIP3    H148489   6.550   3.762  13.044  0.7426  0.8029 -0.3536
 8098TIP3    H248490   6.665   3.698  13.120 -0.2486 -1.1481 -0.4367
 8099TIP3   OH248491   0.663   6.592  10.867 -0.0931 -0.1140  0.1624
 8099TIP3    H148492   0.662   6.611  10.773  2.1602  2.4032  0.5187
 8099TIP3    H248493   0.660   6.496  10.872  0.2761 -0.3500 -2.4727
 8100TIP3   OH248494   5.471   2.462  12.835 -0.1003 -0.1639 -0.2233
 8100TIP3    H148495   5.561   2.488  12.853  0.2598 -1.2294 -0.4103
 8100TIP3    H248496   5.423   2.544  12.824  0.8705  0.4038 -0.2364
 8101TIP3   OH248497   1.274   1.841  12.916  0.2905 -0.2903  0.5065
 8101TIP3    H148498   1.221   1.802  12.986 -0.9811 -0.5485 -0.5598
 8101TIP3    H248499   1.310   1.921  12.956 -0.1270 -0.6000  1.5571
 8102TIP3   OH248500   3.370   2.027  10.828 -0.0400  0.1648  0.9088
 8102TIP3    H148501   3.447   1.975  10.847  0.6205  0.0359 -1.7780
 8102TIP3    H248502   3.307   1.965  10.790  0.4615  1.0745 -1.5775
 8103TIP3   OH248503   4.543   2.594  11.489  0.2307 -0.2311  0.2614
 8103TIP3    H148504   4.551   2.662  11.422  0.6042 -0.6117 -0.0832
 8103TIP3    H248505   4.624   2.600  11.540 -0.3175  0.4701  1.0813
 8104TIP3   OH248506   1.323   6.970  11.091 -0.0541  0.1518  0.1104
 8104TIP3    H148507   1.282   7.016  11.164  0.9072  1.2638 -0.0275
 8104TIP3    H248508   1.307   7.026  11.015  1.8744  0.7510  0.0936
 8105TIP3   OH248509   7.344   6.586  12.875  0.0602 -0.0103 -0.1615
 8105TIP3    H148510   7.352   6.614  12.783  1.5959 -0.6465 -0.2382
 8105TIP3    H248511   7.434   6.578  12.906 -0.3673 -2.0432  0.7217
 8106TIP3   OH248512   2.654   7.119  11.109  0.0738  0.0786 -0.5508
 8106TIP3    H148513   2.587   7.108  11.177  0.6790 -1.5674 -0.1767
 8106TIP3    H248514   2.610   7.090  11.028 -0.1553  0.5548 -0.6039
 8107TIP3   OH248515   6.728   6.824  12.172 -0.5496 -0.3206 -0.2764
 8107TIP3    H148516   6.809   6.848  12.218 -1.3120  1.0833  0.4243
 8107TIP3    H248517   6.660   6.873  12.218 -1.7517 -1.2002 -1.0785
 8108TIP3   OH248518   6.998   3.259  11.902 -0.2967 -0.2055  0.3737
 8108TIP3    H148519   7.013   3.223  11.814 -0.0604  1.1659 -0.1748
 8108TIP3    H248520   7.077   3.235  11.951 -0.1756 -0.4917  0.0421
 8109TIP3   OH248521   6.666   7.665  11.931 -0.0706 -0.2677  0.4275
 8109TIP3    H148522   6.722   7.594  11.964  0.5537 -0.1865 -0.4141
 8109TIP3    H248523   6.578   7.629  11.933  0.3455 -1.4890 -0.9707
 8110TIP3   OH248524   2.651   0.836  10.963 -0.4455 -0.0554  0.5189
 8110TIP3    H148525   2.738   0.842  11.002 -0.4425  1.8522  0.3156
 8110TIP3    H248526   2.593   0.873  11.030 -1.2589 -2.0183  0.9797
 8111TIP3   OH248527   6.108   1.450  10.969  0.7313 -0.2221  0.0883
 8111TIP3    H148528   6.136   1.378  11.026 -1.4395  0.1544  1.7833
 8111TIP3    H248529   6.041   1.411  10.913  1.4064 -0.0952 -0.8307
 8112TIP3   OH248530   6.098   5.536  10.944 -0.1807  0.6440 -0.0236
 8112TIP3    H148531   6.142   5.458  10.911 -0.2882 -0.0846  1.4915
 8112TIP3    H248532   6.167   5.601  10.953  0.8514 -0.7276  3.0981
 8113TIP3   OH248533   2.221   5.457  11.485  0.8495 -0.4613  0.3794
 8113TIP3    H148534   2.288   5.411  11.536  0.7062 -0.0184  0.9874
 8113TIP3    H248535   2.231   5.549  11.512  0.2207 -0.3461  0.2231
 8114TIP3   OH248536   0.054   4.165  11.828 -0.3342 -0.6030 -0.5980
 8114TIP3    H148537   0.070   4.075  11.801 -1.8865 -1.3576  0.7669
 8114TIP3    H248538   0.120   4.182  11.895  0.4755 -0.4211 -1.4289
 8115TIP3   OH248539   5.041   6.372  13.037  0.2090  0.6269 -0.3335
 8115TIP3    H148540   5.053   6.340  13.126  2.4283  0.7819 -0.5340
 8115TIP3    H248541   5.010   6.462  13.047 -1.8989 -0.0902  0.2201
 8116TIP3   OH248542   2.154   4.437  11.808 -0.2246  0.0966  0.5877
 8116TIP3    H148543   2.078   4.496  11.805  0.7371  1.4345  1.1809
 8116TIP3    H248544   2.140   4.384  11.886 -1.5881 -1.1935 -0.4837
 8117TIP3   OH248545   6.260   1.683  11.976  0.2541  0.2059  0.0368
 8117TIP3    H148546   6.168   1.708  11.982  0.1248 -0.1795 -0.2748
 8117TIP3    H248547   6.307   1.766  11.966 -0.0016  0.4492  0.7944
 8118TIP3   OH248548   5.265   6.147  11.612  0.2998 -0.0287 -0.4630
 8118TIP3    H148549   5.313   6.215  11.565  0.5856  2.3392  2.9139
 8118TIP3    H248550   5.332   6.102  11.664 -0.6623  2.4946  3.3525
 8119TIP3   OH248551   7.623   3.965  12.791 -0.1488 -0.0892  0.9075
 8119TIP3    H148552   7.561   4.037  12.783 -0.8247 -0.8337 -1.3332
 8119TIP3    H248553   7.684   3.977  12.718 -0.3174 -1.7710  0.4408
 8120TIP3   OH248554   1.055   3.395  12.715  0.4923 -0.2905  0.1131
 8120TIP3    H148555   1.122   3.413  12.781  0.7669 -0.8754  0.0000
 8120TIP3    H248556   1.080   3.311  12.677  0.2626 -0.0190 -0.6529
 8121TIP3   OH248557   0.583   0.174  12.370 -0.2156  0.2775  0.3318
 8121TIP3    H148558   0.550   0.228  12.442  2.0357  0.3458  1.3963
 8121TIP3    H248559   0.551   0.086  12.389  1.0142  0.1236  1.9510
 8122TIP3   OH248560   7.082   5.036  19.304 -0.3219 -0.8631  0.3290
 8122TIP3    H148561   7.072   4.965  19.241 -0.6709 -0.6174  0.1010
 8122TIP3    H248562   6.999   5.040  19.350  0.1536 -1.4767  1.2839
 8123TIP3   OH248563   0.887   1.446  11.622 -0.1425  0.2974  0.5992
 8123TIP3    H148564   0.930   1.441  11.707  0.8509  0.5222  0.1358
 8123TIP3    H248565   0.872   1.540  11.608  0.8340  0.3887  0.0123
 8124TIP3   OH248566   3.967   0.185  12.928 -0.2555 -0.1797  0.0782
 8124TIP3    H148567   3.918   0.140  12.859 -1.6599  0.8009  0.3767
 8124TIP3    H248568   3.900   0.210  12.992  0.6818  0.9579  0.6530
 8125TIP3   OH248569   1.986   2.088  11.045  0.2249  0.3835  0.6110
 8125TIP3    H148570   1.958   2.047  10.964  1.5943 -0.9318  0.7481
 8125TIP3    H248571   2.007   2.178  11.021  0.0534  0.1717 -0.3738
 8126TIP3   OH248572   5.265   2.838  12.950  0.4109 -0.1153  0.6710
 8126TIP3    H148573   5.198   2.770  12.942 -0.2546  0.5193  0.6765
 8126TIP3    H248574   5.345   2.791  12.973  0.7826 -1.2997 -2.5179
 8127TIP3   OH248575   4.872   3.697  12.118  0.1517  0.1974 -0.2415
 8127TIP3    H148576   4.955   3.743  12.128 -0.3068  1.1426 -0.7403
 8127TIP3    H248577   4.826   3.744  12.049 -1.2775  0.3990  0.7962
 8128TIP3   OH248578   6.075   5.172  11.691 -0.0068  0.0072 -0.1907
 8128TIP3    H148579   6.004   5.219  11.736  1.3417  1.0830  0.8813
 8128TIP3    H248580   6.082   5.215  11.606  0.2423  0.8016  0.2211
 8129TIP3   OH248581   3.631   6.518  13.174  0.1065  0.1369  0.2313
 8129TIP3    H148582   3.637   6.439  13.228 -1.9002  0.5701  1.1657
 8129TIP3    H248583   3.539   6.542  13.177  0.5698  2.1705 -0.5615
 8130TIP3   OH248584   2.870   4.967  12.096 -0.4437  0.0358  0.4995
 8130TIP3    H148585   2.855   4.881  12.135 -1.1530  0.6718  1.6921
 8130TIP3    H248586   2.865   5.028  12.170 -2.8587  1.3985 -0.6719
 8131TIP3   OH248587   0.473   5.844  11.897 -0.0927 -0.0273  0.1208
 8131TIP3    H148588   0.488   5.750  11.885  0.1628 -0.2880  2.2276
 8131TIP3    H248589   0.466   5.878  11.808  0.7963 -1.8739 -0.7059
 8132TIP3   OH248590   5.950   0.588  12.943 -0.1528 -0.2116 -0.1369
 8132TIP3    H148591   5.976   0.499  12.967 -0.2985  0.3310  2.3542
 8132TIP3    H248592   5.855   0.589  12.952 -0.1002  0.3383  0.4244
 8133TIP3   OH248593   1.743   0.973  10.800 -0.0045 -0.0276  0.1242
 8133TIP3    H148594   1.789   1.055  10.784  1.0783 -0.6722 -0.1425
 8133TIP3    H248595   1.726   0.937  10.713 -0.7283  0.0419  0.2296
 8134TIP3   OH248596   0.709   4.928  17.354 -0.0514  0.5575 -0.0696
 8134TIP3    H148597   0.756   4.894  17.278 -1.6804 -1.2707 -0.3519
 8134TIP3    H248598   0.626   4.879  17.355 -1.2934  2.5246  1.2759
 8135TIP3   OH248599   0.695   0.517  12.341 -0.0577  0.3586 -0.0234
 8135TIP3    H148600   0.630   0.569  12.387 -0.5493 -0.0007 -0.3089
 8135TIP3    H248601   0.710   0.566  12.259 -0.4355  0.1143 -0.2402
 8136TIP3   OH248602   5.231   7.221  11.996 -0.2751  0.0118  0.1523
 8136TIP3    H148603   5.299   7.156  12.015 -1.1614 -0.8462  0.5059
 8136TIP3    H248604   5.206   7.203  11.905 -1.2220 -0.8384  0.5613
 8137TIP3   OH248605   4.917   6.250  12.268  0.2088  0.7067 -0.5714
 8137TIP3    H148606   4.919   6.303  12.348  1.8896  1.2004 -0.8935
 8137TIP3    H248607   4.883   6.310  12.201 -1.2930  0.2645 -0.2508
 8138TIP3   OH248608   6.539   5.564  12.517  0.9143 -0.1862 -0.1661
 8138TIP3    H148609   6.596   5.490  12.536  1.7600  0.1490 -1.3387
 8138TIP3    H248610   6.529   5.609  12.601  1.6554 -0.7398  0.2253
 8139TIP3   OH248611   4.898   6.913  10.707  0.1268 -0.1967  0.5230
 8139TIP3    H148612   4.919   6.995  10.662 -1.0005  0.7009  1.5569
 8139TIP3    H248613   4.966   6.905  10.774  1.5889 -1.3421 -1.0332
 8140TIP3   OH248614   6.793   5.722  11.109 -0.0595 -0.5001  0.2237
 8140TIP3    H148615   6.775   5.816  11.106 -0.7444 -0.6507 -0.8132
 8140TIP3    H248616   6.854   5.712  11.182  0.1912  0.7792  0.2182
 8141TIP3   OH248617   5.299   1.492  10.917  0.0507 -0.1886 -0.1798
 8141TIP3    H148618   5.365   1.477  10.985  1.2252 -0.4492 -1.3390
 8141TIP3    H248619   5.341   1.551  10.855 -0.4981 -0.9700 -1.3392
 8142TIP3   OH248620   6.205   5.029  13.108 -0.4040  0.1394  0.1980
 8142TIP3    H148621   6.137   5.096  13.101 -0.4375  0.0794 -0.0905
 8142TIP3    H248622   6.282   5.075  13.140 -0.7569  0.0874  1.1415
 8143TIP3   OH248623   5.415   6.269  12.863 -0.3375 -0.1592 -0.0268
 8143TIP3    H148624   5.475   6.205  12.826 -1.1644  0.2991 -2.3399
 8143TIP3    H248625   5.436   6.351  12.819 -1.7801  0.3018  0.0745
 8144TIP3   OH248626   5.101   2.737  10.451  0.5490  0.0440 -0.2947
 8144TIP3    H148627   5.191   2.712  10.429  2.1314  3.3484  1.6767
 8144TIP3    H248628   5.089   2.706  10.540 -0.9043 -1.5884 -0.9862
 8145TIP3   OH248629   3.229   5.555  12.262 -0.1062 -0.1454 -0.3575
 8145TIP3    H148630   3.311   5.601  12.244 -0.1974  0.7179  1.2426
 8145TIP3    H248631   3.180   5.560  12.180  1.6389 -1.1681 -1.5141
 8146TIP3   OH248632   2.718   1.565  13.371  0.2308 -0.7655  0.0944
 8146TIP3    H148633   2.757   1.653  13.366 -0.8256 -0.2245  0.9714
 8146TIP3    H248634   2.695   1.544  13.281 -1.1614  0.6588  0.0707
 8147TIP3   OH248635   3.027   4.703  12.385  0.2861  0.2855 -0.2563
 8147TIP3    H148636   2.943   4.702  12.431  0.4967 -0.6101  0.1326
 8147TIP3    H248637   3.083   4.760  12.439  1.1325 -2.2525  1.7944
 8148TIP3   OH248638   3.249   3.253  11.146  0.2293 -0.1567  0.4093
 8148TIP3    H148639   3.257   3.286  11.236  1.9322 -0.3091  0.3471
 8148TIP3    H248640   3.157   3.263  11.125  0.0163  1.0114  1.7495
 8149TIP3   OH248641   4.962   7.448  11.591  0.1231 -0.5191  0.0126
 8149TIP3    H148642   4.955   7.373  11.532 -1.1489  0.7200 -1.4914
 8149TIP3    H248643   4.927   7.521  11.541  2.2591  1.3200  1.0658
 8150TIP3   OH248644   7.220   5.450  12.822 -0.4025 -0.1766  0.0474
 8150TIP3    H148645   7.136   5.452  12.868 -0.2547 -0.0640  0.3185
 8150TIP3    H248646   7.285   5.472  12.890 -0.1028 -0.7480 -0.0423
 8151TIP3   OH248647   1.615   5.114  12.076 -0.2900  0.1405 -0.0094
 8151TIP3    H148648   1.603   5.141  12.167 -0.6575  0.5204 -0.1741
 8151TIP3    H248649   1.540   5.058  12.057  0.7479 -1.5310  0.5140
 8152TIP3   OH248650   0.837   4.812  12.625  0.4184 -0.2796  0.3360
 8152TIP3    H148651   0.922   4.830  12.664 -0.1341  2.6384  0.3874
 8152TIP3    H248652   0.857   4.792  12.533  1.2037 -0.6958  0.5858
 8153TIP3   OH248653   7.561   4.920  11.410  0.9949 -0.5969  0.3926
 8153TIP3    H148654   7.630   4.901  11.473  0.2150 -0.6791  1.2534
 8153TIP3    H248655   7.486   4.945  11.464  0.8341  1.1611 -0.5580
 8154TIP3   OH248656   2.976   3.605  11.479 -0.3840 -0.2114  0.2432
 8154TIP3    H148657   2.975   3.571  11.390 -1.7465 -0.0419  0.1823
 8154TIP3    H248658   2.884   3.620  11.501  0.0679  2.9657  0.4573
 8155TIP3   OH248659   6.185   7.597  12.359 -0.3170 -0.4281 -0.3058
 8155TIP3    H148660   6.187   7.677  12.306 -0.3827  0.4539  0.9746
 8155TIP3    H248661   6.127   7.538  12.311  0.4818 -0.0797 -1.7690
 8156TIP3   OH248662   4.663   0.909  12.157 -0.2727 -1.1651 -0.2282
 8156TIP3    H148663   4.741   0.962  12.141 -1.0821  1.1202  2.5212
 8156TIP3    H248664   4.598   0.943  12.095  0.2938 -1.7288 -1.1657
 8157TIP3   OH248665   2.966   0.020  10.554  0.5759 -0.0828 -0.0574
 8157TIP3    H148666   2.880   0.061  10.549 -0.1973 -1.3176  1.8714
 8157TIP3    H248667   2.949  -0.067  10.591  2.7008 -0.2020  0.8016
 8158TIP3   OH248668   5.642   5.742  11.412 -0.2250  1.3966 -0.0287
 8158TIP3    H148669   5.676   5.786  11.490  1.1465  0.3724 -0.0022
 8158TIP3    H248670   5.720   5.725  11.359 -0.2567 -2.9686  0.9910
 8159TIP3   OH248671   3.986   4.900  11.590 -0.3443  0.5637  0.1992
 8159TIP3    H148672   3.891   4.900  11.592 -0.3251  0.6782  1.9089
 8159TIP3    H248673   4.008   4.866  11.503 -1.9064 -2.2566  0.7891
 8160TIP3   OH248674   1.833   5.055  12.525 -0.0111  0.0669  0.0972
 8160TIP3    H148675   1.782   4.987  12.570  0.4661 -0.4363 -0.1125
 8160TIP3    H248676   1.832   5.129  12.586 -1.8328  0.4405 -0.3210
 8161TIP3   OH248677   1.164   6.566  10.430  0.3234  0.3836 -0.2763
 8161TIP3    H148678   1.177   6.657  10.404 -1.0446  0.8253  0.4762
 8161TIP3    H248679   1.191   6.564  10.522  0.4317  0.0002 -0.3139
 8162TIP3   OH248680   0.696   7.602  11.499 -0.5717 -0.2496 -0.0173
 8162TIP3    H148681   0.688   7.697  11.499 -1.6453 -0.3043 -1.5879
 8162TIP3    H248682   0.736   7.581  11.584  1.1771  1.7017 -0.2668
 8163TIP3   OH248683   3.020   7.414  12.275  0.3145  0.5225 -0.1226
 8163TIP3    H148684   3.065   7.495  12.254 -0.1807  0.9576  0.4344
 8163TIP3    H248685   3.012   7.367  12.192 -1.2038  1.9787 -0.8490
 8164TIP3   OH248686   6.048   2.446  12.987 -0.1476 -0.8843 -0.1224
 8164TIP3    H148687   6.099   2.512  12.941 -0.2326  0.0102  1.0315
 8164TIP3    H248688   6.072   2.363  12.944 -0.3046 -0.0950 -1.8219
 8165TIP3   OH248689   0.525   6.155  10.870 -0.0139  0.4885  0.0606
 8165TIP3    H148690   0.481   6.230  10.830  1.1887  0.2160 -1.8828
 8165TIP3    H248691   0.551   6.100  10.796 -0.0379 -1.4060  1.3823
 8166TIP3   OH248692   5.538   1.954  11.096 -0.7031  0.5031  0.0256
 8166TIP3    H148693   5.617   1.962  11.041 -0.1132  0.7187  0.8879
 8166TIP3    H248694   5.474   2.011  11.055  0.1525  1.6815  0.2946
 8167TIP3   OH248695   3.184   2.147  12.641  0.4707  0.4658  0.4976
 8167TIP3    H148696   3.166   2.194  12.560  1.9841  1.0408  0.4717
 8167TIP3    H248697   3.183   2.214  12.709  0.9471  0.2713  0.7030
 8168TIP3   OH248698   5.317   1.981  13.510 -0.8416  0.0818 -0.3291
 8168TIP3    H148699   5.358   2.016  13.431  2.1688  1.7522  1.7490
 8168TIP3    H248700   5.351   1.892  13.518 -0.1610  0.3404 -0.2989
 8169TIP3   OH248701   4.967   1.700  10.952 -0.0033  0.0245 -0.1927
 8169TIP3    H148702   5.054   1.737  10.966 -0.3119  1.3791 -1.6267
 8169TIP3    H248703   4.945   1.722  10.862 -1.0798 -1.9447 -0.4703
 8170TIP3   OH248704   3.549   5.635  12.926 -0.2276  0.1384  0.2122
 8170TIP3    H148705   3.591   5.571  12.984 -2.7533 -2.1510 -0.2476
 8170TIP3    H248706   3.483   5.678  12.981 -2.5817 -1.9878 -0.7322
 8171TIP3   OH248707   5.321   4.091  12.421  0.0877  0.0057  0.2784
 8171TIP3    H148708   5.359   4.025  12.479 -0.4286 -0.7909 -0.2725
 8171TIP3    H248709   5.342   4.175  12.462  2.8388 -0.3481 -0.2008
 8172TIP3   OH248710   0.529   6.315  12.963  0.0155 -0.0565  0.3814
 8172TIP3    H148711   0.459   6.351  13.017  1.0481  0.3506  1.4924
 8172TIP3    H248712   0.609   6.335  13.011  0.7855 -2.1997  0.0962
 8173TIP3   OH248713   2.269   3.944  11.303  0.4071  0.3525  0.1045
 8173TIP3    H148714   2.362   3.962  11.316 -0.0237  2.3862  0.7349
 8173TIP3    H248715   2.253   3.968  11.212  0.2175  1.5123  0.4242
 8174TIP3   OH248716   1.312   4.375  12.343  0.0858  0.1893  0.7484
 8174TIP3    H148717   1.366   4.352  12.419 -0.8886  0.9522  1.7004
 8174TIP3    H248718   1.253   4.301  12.331  0.1175  0.1482  0.8457
 8175TIP3   OH248719   5.765   6.408  12.953  0.4783  0.3210 -0.6135
 8175TIP3    H148720   5.781   6.378  13.042  1.1594  0.6265 -0.6254
 8175TIP3    H248721   5.714   6.488  12.963  1.6235  1.0623 -0.4226
 8176TIP3   OH248722   4.324   5.495  10.808 -0.4067 -0.1711 -0.8220
 8176TIP3    H148723   4.373   5.522  10.730 -1.1411 -1.3517 -1.7178
 8176TIP3    H248724   4.333   5.569  10.868  1.4929  0.1192 -1.4038
 8177TIP3   OH248725   0.280   5.732  10.922 -0.0424 -0.1272 -0.2401
 8177TIP3    H148726   0.199   5.694  10.955  0.7005 -0.4741  1.2533
 8177TIP3    H248727   0.288   5.816  10.967  0.2725  0.0510 -0.6157
 8178TIP3   OH248728   0.881   2.467  12.486  0.1576  0.1388  0.5202
 8178TIP3    H148729   0.855   2.498  12.573 -1.1364 -0.3662  0.3360
 8178TIP3    H248730   0.798   2.453  12.440  0.8123 -0.0204 -0.6544
 8179TIP3   OH248731   4.184   6.201  12.150 -0.2734  0.6861 -0.3683
 8179TIP3    H148732   4.161   6.277  12.204  0.4248 -0.3109  1.3991
 8179TIP3    H248733   4.270   6.175  12.180  0.0511 -0.0715 -1.8430
 8180TIP3   OH248734   2.911   5.308  10.802  0.3297  0.1820  0.1729
 8180TIP3    H148735   2.843   5.374  10.813 -0.6911 -0.5568 -1.3285
 8180TIP3    H248736   2.875   5.229  10.843  1.0850  0.2416  0.9972
 8181TIP3   OH248737   3.284   4.511  10.938  0.3350 -0.0988 -0.0944
 8181TIP3    H148738   3.373   4.541  10.917  1.0242 -0.5828  1.8558
 8181TIP3    H248739   3.292   4.475  11.026 -1.9258  0.3147  0.3376
 8182TIP3   OH248740   6.006   6.634  11.206 -0.0458  0.1557 -0.2500
 8182TIP3    H148741   6.060   6.652  11.129 -1.0640 -2.2497 -1.6559
 8182TIP3    H248742   5.963   6.718  11.225  0.6937  0.9701 -1.9247
 8183TIP3   OH248743   4.820   2.299  11.517  0.3504  0.0276 -0.0819
 8183TIP3    H148744   4.752   2.254  11.467  0.9280  0.7870 -1.6180
 8183TIP3    H248745   4.884   2.327  11.451  0.7928  1.6940  0.9943
 8184TIP3   OH248746   4.190   5.422  12.658 -0.7188  0.1236 -0.1122
 8184TIP3    H148747   4.128   5.472  12.710 -1.0700  0.1135 -0.5143
 8184TIP3    H248748   4.180   5.456  12.569 -1.1650 -0.8479 -0.4479
 8185TIP3   OH248749   0.421   2.162  11.292  0.0936 -0.0924 -0.3899
 8185TIP3    H148750   0.473   2.104  11.236 -0.9776 -0.9940 -0.4902
 8185TIP3    H248751   0.337   2.117  11.301  0.1482  0.1539  1.7314
 8186TIP3   OH248752   5.060   5.933  11.561 -0.0947  0.1126 -0.3232
 8186TIP3    H148753   5.126   5.989  11.602 -1.5457  1.1248  0.7637
 8186TIP3    H248754   5.105   5.851  11.544  1.5896  0.9642 -0.1725
 8187TIP3   OH248755   5.191   7.133  10.885 -0.0528  0.0778  0.1087
 8187TIP3    H148756   5.160   7.214  10.844  1.0176  0.0658 -0.7701
 8187TIP3    H248757   5.274   7.156  10.926  0.5861 -0.6992 -0.6938
 8188TIP3   OH248758   0.748   3.968  13.189  0.1540 -0.1440  0.2502
 8188TIP3    H148759   0.724   3.979  13.097 -0.4897 -2.7544  0.0197
 8188TIP3    H248760   0.677   4.010  13.238  0.5823  1.4023 -0.3995
 8189TIP3   OH248761   6.493   6.939  11.886 -0.2217 -0.6828 -0.0904
 8189TIP3    H148762   6.532   6.854  11.908 -0.5701 -0.2598  2.5291
 8189TIP3    H248763   6.542   6.969  11.810  0.9929 -2.5034 -0.0933
 8190TIP3   OH248764   4.999   7.364  12.048  0.2590 -0.4842 -0.2087
 8190TIP3    H148765   4.998   7.411  11.964 -1.1908 -0.5252 -0.2384
 8190TIP3    H248766   5.070   7.301  12.039  0.2885 -0.3181 -1.3210
 8191TIP3   OH248767   4.414   7.212  10.764 -0.1385 -0.3920  0.4308
 8191TIP3    H148768   4.406   7.124  10.802 -3.4384 -0.4949 -0.2059
 8191TIP3    H248769   4.355   7.266  10.816 -3.0603 -0.0355 -2.8564
 8192TIP3   OH248770   1.938   5.052  12.887  0.3340  0.0403  0.0818
 8192TIP3    H148771   1.862   5.025  12.834  0.9649 -1.5997 -0.0644
 8192TIP3    H248772   1.995   4.975  12.887  0.7297  0.2370  2.4861
 8193TIP3   OH248773   7.566   0.678  11.627 -0.1057  0.0355  0.5252
 8193TIP3    H148774   7.612   0.598  11.653 -0.4058 -0.7396 -1.1780
 8193TIP3    H248775   7.636   0.741  11.612  0.4555 -1.0013 -1.5913
 8194TIP3   OH248776   2.540   0.284  11.415 -0.1799 -0.0187 -0.2583
 8194TIP3    H148777   2.560   0.192  11.431  0.7479 -0.0047 -1.2456
 8194TIP3    H248778   2.444   0.288  11.418 -0.1841 -0.6726  1.5076
 8195TIP3   OH248779   7.400   1.964  12.984 -0.1825  0.0751 -0.0925
 8195TIP3    H148780   7.345   1.921  12.919 -1.0856  0.8546  0.1427
 8195TIP3    H248781   7.340   2.018  13.036  0.3424 -1.3970  2.1568
 8196TIP3   OH248782   6.830   2.616  12.449  0.0074 -0.4980 -0.5739
 8196TIP3    H148783   6.846   2.523  12.469 -1.3189 -0.4606  0.8158
 8196TIP3    H248784   6.918   2.653  12.439  0.6923 -1.3023  1.7809
 8197TIP3   OH248785   5.464   5.932  12.935 -0.1675 -0.3485  0.3626
 8197TIP3    H148786   5.532   5.887  12.884 -0.8225  1.4419 -2.3233
 8197TIP3    H248787   5.505   6.014  12.962  0.2530 -1.3755  3.1377
 8198TIP3   OH248788   1.492   0.240  12.620  0.1476 -0.3822 -0.4144
 8198TIP3    H148789   1.455   0.298  12.554  2.7910 -0.5146 -2.1543
 8198TIP3    H248790   1.480   0.287  12.703 -0.1995  1.4032 -1.4261
 8199TIP3   OH248791   5.690   6.602  12.043  0.1984 -0.4350 -0.1749
 8199TIP3    H148792   5.718   6.511  12.055 -0.2286 -0.7796 -1.5897
 8199TIP3    H248793   5.596   6.596  12.023  0.2949  0.2607 -0.8902
 8200TIP3   OH248794   3.068   1.275  11.131  0.1551  0.5234 -0.4501
 8200TIP3    H148795   3.121   1.244  11.057  1.1578  1.1051  0.0099
 8200TIP3    H248796   2.981   1.240  11.114  1.1515 -2.4934 -0.0309
 8201TIP3   OH248797   0.200   1.464  12.055 -0.5075  0.4216 -0.6760
 8201TIP3    H148798   0.280   1.508  12.084 -0.8032  0.1402  0.6243
 8201TIP3    H248799   0.217   1.371  12.069 -1.3466  0.4135  0.3898
 8202TIP3   OH248800   3.610   4.702  12.105 -0.6838 -0.4611 -0.5767
 8202TIP3    H148801   3.670   4.631  12.083 -0.2666 -0.1700 -0.3758
 8202TIP3    H248802   3.523   4.662  12.096 -0.4717 -0.8613 -0.9455
 8203TIP3   OH248803   2.502   0.751  12.955 -0.2907  0.4912  0.1099
 8203TIP3    H148804   2.558   0.718  13.025  1.0181  1.6892 -0.3184
 8203TIP3    H248805   2.420   0.774  12.998 -0.3663 -0.9858  0.8162
 8204TIP3   OH248806   6.478   1.003  12.022  0.2072 -0.0899 -0.1041
 8204TIP3    H148807   6.531   0.970  11.949  1.5952  1.0003  0.3756
 8204TIP3    H248808   6.440   1.084  11.988 -0.6481 -0.5270 -0.2182
 8205TIP3   OH248809   5.072   0.738  10.526 -0.0663 -0.2664  0.0709
 8205TIP3    H148810   5.161   0.765  10.505  0.3510 -0.6009  1.3330
 8205TIP3    H248811   5.033   0.814  10.568 -0.3558 -0.1410 -0.4231
 8206TIP3   OH248812   6.125   7.066  11.328  0.7750 -0.3743 -0.2982
 8206TIP3    H148813   6.219   7.066  11.311  1.4510  0.1636  2.8028
 8206TIP3    H248814   6.100   7.158  11.327  0.4605 -0.4604 -0.4020
 8207TIP3   OH248815   1.117   1.531  10.716  0.2037 -0.1727  0.4427
 8207TIP3    H148816   1.197   1.582  10.726  0.6113 -0.8952  1.0028
 8207TIP3    H248817   1.146   1.447  10.681 -0.6255  0.4493 -1.8775
 8208TIP3   OH248818   3.667   7.467  12.695  0.0282  0.6121  0.5242
 8208TIP3    H148819   3.612   7.524  12.642 -0.3869 -0.5079 -0.2648
 8208TIP3    H248820   3.749   7.460  12.645  0.5399  1.4741  1.2121
 8209TIP3   OH248821   4.801   4.705  11.709  0.7763 -0.2420  0.4400
 8209TIP3    H148822   4.757   4.701  11.794 -0.3819 -2.0492 -0.1721
 8209TIP3    H248823   4.894   4.697  11.730  0.5013 -0.7192  1.5619
 8210TIP3   OH248824   0.866   1.165  12.526  0.0883  0.5795  0.2033
 8210TIP3    H148825   0.805   1.229  12.563  0.0363  1.4662 -1.3705
 8210TIP3    H248826   0.937   1.160  12.590 -1.1130  0.2693  1.5886
 8211TIP3   OH248827   0.050   2.224  11.582  0.2693  0.1467 -0.1752
 8211TIP3    H148828   0.044   2.210  11.488 -1.2373 -1.1042  0.0766
 8211TIP3    H248829   0.037   2.319  11.593 -2.5146 -0.0549 -1.0635
 8212TIP3   OH248830   6.331   5.664  11.066  0.2230  0.1375 -0.3296
 8212TIP3    H148831   6.401   5.729  11.072  0.5012 -0.1758 -0.1530
 8212TIP3    H248832   6.367   5.586  11.108 -0.4316  0.1380  0.2448
 8213TIP3   OH248833   5.568   0.095  11.720 -0.0386 -0.6104 -0.1987
 8213TIP3    H148834   5.627   0.053  11.657 -0.3255 -1.7071  0.2325
 8213TIP3    H248835   5.603   0.183  11.731 -0.3360 -0.1818 -2.3505
 8214TIP3   OH248836   6.940   0.639  11.789 -0.5109 -0.1418 -0.6091
 8214TIP3    H148837   7.010   0.636  11.724  0.9333 -0.3978  0.8749
 8214TIP3    H248838   6.972   0.699  11.856 -0.3545 -2.4304  1.5292
 8215TIP3   OH248839   2.927   5.913  11.676 -0.0127  0.4898  0.0967
 8215TIP3    H148840   2.990   5.884  11.742 -1.4787 -1.2338  0.8196
 8215TIP3    H248841   2.855   5.951  11.726  0.5839  2.8639 -0.7367
 8216TIP3   OH248842   7.314   3.751  11.502 -0.4130 -0.8703 -0.5648
 8216TIP3    H148843   7.400   3.780  11.472  0.0271  0.0032  1.4095
 8216TIP3    H248844   7.301   3.666  11.460  2.5677 -2.2535  1.0101
 8217TIP3   OH248845   3.588   0.313  11.219 -0.2445 -0.3960 -0.4054
 8217TIP3    H148846   3.596   0.228  11.262  0.4180 -0.0691  0.1277
 8217TIP3    H248847   3.499   0.314  11.183  0.2808 -2.0133 -1.8964
 8218TIP3   OH248848   7.067   3.648  11.183  0.0892 -0.1677 -0.3964
 8218TIP3    H148849   7.031   3.693  11.105  2.0750  1.6684 -0.3526
 8218TIP3    H248850   7.161   3.652  11.171  0.4881  0.7509  2.4142
 8219TIP3   OH248851   0.437   1.886  12.939  0.3592  0.1308  0.3266
 8219TIP3    H148852   0.510   1.826  12.954 -0.2116 -0.8008 -0.5415
 8219TIP3    H248853   0.472   1.972  12.962  1.4469 -0.4177  0.7915
 8220TIP3   OH248854   0.873   5.484  11.091 -0.8029 -0.6077  0.1975
 8220TIP3    H148855   0.865   5.400  11.136  1.2453 -0.0088  1.8242
 8220TIP3    H248856   0.854   5.549  11.159  2.2569  0.3170  0.2897
 8221TIP3   OH248857   5.905   3.098  10.785 -0.0553 -0.8710  0.3259
 8221TIP3    H148858   5.814   3.097  10.757 -0.1375 -0.0823  0.5257
 8221TIP3    H248859   5.955   3.107  10.704 -0.1703 -0.9665  0.2434
 8222TIP3   OH248860   3.346   1.590  11.064  0.5583  0.1004  0.4355
 8222TIP3    H148861   3.270   1.614  11.010  0.2792  1.0295  1.2148
 8222TIP3    H248862   3.393   1.526  11.011 -1.1166 -1.0002  0.2011
 8223TIP3   OH248863   3.623   4.731  10.590  0.1822  0.3169  0.8673
 8223TIP3    H148864   3.658   4.642  10.597  2.1056  1.0505  1.1864
 8223TIP3    H248865   3.685   4.777  10.533 -0.9030  1.4078  0.5155
 8224TIP3   OH248866   5.161   0.327  11.974 -0.3608  0.0906 -0.1283
 8224TIP3    H148867   5.177   0.271  11.899 -2.1727 -0.3931 -0.1977
 8224TIP3    H248868   5.074   0.364  11.959 -0.4775  0.5305  1.3920
 8225TIP3   OH248869   0.830   2.810  11.019  0.4181 -0.1501 -0.0791
 8225TIP3    H148870   0.843   2.735  10.961  1.3602  0.0650 -0.1614
 8225TIP3    H248871   0.847   2.886  10.963  0.1178  0.1046  0.1711
 8226TIP3   OH248872   1.534   7.627  12.713 -0.8566  0.0445  0.1702
 8226TIP3    H148873   1.524   7.556  12.650 -0.7372 -0.5365  0.7937
 8226TIP3    H248874   1.499   7.704  12.668 -0.1083 -0.1978 -0.8869
 8227TIP3   OH248875   6.195   2.682  10.275  0.2132  0.8561 -0.1758
 8227TIP3    H148876   6.217   2.691  10.182  0.7376  0.7606 -0.0620
 8227TIP3    H248877   6.221   2.766  10.313  1.0264  0.5020  0.0823
 8228TIP3   OH248878   1.347   6.339  11.283  0.4593 -0.4428  0.1563
 8228TIP3    H148879   1.396   6.416  11.254 -0.2691  1.2197  2.9235
 8228TIP3    H248880   1.258   6.353  11.249 -0.1379  0.9765  2.1259
 8229TIP3   OH248881   4.353   6.412  11.910 -0.3049 -0.1636 -0.5005
 8229TIP3    H148882   4.275   6.465  11.895 -1.1737 -1.3673 -0.3768
 8229TIP3    H248883   4.326   6.322  11.890  0.5915 -0.8184  1.0200
 8230TIP3   OH248884   6.433   5.332  11.916  0.6653 -0.4591 -0.1858
 8230TIP3    H148885   6.485   5.412  11.903  0.3972  0.0793  1.7059
 8230TIP3    H248886   6.344   5.364  11.933  0.6339 -1.1346  0.9946
 8231TIP3   OH248887   6.439   5.774  12.989  0.0042  0.5454 -0.3899
 8231TIP3    H148888   6.441   5.782  12.894  0.4893  0.4541 -0.3926
 8231TIP3    H248889   6.522   5.812  13.017  1.3399 -2.2349 -0.2291
 8232TIP3   OH248890   5.947   4.334  11.847  0.2058 -0.4961  0.1618
 8232TIP3    H148891   5.880   4.402  11.839 -0.6871 -1.4249 -0.4819
 8232TIP3    H248892   5.998   4.340  11.767 -0.3806 -1.0828 -0.2728
 8233TIP3   OH248893   0.120   0.240  11.843  0.0958  0.1774 -0.2373
 8233TIP3    H148894   0.090   0.277  11.760 -0.2966  1.5449  0.4773
 8233TIP3    H248895   0.215   0.234  11.834  0.0475  0.2415 -0.8078
 8234TIP3   OH248896   2.184   0.672  12.165  0.3772  0.0008  0.2972
 8234TIP3    H148897   2.126   0.667  12.240  0.6052  0.9852  0.5463
 8234TIP3    H248898   2.201   0.580  12.142 -0.4404 -0.2986  0.8505
 8235TIP3   OH248899   3.051   4.907  10.885  0.1389 -0.5337  0.4969
 8235TIP3    H148900   3.048   4.828  10.831 -0.4391 -0.7406  0.8208
 8235TIP3    H248901   3.083   4.877  10.970 -0.2924 -0.4597  0.6862
 8236TIP3   OH248902   2.992   6.418  12.441 -0.1270 -0.3371  0.1135
 8236TIP3    H148903   2.988   6.513  12.443 -2.2079 -0.3684  0.8701
 8236TIP3    H248904   3.042   6.397  12.362  3.6077  1.3313  1.8077
 8237TIP3   OH248905   6.223   2.758  12.256 -0.0225  0.1741 -0.0059
 8237TIP3    H148906   6.275   2.773  12.177 -0.4521  1.5206 -0.0651
 8237TIP3    H248907   6.272   2.801  12.326 -0.7033  0.9060  0.0481
 8238TIP3   OH248908   0.280   0.399  12.559  0.4270  0.1840 -0.0567
 8238TIP3    H148909   0.291   0.394  12.464  1.2314 -2.3973  0.1123
 8238TIP3    H248910   0.325   0.480  12.584  0.3145  0.8393 -1.8367
 8239TIP3   OH248911   5.811   5.915  11.581 -0.1940  0.4978  0.0741
 8239TIP3    H148912   5.856   5.975  11.641 -1.4377  1.3886  0.1605
 8239TIP3    H248913   5.876   5.847  11.562  0.4323  0.5259  1.9181
 8240TIP3   OH248914   7.190   1.417  12.032  0.5372 -0.4089 -0.0326
 8240TIP3    H148915   7.158   1.392  12.119  1.0456 -0.5895  0.1068
 8240TIP3    H248916   7.155   1.505  12.018 -0.7638 -0.9448 -0.2655
 8241TIP3   OH248917   3.174   2.157  13.349  1.3228 -0.2077  0.4826
 8241TIP3    H148918   3.135   2.144  13.262  0.6769 -2.3040  1.0075
 8241TIP3    H248919   3.102   2.187  13.404  1.7713  1.2938  0.2976
 8242TIP3   OH248920   4.691   4.088  12.482 -0.1258  0.0537  0.4045
 8242TIP3    H148921   4.675   4.014  12.423 -1.4692 -0.4239  1.3061
 8242TIP3    H248922   4.606   4.104  12.522  0.9091 -0.2431  2.8855
 8243TIP3   OH248923   6.434   2.593  13.048  0.1666  0.2815  0.0460
 8243TIP3    H148924   6.419   2.640  13.130 -0.6923 -0.6849  0.4742
 8243TIP3    H248925   6.522   2.619  13.021  1.5081 -1.2625  2.5709
 8244TIP3   OH248926   0.507   6.694  11.338  0.1433 -0.5604  0.9846
 8244TIP3    H148927   0.492   6.709  11.245 -0.6494 -2.0841  0.8397
 8244TIP3    H248928   0.498   6.781  11.378 -2.6877 -0.3043  0.0354
 8245TIP3   OH248929   0.823   5.007  13.186 -0.1642  0.5226  0.1776
 8245TIP3    H148930   0.827   5.045  13.274  0.6759 -0.4842  0.6041
 8245TIP3    H248931   0.765   4.931  13.196  1.3488 -0.6821  0.3452
 8246TIP3   OH248932   1.447   2.308  11.776 -0.2516 -0.6463 -0.8090
 8246TIP3    H148933   1.469   2.394  11.741  0.0253 -1.0741 -1.7066
 8246TIP3    H248934   1.388   2.270  11.711 -2.5195 -0.1210  0.8108
 8247TIP3   OH248935   3.837   3.112  12.473 -0.2345 -0.0930  0.5003
 8247TIP3    H148936   3.750   3.152  12.466 -0.1562  0.0193  0.1523
 8247TIP3    H248937   3.820   3.023  12.502 -0.3864  0.3245  1.7587
 8248TIP3   OH248938   3.515   2.592  11.446 -0.0029  0.0658  0.1672
 8248TIP3    H148939   3.472   2.543  11.375 -0.9265  0.3681  0.5116
 8248TIP3    H248940   3.464   2.672  11.455  2.5267  2.0348 -1.6117
 8249TIP3   OH248941   7.035   0.436  10.377  0.4572  0.5365 -0.3382
 8249TIP3    H148942   6.946   0.400  10.380  0.0466  1.5510 -0.1229
 8249TIP3    H248943   7.090   0.362  10.350 -0.5491  0.0825 -1.2285
 8250TIP3   OH248944   7.112   5.335  12.110  0.3234 -0.3930  0.3052
 8250TIP3    H148945   7.203   5.325  12.084  0.4374 -2.4863  1.3504
 8250TIP3    H248946   7.116   5.353  12.204 -0.2933  1.8436 -0.0399
 8251TIP3   OH248947   0.989   6.233  11.410  0.2539 -0.5757 -0.1227
 8251TIP3    H148948   0.985   6.294  11.337 -2.6849 -0.0502  0.3528
 8251TIP3    H248949   1.071   6.254  11.454  0.0332  2.1086 -0.7842
 8252TIP3   OH248950   0.126   6.734  11.725  0.4508  0.1683  0.6682
 8252TIP3    H148951   0.104   6.823  11.699  1.1057  0.4284  0.9890
 8252TIP3    H248952   0.210   6.717  11.685 -0.3710 -0.8824 -0.6872
 8253TIP3   OH248953   2.046   7.477  12.755 -0.2787 -0.3795  0.8464
 8253TIP3    H148954   1.969   7.534  12.760  0.0317 -0.0301  1.9517
 8253TIP3    H248955   2.011   7.394  12.722 -1.2447 -0.3830  1.7988
 8254TIP3   OH248956   2.742   2.009  11.551  0.2478 -0.0178  0.6454
 8254TIP3    H148957   2.788   2.051  11.623  0.7672  0.7392 -0.1118
 8254TIP3    H248958   2.712   2.082  11.496 -0.9280 -0.5415  0.5651
 8255TIP3   OH248959   2.145   5.475  12.560 -0.0927  0.0838  0.2926
 8255TIP3    H148960   2.182   5.541  12.502 -0.6956 -0.5615 -0.8531
 8255TIP3    H248961   2.179   5.498  12.647  1.5186  0.5713 -0.4236
 8256TIP3   OH248962   3.570   7.011  11.277  0.0167 -0.3077  0.0059
 8256TIP3    H148963   3.638   7.044  11.219 -1.1852 -0.3727 -1.5090
 8256TIP3    H248964   3.492   7.006  11.222 -0.5981 -2.7030  0.9665
 8257TIP3   OH248965   4.374   4.927  10.533 -1.2224 -0.2167  0.7162
 8257TIP3    H148966   4.285   4.935  10.497 -1.7330 -2.3498  1.3285
 8257TIP3    H248967   4.372   4.976  10.614 -0.6302  3.0086 -1.0469
 8258TIP3   OH248968   2.544   6.196  11.517 -0.2593  0.0241 -0.3014
 8258TIP3    H148969   2.473   6.140  11.546 -1.7699  1.0267 -1.8367
 8258TIP3    H248970   2.522   6.283  11.551  1.0504  0.0838  0.4706
 8259TIP3   OH248971   3.862   5.725  11.701 -0.3532 -0.3904  0.2847
 8259TIP3    H148972   3.950   5.687  11.704 -0.6745 -1.2099 -0.3724
 8259TIP3    H248973   3.877   5.819  11.708  0.5726 -0.5211  0.2452
 8260TIP3   OH248974   4.727   0.693  11.460 -0.0586 -0.4858  0.0788
 8260TIP3    H148975   4.710   0.785  11.483  0.0915 -0.7710  1.4144
 8260TIP3    H248976   4.653   0.645  11.497 -0.1989 -0.9070 -0.7192
 8261TIP3   OH248977   1.459   1.633  12.786  0.1516  0.0772 -0.5128
 8261TIP3    H148978   1.431   1.698  12.850 -2.0840 -0.7995 -0.5068
 8261TIP3    H248979   1.449   1.549  12.832  1.1147 -0.4004 -1.1518
 8262TIP3   OH248980   6.851   5.410  12.114 -0.0017  0.5489  0.0703
 8262TIP3    H148981   6.871   5.490  12.161  1.6589  2.3786 -3.3802
 8262TIP3    H248982   6.935   5.366  12.103 -0.8134 -1.5449  1.4711
 8263TIP3   OH248983   5.600   7.285  12.009  0.3671  0.8333 -0.4618
 8263TIP3    H148984   5.657   7.291  12.085  1.6428 -0.2032 -1.3044
 8263TIP3    H248985   5.651   7.237  11.944 -0.3444  2.4445 -2.3067
 8264TIP3   OH248986   0.697   6.505  12.159 -0.1347 -0.0976 -0.3567
 8264TIP3    H148987   0.762   6.456  12.108  0.5377 -0.0823  0.4641
 8264TIP3    H248988   0.621   6.447  12.160  0.3957 -0.8140 -0.0274
 8265TIP3   OH248989   5.496   6.829  12.992 -0.0318 -0.5459 -0.2417
 8265TIP3    H148990   5.555   6.775  13.044  0.4415  2.2752  2.4207
 8265TIP3    H248991   5.550   6.859  12.919  0.5457 -1.3233 -0.1557
 8266TIP3   OH248992   1.250   3.012  11.653  0.2519 -0.2990  0.5927
 8266TIP3    H148993   1.251   2.941  11.590  2.2804 -0.9322  1.2795
 8266TIP3    H248994   1.217   2.972  11.734  0.6355 -0.2667  0.7671
 8267TIP3   OH248995   4.513   6.341  10.802  0.1388  0.1415  0.1762
 8267TIP3    H148996   4.527   6.430  10.770  0.0564 -0.1603 -0.7598
 8267TIP3    H248997   4.427   6.317  10.767  0.3227 -0.4265  0.1052
 8268TIP3   OH248998   0.107   5.716  11.972 -0.5521 -0.0778  0.5734
 8268TIP3    H148999   0.018   5.698  12.003 -0.4353 -1.7104  0.0913
 8268TIP3    H249000   0.145   5.629  11.958 -0.4132  0.4716 -3.6671
 8269TIP3   OH249001   4.121   3.974  11.592  0.0967  0.0595 -0.1597
 8269TIP3    H149002   4.169   4.045  11.549  2.4805 -2.3652 -1.8400
 8269TIP3    H249003   4.073   3.931  11.522 -1.6406  0.1983  0.9052
 8270TIP3   OH249004   0.624   6.458  11.156 -0.0663 -0.4613  0.1142
 8270TIP3    H149005   0.568   6.461  11.234 -1.8513 -0.6362 -1.1100
 8270TIP3    H249006   0.604   6.540  11.110 -0.9214 -1.4569 -1.3746
 8271TIP3   OH249007   2.438   4.314  12.359  0.6518 -0.5610  0.6501
 8271TIP3    H149008   2.490   4.307  12.439 -0.0241 -1.4077  1.0420
 8271TIP3    H249009   2.447   4.229  12.316  0.9437 -0.1410 -0.1428
 8272TIP3   OH249010   0.805   5.642  10.698 -0.5710  0.5223 -0.2873
 8272TIP3    H149011   0.752   5.614  10.772 -1.1962  0.0702 -0.8836
 8272TIP3    H249012   0.772   5.589  10.624  1.0406 -0.1371 -0.5792
 8273TIP3   OH249013   5.099   3.251  11.032  0.4309  0.4806  0.1546
 8273TIP3    H149014   5.144   3.296  10.961  1.7624 -1.1380 -0.0911
 8273TIP3    H249015   5.160   3.257  11.106  0.6692 -0.9166  0.0936
 8274TIP3   OH249016   0.610   3.552  10.562 -0.3868 -0.0549 -0.1646
 8274TIP3    H149017   0.695   3.527  10.526 -0.0411  0.1769  0.4739
 8274TIP3    H249018   0.625   3.638  10.602 -1.2413  0.5996 -1.1996
 8275TIP3   OH249019   1.338   2.488  13.444 -0.5699 -0.7534 -0.5414
 8275TIP3    H149020   1.406   2.530  13.392  2.6892 -1.9914  2.3439
 8275TIP3    H249021   1.314   2.553  13.510 -1.1164 -0.8142 -0.6807
 8276TIP3   OH249022   4.263   5.324  11.039  0.1861  1.0124 -0.0513
 8276TIP3    H149023   4.270   5.261  10.967 -2.2388  0.5228  0.0505
 8276TIP3    H249024   4.353   5.354  11.053  1.2621 -1.5031 -0.9145
 8277TIP3   OH249025   6.349   1.563  11.451  0.3074 -0.0318  0.2360
 8277TIP3    H149026   6.260   1.531  11.437 -0.0731  1.1998 -0.3218
 8277TIP3    H249027   6.357   1.571  11.546 -0.2060 -0.0759  0.2829
 8278TIP3   OH249028   7.139   5.652  12.089  0.5236  0.2487 -0.1207
 8278TIP3    H149029   7.126   5.587  12.020  0.5665  0.8728 -0.7291
 8278TIP3    H249030   7.234   5.663  12.094  0.4987  0.5680 -0.3146
 8279TIP3   OH249031   3.351   4.961  12.309  0.0681 -0.4326 -0.1134
 8279TIP3    H149032   3.387   5.046  12.336  0.4119 -0.5618 -0.1640
 8279TIP3    H249033   3.322   4.921  12.391 -1.9086  0.5519 -0.2778
 8280TIP3   OH249034   7.348   2.594  10.192  0.3497 -0.2683  0.1168
 8280TIP3    H149035   7.373   2.574  10.101  0.1923  1.9201 -0.4674
 8280TIP3    H249036   7.324   2.510  10.229  1.2830 -1.3639 -1.6014
 8281TIP3   OH249037   5.284   6.163  11.995  0.8566 -0.0533  0.0857
 8281TIP3    H149038   5.346   6.127  12.058 -0.2466 -0.2134  1.1017
 8281TIP3    H249039   5.201   6.165  12.041  0.0442 -0.0573 -1.3313
 8282TIP3   OH249040   2.911   5.666  12.995 -0.3246 -0.2886  0.0991
 8282TIP3    H149041   2.868   5.750  13.010 -0.2834  0.5489 -3.6348
 8282TIP3    H249042   2.887   5.613  13.072 -3.8787  1.7250  0.5862
 8283TIP3   OH249043   4.610   1.372  12.958  0.1144  0.4372  0.7007
 8283TIP3    H149044   4.616   1.468  12.963 -0.1855  0.5193 -0.3063
 8283TIP3    H249045   4.700   1.342  12.975  0.4573  0.9642 -0.1147
 8284TIP3   OH249046   0.375   4.909  11.489 -0.5577  0.2105  0.3194
 8284TIP3    H149047   0.282   4.896  11.507  0.0256 -0.7779  3.0923
 8284TIP3    H249048   0.401   4.829  11.443 -0.7965 -0.1608  0.8176
 8285TIP3   OH249049   1.562   0.081  11.595  0.8430  0.1536  0.0002
 8285TIP3    H149050   1.635   0.028  11.562  1.7695  0.6702  1.1495
 8285TIP3    H249051   1.491   0.018  11.609  1.1248 -0.3937 -0.9052
 8286TIP3   OH249052   7.484   6.889  12.923  0.0052  0.2037  0.1027
 8286TIP3    H149053   7.535   6.895  12.842  0.9233 -0.7350  0.5930
 8286TIP3    H249054   7.513   6.963  12.976 -0.2790  0.5663 -0.2418
 8287TIP3   OH249055   2.896   0.926  12.369 -0.4025 -0.0572  0.1500
 8287TIP3    H149056   2.982   0.956  12.341  0.3488 -0.9175  1.4802
 8287TIP3    H249057   2.880   0.846  12.319 -0.5669  0.2507 -0.2982
 8288TIP3   OH249058   2.798   5.089  10.916 -0.2212 -0.3779 -0.0208
 8288TIP3    H149059   2.724   5.051  10.868  0.7844  0.4557 -2.3471
 8288TIP3    H249060   2.866   5.021  10.913  0.2218  0.0891 -0.7588
 8289TIP3   OH249061   0.752   1.295  11.229 -0.0140 -0.5714  0.1132
 8289TIP3    H149062   0.768   1.243  11.308  1.8230  1.5543  1.2809
 8289TIP3    H249063   0.664   1.330  11.241  0.1079 -0.5645  1.0651
 8290TIP3   OH249064   6.155   2.377  10.128 -0.0212 -0.5477 -0.4184
 8290TIP3    H149065   6.222   2.324  10.172  0.5115  1.1352  0.9377
 8290TIP3    H249066   6.080   2.319  10.118  0.9554 -1.9025 -0.1294
 8291TIP3   OH249067   0.197   2.879  10.715 -0.0258  0.2860 -0.2431
 8291TIP3    H149068   0.143   2.803  10.695  0.2695  0.0267 -0.0759
 8291TIP3    H249069   0.174   2.901  10.805  0.5656 -0.1931  0.0374
 8292TIP3   OH249070   3.286   5.772  11.489 -0.4380  0.2558 -0.8766
 8292TIP3    H149071   3.325   5.832  11.426 -1.6623  1.4896 -0.5236
 8292TIP3    H249072   3.216   5.727  11.441 -2.4008  2.2951 -0.1483
 8293TIP3   OH249073   6.887   1.707  12.323 -0.5173  0.0602  0.2485
 8293TIP3    H149074   6.963   1.678  12.373 -0.8017 -0.2127  0.5233
 8293TIP3    H249075   6.924   1.737  12.240  0.0319  1.2058  0.8915
 8294TIP3   OH249076   4.755   3.374  10.760  0.6576  0.2412 -0.0894
 8294TIP3    H149077   4.822   3.324  10.713 -0.4848 -1.5711  0.1085
 8294TIP3    H249078   4.786   3.376  10.850  2.7101  3.4764 -0.6934
 8295TIP3   OH249079   4.838   6.873  11.012 -0.4825  0.5351 -0.1795
 8295TIP3    H149080   4.768   6.819  10.976 -0.5034  1.0571 -0.9450
 8295TIP3    H249081   4.803   6.962  11.012 -0.7292  0.4909  1.7754
 8296TIP3   OH249082   1.452   2.384  12.740  0.0097  0.6453  0.2044
 8296TIP3    H149083   1.447   2.477  12.720  0.3441  0.2678 -1.7961
 8296TIP3    H249084   1.429   2.339  12.659 -2.1773 -1.0745  1.6427
 8297TIP3   OH249085   1.194   5.911  12.245  0.1969  0.6124 -0.2908
 8297TIP3    H149086   1.282   5.895  12.277  0.4279  0.0876 -1.1630
 8297TIP3    H249087   1.155   5.970  12.310  0.6802 -0.3204  0.8880
 8298TIP3   OH249088   0.344   5.811  11.212  0.3806  0.3909 -0.2225
 8298TIP3    H149089   0.296   5.890  11.187  0.9224  0.6401 -0.4942
 8298TIP3    H249090   0.277   5.744  11.221  0.0951  0.4465 -1.7442
 8299TIP3   OH249091   4.921   0.570  10.358  0.1799 -0.7368 -0.0168
 8299TIP3    H149092   4.849   0.566  10.421 -0.0284 -0.0023 -0.1957
 8299TIP3    H249093   4.971   0.647  10.384  0.1025 -0.4357 -0.7373
 8300TIP3   OH249094   0.319   4.475  10.708  0.6695  0.2184 -0.1248
 8300TIP3    H149095   0.288   4.489  10.798 -2.0921  0.1360 -0.9615
 8300TIP3    H249096   0.265   4.403  10.676  1.9136 -0.0399 -1.7355
 8301TIP3   OH249097   6.074   0.401  11.970  0.0528  1.0680 -0.2967
 8301TIP3    H149098   6.039   0.316  11.942 -0.4085  1.3157 -0.4807
 8301TIP3    H249099   6.004   0.463  11.950 -0.1567  1.3067  1.0966
 8302TIP3   OH249100   2.422   0.199  13.162  0.3569  0.4151  0.3403
 8302TIP3    H149101   2.355   0.149  13.207 -0.3235  0.1061 -0.9588
 8302TIP3    H249102   2.503   0.180  13.209  0.2164 -2.3149 -0.3629
 8303TIP3   OH249103   2.259   3.622  12.568  0.1359  0.2481 -0.1266
 8303TIP3    H149104   2.168   3.635  12.538  0.3097 -1.1569 -1.3838
 8303TIP3    H249105   2.284   3.537  12.532  2.0231  0.6929  0.0459
 8304TIP3   OH249106   0.030   7.648  11.132 -0.8471  0.7594  0.0619
 8304TIP3    H149107   0.008   7.589  11.060  2.3388  2.3176 -2.4326
 8304TIP3    H249108  -0.015   7.730  11.111  0.0752  1.2175 -0.1374
 8305TIP3   OH249109   0.598   4.118  12.241 -0.9717  0.2115 -0.5135
 8305TIP3    H149110   0.545   4.179  12.293  1.9327  2.2631  0.2758
 8305TIP3    H249111   0.577   4.140  12.150  0.7654  3.3397 -0.3002
 8306TIP3   OH249112   3.078   2.339  12.019 -0.1952 -0.0714 -0.2324
 8306TIP3    H149113   2.997   2.290  12.029  0.0165 -0.6709 -1.3022
 8306TIP3    H249114   3.097   2.335  11.925  1.0581  0.0662 -0.0005
 8307TIP3   OH249115   1.721   3.676  12.453 -0.1465 -0.3865  0.1266
 8307TIP3    H149116   1.643   3.700  12.504 -0.5928 -0.1113 -0.6749
 8307TIP3    H249117   1.716   3.730  12.375 -0.1869 -1.7607 -0.8590
 8308TIP3   OH249118   6.077   5.998  11.091 -0.8327  0.2123 -0.0092
 8308TIP3    H149119   6.023   5.920  11.080  0.0687 -0.5433  0.7327
 8308TIP3    H249120   6.017   6.063  11.127 -1.0061 -1.0214  2.1191
 8309TIP3   OH249121   6.898   5.476  12.508 -0.0133  0.1233 -0.1835
 8309TIP3    H149122   6.832   5.542  12.486 -0.3672 -0.0925  0.2252
 8309TIP3    H249123   6.856   5.421  12.575  0.6615  0.1130  0.2346
 8310TIP3   OH249124   3.518   0.585  11.087 -0.0259  0.4796 -0.2618
 8310TIP3    H149125   3.586   0.571  11.152 -0.8100  1.2305  0.7535
 8310TIP3    H249126   3.446   0.528  11.114  0.2648 -0.4867 -1.4590
 8311TIP3   OH249127   4.876   6.718  11.962 -0.0738  0.4540  0.1227
 8311TIP3    H149128   4.890   6.692  12.053  0.7049  0.0658 -0.0975
 8311TIP3    H249129   4.790   6.683  11.940 -0.6245  1.2425  0.9453
 8312TIP3   OH249130   5.821   1.572  11.829 -0.5891 -0.5898 -0.5041
 8312TIP3    H149131   5.870   1.561  11.910  0.1428  0.7451 -0.7348
 8312TIP3    H249132   5.797   1.665  11.827 -3.0412 -1.1511 -0.4704
 8313TIP3   OH249133   7.576   1.501  11.595  0.0101 -0.3620 -0.3760
 8313TIP3    H149134   7.495   1.477  11.640 -0.1285  0.9346  0.1048
 8313TIP3    H249135   7.550   1.515  11.504 -0.2116 -0.4580 -0.3273
 8314TIP3   OH249136   3.543   4.205  11.615  0.5683  0.3781  0.2491
 8314TIP3    H149137   3.614   4.141  11.605 -0.0346 -0.0242 -1.8591
 8314TIP3    H249138   3.579   4.286  11.579  0.1363  0.2955 -0.3822
 8315TIP3   OH249139   6.952   3.778  10.580  0.2566 -0.0419  0.5008
 8315TIP3    H149140   6.930   3.727  10.502 -0.2943  1.2996 -0.2582
 8315TIP3    H249141   7.031   3.827  10.556 -0.0303  0.5311  0.7097
 8316TIP3   OH249142   0.855   4.051  12.306  0.2278  0.0224 -0.2665
 8316TIP3    H149143   0.765   4.073  12.282 -0.6678 -0.4386  2.3639
 8316TIP3    H249144   0.909   4.110  12.254 -1.6259  1.1089 -1.0552
 8317TIP3   OH249145   2.846   4.819  13.571  0.4809 -0.1584  0.6788
 8317TIP3    H149146   2.761   4.792  13.535 -0.4371 -0.4725  2.8973
 8317TIP3    H249147   2.906   4.748  13.547 -0.2163 -0.6169  0.2509
 8318TIP3   OH249148   5.324   1.736  12.465  0.4853  1.1418 -0.5182
 8318TIP3    H149149   5.414   1.723  12.492  0.4920 -1.3342 -1.5038
 8318TIP3    H249150   5.272   1.687  12.529 -0.1387  1.9386 -0.3857
 8319TIP3   OH249151   4.139   1.543  11.387  0.0651  0.3423 -0.3737
 8319TIP3    H149152   4.229   1.568  11.409  0.2019  1.0687 -1.6396
 8319TIP3    H249153   4.085   1.590  11.450  0.5173  1.0977 -0.5335
 8320TIP3   OH249154   6.140   0.589  12.738  0.1644 -0.4266 -0.4546
 8320TIP3    H149155   6.084   0.597  12.816 -0.4190  1.1297 -0.9763
 8320TIP3    H249156   6.227   0.617  12.768 -0.0481  0.1245 -0.3338
 8321TIP3   OH249157   6.065   0.941  10.808 -0.1022 -0.1992 -0.4380
 8321TIP3    H149158   6.021   0.875  10.862 -0.9054  0.3260 -0.4182
 8321TIP3    H249159   6.115   0.993  10.871 -1.9007  1.0923  0.0057
 8322TIP3   OH249160   2.174   3.894  12.123  0.2003  0.4514  0.6699
 8322TIP3    H149161   2.169   3.802  12.151 -0.7966 -0.2275 -1.5719
 8322TIP3    H249162   2.086   3.928  12.137  0.0611  0.5033 -0.3149
 8323TIP3   OH249163   1.176   0.440  11.426  0.3293 -0.1665  0.4575
 8323TIP3    H149164   1.147   0.473  11.511 -0.7068  0.6182 -0.1867
 8323TIP3    H249165   1.100   0.398  11.389  0.2348  1.0812 -0.8443
 8324TIP3   OH249166   2.906   0.832  11.094 -0.1360 -0.1574  0.0639
 8324TIP3    H149167   2.994   0.870  11.100 -0.1622 -0.0144 -0.4151
 8324TIP3    H249168   2.911   0.771  11.020 -0.7698  0.7898 -0.7971
 8325TIP3   OH249169   3.909   5.606  10.892 -0.6148  0.4100  0.2840
 8325TIP3    H149170   3.997   5.637  10.871 -0.6042  0.5239  0.4948
 8325TIP3    H249171   3.852   5.654  10.832 -0.3019 -1.8242 -2.0164
 8326TIP3   OH249172   6.417   7.574  11.849 -0.0157  0.0361  0.1376
 8326TIP3    H149173   6.351   7.513  11.879 -0.3968 -0.0166 -0.8021
 8326TIP3    H249174   6.371   7.635  11.792  0.4672  0.8649  0.5969
 8327TIP3   OH249175   4.806   5.324  12.884 -0.1411 -0.0674  0.2469
 8327TIP3    H149176   4.816   5.252  12.946 -0.7046  0.4630  0.9671
 8327TIP3    H249177   4.822   5.284  12.798  0.2527 -0.8937  0.6915
 8328TIP3   OH249178   4.501   7.436  10.631 -0.0131  0.1151  0.4262
 8328TIP3    H149179   4.429   7.481  10.586 -1.0867 -1.6360  0.3056
 8328TIP3    H249180   4.462   7.356  10.666  1.6125 -0.2948  1.4450
 8329TIP3   OH249181   4.842   3.303  12.401 -0.1823 -0.6907 -0.0010
 8329TIP3    H149182   4.763   3.300  12.454  0.1375 -1.0629  0.4585
 8329TIP3    H249183   4.850   3.215  12.363 -0.2042 -0.5383 -0.3645
 8330TIP3   OH249184   6.121   6.624  12.104 -0.0281 -0.6946  0.3721
 8330TIP3    H149185   6.204   6.625  12.151 -0.4892  0.1001  1.2094
 8330TIP3    H249186   6.139   6.670  12.022  0.8368 -2.2862 -0.3709
 8331TIP3   OH249187   1.157   7.665  12.879  0.3434 -0.5821 -0.3324
 8331TIP3    H149188   1.124   7.658  12.969  2.1729 -0.9348  0.3603
 8331TIP3    H249189   1.194   7.753  12.874 -1.3694  0.1316 -1.3732
 8332TIP3   OH249190   0.257   6.804  10.686 -0.4564 -0.2669  0.1662
 8332TIP3    H149191   0.227   6.715  10.669  0.1760 -0.5889  0.6887
 8332TIP3    H249192   0.291   6.801  10.776 -0.4784  0.5117  0.2073
 8333TIP3   OH249193   0.510   4.042  11.846 -0.0689 -0.1313 -0.9113
 8333TIP3    H149194   0.459   4.001  11.776 -1.1143 -0.8978  0.2682
 8333TIP3    H249195   0.585   3.983  11.860 -0.3589 -0.4631 -0.7524
 8334TIP3   OH249196   3.324   4.855  11.506 -0.1110 -0.4280 -0.0524
 8334TIP3    H149197   3.377   4.929  11.537  0.0075  0.3038 -1.8245
 8334TIP3    H249198   3.379   4.778  11.521  0.3620  0.0177  0.5461
 8335TIP3   OH249199   2.969   0.108  11.201 -0.2757  0.1122 -0.6312
 8335TIP3    H149200   2.954   0.203  11.211  1.5043  0.2799  0.8031
 8335TIP3    H249201   2.892   0.078  11.152 -0.6900  2.3541 -1.5084
 8336TIP3   OH249202   6.534   2.256  17.658 -0.4183 -0.7435 -0.2778
 8336TIP3    H149203   6.627   2.263  17.681  0.0132 -3.0031 -1.0594
 8336TIP3    H249204   6.488   2.283  17.738  0.8762  0.7890 -0.0029
 8337TIP3   OH249205   4.117   4.364  11.014  0.0213  0.1703 -0.0247
 8337TIP3    H149206   4.092   4.329  10.928 -1.4604  0.7770  0.1301
 8337TIP3    H249207   4.207   4.396  11.001  0.0874 -0.3908 -1.1380
 8338TIP3   OH249208   4.136   2.939  11.212  0.3566  0.4774 -0.5333
 8338TIP3    H149209   4.207   2.927  11.148  0.1601  0.4181 -0.7405
 8338TIP3    H249210   4.090   2.855  11.213  0.0820  0.6288 -0.6481
 8339TIP3   OH249211   2.037   0.604  11.015 -0.3862 -0.0669  0.1869
 8339TIP3    H149212   1.973   0.572  11.078  0.1095  0.8213  1.1829
 8339TIP3    H249213   2.110   0.635  11.069  0.3746  0.0356 -0.8654
 8340TIP3   OH249214   0.956   1.857  12.251 -0.2951 -0.1789  0.2436
 8340TIP3    H149215   0.876   1.810  12.277 -0.0137 -0.4269  0.6634
 8340TIP3    H249216   0.967   1.924  12.318 -0.8672  0.7109 -0.5188
 8341TIP3   OH249217   6.254   3.197  12.811 -0.2937 -0.6062  0.4036
 8341TIP3    H149218   6.239   3.211  12.905 -2.7195  0.3084 -0.0348
 8341TIP3    H249219   6.295   3.277  12.781  2.2798 -1.6259  0.9380
 8342TIP3   OH249220   2.737   0.190  10.914 -0.2726 -0.5073 -0.0178
 8342TIP3    H149221   2.696   0.247  10.980 -1.0362  0.0294 -0.9262
 8342TIP3    H249222   2.717   0.233  10.830 -1.0680 -2.2316 -0.7535
 8343TIP3   OH249223   0.746   5.733  12.646  0.4618  0.1106  0.1985
 8343TIP3    H149224   0.655   5.765  12.648  0.2643 -0.2846 -1.3342
 8343TIP3    H249225   0.762   5.704  12.736 -1.0879 -0.2353  0.4055
 8344TIP3   OH249226   7.514   6.710  10.993  0.3773  0.1736 -0.6208
 8344TIP3    H149227   7.565   6.629  10.990  2.9402  1.6465  0.0641
 8344TIP3    H249228   7.469   6.713  10.909  0.0565 -2.0354 -0.5789
 8345TIP3   OH249229   2.504   6.706  12.612  0.8880  0.4094 -0.0818
 8345TIP3    H149230   2.441   6.758  12.563  0.4882  0.9833  1.0002
 8345TIP3    H249231   2.571   6.682  12.548  0.0116  0.4992 -1.0577
 8346TIP3   OH249232   0.146   7.049  10.626  0.1945  0.6137  0.6069
 8346TIP3    H149233   0.161   7.070  10.718  0.2054 -1.4069  1.1144
 8346TIP3    H249234   0.165   6.955  10.619  0.8362  0.8514 -1.6051
 8347TIP3   OH249235   0.303   5.991  10.965  0.0212  0.4904  0.0291
 8347TIP3    H149236   0.236   6.034  10.912 -0.2605 -1.5911 -1.4157
 8347TIP3    H249237   0.385   6.035  10.941 -0.2566  0.3062 -1.3376
 8348TIP3   OH249238   4.231   5.181  18.103  0.0892 -0.2432 -0.0817
 8348TIP3    H149239   4.206   5.090  18.120 -1.0178  0.2567  1.0777
 8348TIP3    H249240   4.162   5.214  18.045  0.8816 -0.3248 -1.1088
 8349TIP3   OH249241   2.221   6.678  12.303 -0.0021  0.3570 -0.1761
 8349TIP3    H149242   2.218   6.681  12.208 -0.7744  0.0983 -0.1672
 8349TIP3    H249243   2.242   6.587  12.324  0.2726  0.4366 -0.1003
 8350TIP3   OH249244   0.626   3.876  11.360 -0.4158  0.2195 -0.0752
 8350TIP3    H149245   0.549   3.926  11.388  0.3654 -0.0109  2.9298
 8350TIP3    H249246   0.666   3.929  11.291 -0.4626  3.0755  1.8981
 8351TIP3   OH249247   3.671   1.715  11.215 -0.6741 -0.2094 -0.0150
 8351TIP3    H149248   3.634   1.745  11.132  3.9000 -1.9640 -3.0628
 8351TIP3    H249249   3.742   1.777  11.234 -0.0051 -1.2940  1.1752
 8352TIP3   OH249250   2.259   5.722  11.565  0.0734 -0.1842 -0.3442
 8352TIP3    H149251   2.306   5.785  11.510 -0.3482 -0.6646 -1.2734
 8352TIP3    H249252   2.267   5.757  11.654  1.1985  0.3424 -0.6361
 8353TIP3   OH249253   7.386   1.072  12.427  0.3804 -0.2677  0.5474
 8353TIP3    H149254   7.356   1.152  12.470 -0.8074 -0.3355 -0.1096
 8353TIP3    H249255   7.478   1.065  12.451 -0.1688 -0.2042  2.9113
 8354TIP3   OH249256   4.104   6.658  12.697 -0.1071 -0.4841  0.4480
 8354TIP3    H149257   4.120   6.716  12.623 -0.0125 -1.2151 -0.1120
 8354TIP3    H249258   4.137   6.706  12.773 -1.9303  1.0972  0.3174
 8355TIP3   OH249259   6.448   3.100  12.002  0.6555  0.5129  0.3634
 8355TIP3    H149260   6.383   3.030  11.988  1.1912  0.3835 -1.7580
 8355TIP3    H249261   6.456   3.106  12.097 -1.2316 -0.6128  0.6456
 8356TIP3   OH249262   4.862   6.730  11.633  0.1683 -0.2515  0.0041
 8356TIP3    H149263   4.900   6.738  11.720 -0.2941 -0.6308  0.2393
 8356TIP3    H249264   4.932   6.690  11.581  0.4117 -0.1093  0.2159
 8357TIP3   OH249265   6.871   0.528  12.933  0.1166 -0.1726 -0.4518
 8357TIP3    H149266   6.885   0.461  13.000  0.5802  1.6087  1.3233
 8357TIP3    H249267   6.788   0.569  12.958  0.2422  0.4611 -1.0528
 8358TIP3   OH249268   0.383   5.441  12.533 -0.3937  0.2479 -0.3121
 8358TIP3    H149269   0.394   5.511  12.468 -0.6772 -0.0769 -0.7151
 8358TIP3    H249270   0.408   5.362  12.486 -0.0732  0.0778  0.1461
 8359TIP3   OH249271   6.920   5.793  12.112  0.1946  0.0151  0.0268
 8359TIP3    H149272   6.946   5.862  12.051  2.0867  0.9604  1.7842
 8359TIP3    H249273   6.993   5.731  12.111 -0.3504 -0.6451  0.3630
 8360TIP3   OH249274   3.834   4.360  12.496  0.1949  0.3354  0.3333
 8360TIP3    H149275   3.926   4.386  12.498 -0.1094  1.5372 -0.4846
 8360TIP3    H249276   3.832   4.281  12.442  0.6062  0.8930 -0.5006
 8361TIP3   OH249277   4.673   1.895  13.011 -0.3527  0.0635 -0.0150
 8361TIP3    H149278   4.646   1.902  13.102 -0.3650 -1.2406  0.0884
 8361TIP3    H249279   4.606   1.944  12.963 -1.8327 -1.4524  0.4349
 8362TIP3   OH249280   6.224   5.029  11.339  0.0788 -0.1134 -0.5025
 8362TIP3    H149281   6.254   5.024  11.248  0.0151 -0.7469 -0.4948
 8362TIP3    H249282   6.304   5.016  11.391 -0.2262 -2.2967 -0.4813
 8363TIP3   OH249283   0.542   2.740  12.289  0.2140 -0.3768 -0.2995
 8363TIP3    H149284   0.575   2.785  12.366 -0.9467  0.1917 -0.1078
 8363TIP3    H249285   0.574   2.651  12.297 -0.6634 -0.5688  1.3351
 8364TIP3   OH249286   2.686   3.454  12.387 -0.2410 -0.4537 -0.6917
 8364TIP3    H149287   2.656   3.407  12.465  0.1414  1.7311  0.8779
 8364TIP3    H249288   2.781   3.461  12.398 -0.4739  2.5314  0.3560
 8365TIP3   OH249289   4.859   0.826  13.063  0.0113  0.2652 -0.1537
 8365TIP3    H149290   4.815   0.798  12.983 -2.8544  0.3758  1.2461
 8365TIP3    H249291   4.945   0.857  13.034 -0.7260 -0.1329 -3.0824
 8366TIP3   OH249292   2.768   6.650  10.780 -0.2167  0.0704 -0.2497
 8366TIP3    H149293   2.734   6.733  10.747  0.8761  0.8078  0.4334
 8366TIP3    H249294   2.844   6.631  10.725 -0.0191 -0.0861  0.0693
 8367TIP3   OH249295   4.922   6.602  12.208 -0.3616  0.3985  0.4240
 8367TIP3    H149296   4.967   6.552  12.276 -0.7082  0.9355  1.0624
 8367TIP3    H249297   4.831   6.576  12.216 -0.3500  0.1996 -0.0773
 8368TIP3   OH249298   3.946   1.301  10.651  0.0054  0.4281  0.3601
 8368TIP3    H149299   3.953   1.319  10.745  1.9699  0.5478  0.2396
 8368TIP3    H249300   4.016   1.238  10.634 -0.1221  0.6399 -1.0678
 8369TIP3   OH249301   4.733   0.334  12.373 -0.1225 -0.0902 -0.4449
 8369TIP3    H149302   4.655   0.316  12.320  1.0477 -2.4808 -1.4657
 8369TIP3    H249303   4.765   0.247  12.399  1.7760  0.8624  0.5939
 8370TIP3   OH249304   0.341   0.661  10.502  0.4392 -0.2890  0.1203
 8370TIP3    H149305   0.272   0.595  10.515 -0.0789  0.4085  1.0068
 8370TIP3    H249306   0.294   0.744  10.495  1.1313  0.0711 -0.3368
 8371TIP3   OH249307   6.199   6.757  12.688 -0.2074 -0.2155 -0.7649
 8371TIP3    H149308   6.182   6.663  12.689  0.2025 -0.4570  4.2183
 8371TIP3    H249309   6.113   6.797  12.704  0.1919 -0.0314  1.0299
 8372TIP3   OH249310   0.318   2.568  12.043 -0.3354 -0.0536  0.5891
 8372TIP3    H149311   0.301   2.518  11.963 -0.1847  0.8795 -0.0460
 8372TIP3    H249312   0.408   2.547  12.066  0.2258  1.0288 -0.5141
 8373TIP3   OH249313   0.777   4.289  13.230 -0.4148  0.2464  0.1685
 8373TIP3    H149314   0.693   4.244  13.223 -1.5074  2.1925  0.1171
 8373TIP3    H249315   0.771   4.362  13.168  1.2441  0.5284  0.2963
 8374TIP3   OH249316   0.251   1.138  11.557  0.3203 -0.0329 -0.3571
 8374TIP3    H149317   0.188   1.154  11.487  0.3058  1.4029 -0.0532
 8374TIP3    H249318   0.280   1.225  11.584 -1.3118 -0.3079  2.8958
 8375TIP3   OH249319   5.213   6.683  12.100 -0.1180  0.0911 -0.0777
 8375TIP3    H149320   5.300   6.647  12.081 -0.1801 -0.8582  1.2446
 8375TIP3    H249321   5.163   6.667  12.020  0.8067  0.2716 -0.7099
 8376TIP3   OH249322   6.621   7.365  12.473  0.1194 -0.2081  0.1712
 8376TIP3    H149323   6.528   7.387  12.468 -0.2599 -1.7329  0.1002
 8376TIP3    H249324   6.638   7.315  12.393  0.7259 -0.9239  0.7409
 8377TIP3   OH249325   2.478   0.814  10.623  0.0962 -0.7904  0.0322
 8377TIP3    H149326   2.515   0.808  10.535  2.6036 -0.0839  0.9680
 8377TIP3    H249327   2.515   0.895  10.659 -0.7746 -1.1373  1.7939
 8378TIP3   OH249328   5.859   0.178  10.404  1.0687  0.0120  0.2104
 8378TIP3    H149329   5.772   0.162  10.442  2.0607  0.2102  2.7514
 8378TIP3    H249330   5.850   0.260  10.357 -0.1142  0.0431  0.4498
 8379TIP3   OH249331   2.461   0.447  12.517 -0.4806 -0.1654  0.1331
 8379TIP3    H149332   2.376   0.406  12.535 -0.0389 -1.3703 -0.4113
 8379TIP3    H249333   2.497   0.465  12.604 -1.5170  0.8847  0.3725
 8380TIP3   OH249334   4.435   2.329  12.149 -0.4880 -0.1450  0.2213
 8380TIP3    H149335   4.373   2.259  12.168  0.4033 -0.6968  1.2434
 8380TIP3    H249336   4.511   2.285  12.112 -0.2629  0.3921  0.0309
 8381TIP3   OH249337   3.690   2.663  12.260 -0.3347 -0.6086  0.2624
 8381TIP3    H149338   3.648   2.686  12.177 -1.5941 -2.7659  0.2400
 8381TIP3    H249339   3.756   2.599  12.237 -0.4226 -0.9264  0.8676
 8382TIP3   OH249340   2.026   2.913  13.054 -0.4458 -0.5044 -0.6077
 8382TIP3    H149341   1.979   2.919  13.137  0.4650  0.1009 -0.1252
 8382TIP3    H249342   2.037   3.003  13.025 -1.1886 -0.7219 -1.6584
 8383TIP3   OH249343   6.271   5.319  11.158 -0.0317  0.3570  0.2487
 8383TIP3    H149344   6.184   5.357  11.163  0.5655  2.0783 -1.1203
 8383TIP3    H249345   6.266   5.255  11.087 -0.0820  0.8301 -0.1824
 8384TIP3   OH249346   6.974   5.097  11.971  0.1201 -0.0505 -0.3114
 8384TIP3    H149347   7.000   5.175  12.021  0.9353  0.6259 -1.7182
 8384TIP3    H249348   7.047   5.036  11.980 -0.0008 -0.1746 -0.1715
 8385TIP3   OH249349   2.284   0.344  10.822  0.0282  0.0505  0.2026
 8385TIP3    H149350   2.357   0.393  10.785  0.0193 -0.5900 -0.6742
 8385TIP3    H249351   2.281   0.371  10.914  0.8384  0.7027  0.0429
 8386TIP3   OH249352   1.782   6.309  11.966  0.1340 -0.1596 -0.2678
 8386TIP3    H149353   1.754   6.217  11.962 -1.0929  0.1301  0.8702
 8386TIP3    H249354   1.705   6.358  11.937  1.0707  0.5063 -1.7545
 8387TIP3   OH249355   6.578   4.255  11.622 -0.4265  0.2321 -0.2716
 8387TIP3    H149356   6.490   4.250  11.585 -0.4178  0.0854 -0.2723
 8387TIP3    H249357   6.593   4.168  11.660  0.0124  0.0122 -0.9437
 8388TIP3   OH249358   3.721   4.074  12.984  0.3215 -0.2378 -0.1036
 8388TIP3    H149359   3.755   4.160  13.007  0.1575 -0.1292 -0.2598
 8388TIP3    H249360   3.642   4.064  13.038  0.9651 -0.7765  0.7664
 8389TIP3   OH249361   7.580   6.181  10.436 -0.5055 -0.6977  0.0811
 8389TIP3    H149362   7.633   6.113  10.395  1.6467 -1.1216  3.1529
 8389TIP3    H249363   7.537   6.137  10.509 -1.7175  0.5814  0.1805
 8390TIP3   OH249364   7.667   3.240  13.415  0.8440 -0.4409 -0.2181
 8390TIP3    H149365   7.591   3.293  13.391  0.5741 -0.3764  0.7697
 8390TIP3    H249366   7.686   3.190  13.335  0.9411  0.9167 -1.0892
 8391TIP3   OH249367   6.560   0.089  12.163  0.2032  0.0906 -0.1378
 8391TIP3    H149368   6.506   0.025  12.209  1.7201 -0.0159  1.6313
 8391TIP3    H249369   6.609   0.038  12.098 -0.3043 -0.1373 -0.3468
 8392TIP3   OH249370   4.459   5.035  12.971 -0.5388 -0.1752 -0.4675
 8392TIP3    H149371   4.367   5.062  12.966 -0.3134  0.6709 -0.2362
 8392TIP3    H249372   4.455   4.941  12.988 -1.3775 -0.0461  0.1586
 8393TIP3   OH249373   2.184   7.013  10.818  0.1770  0.1484 -0.0454
 8393TIP3    H149374   2.185   6.978  10.907 -0.0635 -0.0552 -0.1214
 8393TIP3    H249375   2.210   7.104  10.828 -1.4084  0.5788  0.4342
 8394TIP3   OH249376   3.439   6.137  13.043  0.2877 -0.0478  0.0890
 8394TIP3    H149377   3.391   6.206  12.998  1.6820 -0.8834 -2.9889
 8394TIP3    H249378   3.373   6.095  13.099 -0.6692  3.4087  1.7946
 8395TIP3   OH249379   0.242   2.280  10.710  0.2886  0.2594  0.0226
 8395TIP3    H149380   0.218   2.248  10.797 -2.1531  1.2688 -0.1787
 8395TIP3    H249381   0.308   2.219  10.679 -1.1779 -2.1383  1.2706
 8396TIP3   OH249382   2.188   7.432  12.060  0.3490  0.1857  0.0152
 8396TIP3    H149383   2.257   7.498  12.066  1.4967 -1.0369  1.2779
 8396TIP3    H249384   2.125   7.457  12.128 -0.0530  0.8711 -0.6077
 8397TIP3   OH249385   4.585   6.542  11.872 -0.3201  0.5947  0.3291
 8397TIP3    H149386   4.629   6.527  11.788 -1.2127  1.8039 -0.3866
 8397TIP3    H249387   4.523   6.469  11.879  1.2220 -0.7065  0.9950
 8398TIP3   OH249388   0.570   1.154  11.813 -0.6224  0.1164 -0.5004
 8398TIP3    H149389   0.598   1.150  11.904 -0.3758 -1.0891 -0.6111
 8398TIP3    H249390   0.580   1.246  11.788 -0.5212  0.4206  0.6271
 8399TIP3   OH249391   0.803   1.022  10.881  0.1906 -0.5188 -0.2866
 8399TIP3    H149392   0.785   0.966  10.957 -1.9408 -1.0241 -1.0856
 8399TIP3    H249393   0.804   1.111  10.917 -0.2208 -0.7980  0.4330
 8400TIP3   OH249394   5.952   0.703  10.977  0.0658  0.2991 -0.6397
 8400TIP3    H149395   5.919   0.613  10.986  0.9826 -0.1118 -1.2671
 8400TIP3    H249396   6.022   0.697  10.913  1.6676  1.0648  0.9493
 8401TIP3   OH249397   6.006   7.145  11.077 -0.4630  0.0346 -0.0720
 8401TIP3    H149398   6.025   7.087  11.151  2.7982  1.0110  0.0141
 8401TIP3    H249399   5.996   7.232  11.116  0.8509  0.4865 -0.6989
 8402TIP3   OH249400   4.012   2.018  11.721 -0.0656  0.0328  0.3485
 8402TIP3    H149401   3.940   2.043  11.664  0.2822 -1.1693 -0.6571
 8402TIP3    H249402   4.091   2.047  11.676  0.2427 -1.3728 -0.0570
 8403TIP3   OH249403   1.357   4.304  13.121 -0.2492 -0.0556  0.3191
 8403TIP3    H149404   1.372   4.397  13.138 -0.1788 -0.0025 -0.0406
 8403TIP3    H249405   1.270   4.287  13.157 -1.3280  0.7125 -1.7838
 8404TIP3   OH249406   3.255   2.159  11.410  0.6037  0.0625 -0.1388
 8404TIP3    H149407   3.201   2.188  11.484  1.4634 -0.9904  0.9303
 8404TIP3    H249408   3.214   2.077  11.381 -0.6723  1.2366 -1.9089
 8405TIP3   OH249409   3.294   4.450  12.401 -0.3665 -0.6747 -0.0854
 8405TIP3    H149410   3.269   4.358  12.396  0.8571 -1.0850  0.6687
 8405TIP3    H249411   3.266   4.488  12.318  1.8808 -2.4863 -1.8192
 8406TIP3   OH249412   4.932   0.527  12.192  0.2210  0.7343 -0.5706
 8406TIP3    H149413   4.882   0.479  12.126 -0.3818  1.0149 -0.3247
 8406TIP3    H249414   4.929   0.618  12.163 -1.2944  1.0880  0.5982
 8407TIP3   OH249415   0.539   2.273  12.664 -0.0323  0.0942  0.4668
 8407TIP3    H149416   0.608   2.222  12.707 -0.3250  0.6493  1.6298
 8407TIP3    H249417   0.479   2.207  12.629  0.4206 -0.3719  0.5550
 8408TIP3   OH249418   0.208   4.336  11.678 -0.4185 -0.4328 -0.4420
 8408TIP3    H149419   0.151   4.259  11.678 -1.0869  0.0490 -0.0309
 8408TIP3    H249420   0.175   4.390  11.749 -1.1393  1.0855 -1.8606
 8409TIP3   OH249421   7.520   1.472  11.979  0.2751 -0.6492 -0.5691
 8409TIP3    H149422   7.455   1.540  11.962  0.2207  0.3481  2.8387
 8409TIP3    H249423   7.469   1.391  11.987 -0.0610 -0.5280 -1.3201
 8410TIP3   OH249424   5.374   5.133  11.185  0.1880  0.6127 -0.4418
 8410TIP3    H149425   5.396   5.220  11.153 -0.3696  0.6702 -0.6795
 8410TIP3    H249426   5.324   5.092  11.114 -0.7660  0.6178  0.1986
 8411TIP3   OH249427   2.442   0.870  11.603 -0.4694 -0.1545  0.1833
 8411TIP3    H149428   2.519   0.820  11.632  0.5018  1.6808  0.9867
 8411TIP3    H249429   2.400   0.814  11.538  1.3248 -1.4041  0.0127
 8412TIP3   OH249430   0.686   2.375  10.352  0.8924 -1.0202 -0.0479
 8412TIP3    H149431   0.764   2.421  10.382 -0.1790  0.8875 -0.0286
 8412TIP3    H249432   0.622   2.387  10.422  0.5537 -2.5628 -0.0555
 8413TIP3   OH249433   0.575   1.208  12.118 -0.6038 -0.2363  0.3548
 8413TIP3    H149434   0.508   1.248  12.173 -0.9752  0.0013 -0.2660
 8413TIP3    H249435   0.630   1.281  12.090  0.2643 -0.4919  1.3075
 8414TIP3   OH249436   0.931   3.859  11.732 -0.2676  0.3368 -0.0738
 8414TIP3    H149437   0.912   3.881  11.641 -0.9928  1.0409  0.2380
 8414TIP3    H249438   1.015   3.899  11.750  0.2122 -0.4014 -0.6357
 8415TIP3   OH249439   1.526   3.345  13.580 -0.1464  0.2323  0.1827
 8415TIP3    H149440   1.579   3.401  13.637  0.2956  0.8825 -0.8508
 8415TIP3    H249441   1.437   3.379  13.589 -0.2612 -0.3083  1.2482
 8416TIP3   OH249442   6.057   2.396  12.599 -0.9976 -0.4066 -0.4312
 8416TIP3    H149443   6.149   2.418  12.616 -1.4488  0.7681  0.7181
 8416TIP3    H249444   6.031   2.453  12.527 -1.2198  0.3982  0.2643
 8417TIP3   OH249445   1.403   4.567  13.097 -0.8222 -0.5123 -0.8283
 8417TIP3    H149446   1.492   4.599  13.081  0.4869 -1.6294  3.0535
 8417TIP3    H249447   1.356   4.644  13.129 -0.4464 -0.4464 -0.4153
 8418TIP3   OH249448   3.118   2.293  11.175  0.3324  0.3516  0.5330
 8418TIP3    H149449   3.180   2.298  11.248  2.9781 -1.9121 -1.3273
 8418TIP3    H249450   3.054   2.227  11.202  3.0044 -2.7930 -0.1020
 8419TIP3   OH249451   1.744   2.760  12.349 -0.0080 -0.1973 -0.2247
 8419TIP3    H149452   1.683   2.692  12.376 -0.9548 -0.0512 -1.8574
 8419TIP3    H249453   1.828   2.715  12.337 -0.4071 -0.9022 -0.3938
 8420TIP3   OH249454   3.799   5.174  13.112 -0.3078  0.0873  0.1074
 8420TIP3    H149455   3.747   5.194  13.189  0.7642  0.2855  0.8091
 8420TIP3    H249456   3.833   5.086  13.128 -0.5561 -0.1069 -0.4156
 8421TIP3   OH249457   3.276   6.995  12.817 -0.4678  0.0419 -1.0405
 8421TIP3    H149458   3.225   6.936  12.872 -2.7936  1.0874 -1.9761
 8421TIP3    H249459   3.362   7.000  12.861 -1.3837 -1.1620  1.0398
 8422TIP3   OH249460   2.628   4.947  10.748  0.0600 -0.5385 -0.0339
 8422TIP3    H149461   2.601   5.030  10.709  0.8462 -0.1372  0.2413
 8422TIP3    H249462   2.549   4.894  10.750 -0.4805  0.2460 -0.1067
 8423TIP3   OH249463   1.239   2.182  11.632  0.3891 -0.1173  0.7395
 8423TIP3    H149464   1.145   2.179  11.615  0.0935  0.7392  2.0803
 8423TIP3    H249465   1.253   2.117  11.701  1.0649 -1.3600 -0.5148
 8424TIP3   OH249466   3.619   6.163  12.616 -0.0773  0.2665 -0.6734
 8424TIP3    H149467   3.708   6.129  12.625 -0.1865  0.3145  0.8334
 8424TIP3    H249468   3.629   6.258  12.613 -0.0464  0.2534 -1.2087
 8425TIP3   OH249469   4.966   6.021  12.631  0.2905 -0.0307  0.1779
 8425TIP3    H149470   4.955   6.094  12.691 -0.2537  0.9283 -1.0372
 8425TIP3    H249471   4.877   5.995  12.608  0.4636 -1.3615  0.8822
 8426TIP3   OH249472   3.010   7.248  12.050  0.4135  0.0813 -0.0195
 8426TIP3    H149473   2.953   7.281  11.980  0.7536 -0.2666 -0.4701
 8426TIP3    H249474   3.081   7.203  12.003  0.5919 -0.2394  0.5554
 8427TIP3   OH249475   5.131   0.058  12.641 -0.2416 -0.0730  0.6418
 8427TIP3    H149476   5.096   0.017  12.720 -0.5194  1.3303  1.2867
 8427TIP3    H249477   5.119   0.152  12.656 -0.8532  0.2115 -1.3253
 8428TIP3   OH249478   7.732   6.344  11.301 -0.0636 -0.1244  0.0325
 8428TIP3    H149479   7.643   6.339  11.336 -0.0333 -1.3921 -0.0174
 8428TIP3    H249480   7.723   6.316  11.210  0.4481 -0.7049  0.1548
 8429TIP3   OH249481   2.129   5.931  12.747 -0.2975  0.4168  0.2547
 8429TIP3    H149482   2.123   6.026  12.739 -0.8710  0.4174  0.6742
 8429TIP3    H249483   2.087   5.897  12.668 -1.3480  0.5016  0.7557
 8430TIP3   OH249484   5.814   5.000  11.828  0.0010 -1.0546 -0.0167
 8430TIP3    H149485   5.749   4.957  11.883  1.3753 -0.1335  2.5066
 8430TIP3    H249486   5.860   4.929  11.784  0.1438 -2.0199  1.6024
 8431TIP3   OH249487   0.914   1.820  10.679 -0.1546  1.0333 -0.1834
 8431TIP3    H149488   0.820   1.803  10.691  0.0734  1.1674  2.7057
 8431TIP3    H249489   0.956   1.772  10.751  2.1277  0.2025 -1.9568
 8432TIP3   OH249490   1.436   2.211  13.264 -0.2989 -0.1409  0.2501
 8432TIP3    H149491   1.401   2.285  13.214 -0.8953 -0.6342 -0.0875
 8432TIP3    H249492   1.474   2.154  13.198 -2.2657 -1.4447  0.1426
 8433TIP3   OH249493   1.076   2.867  11.929 -0.6750  0.6305  0.0127
 8433TIP3    H149494   1.169   2.852  11.947 -0.4966 -0.4642 -1.6370
 8433TIP3    H249495   1.051   2.935  11.991  0.1811 -1.8443  3.3963
 8434TIP3   OH249496   0.123   2.389  12.581 -0.0278  0.1308  0.1706
 8434TIP3    H149497   0.133   2.359  12.490  1.2412 -1.1218  0.6901
 8434TIP3    H249498   0.186   2.460  12.590 -0.3758  0.4653 -0.0086
 8435TIP3   OH249499   1.550   5.396  13.372 -0.0666  0.2784 -0.1683
 8435TIP3    H149500   1.464   5.369  13.338  0.3933  1.1057 -2.1229
 8435TIP3    H249501   1.600   5.314  13.374 -0.7707 -0.1492  0.6232
 8436TIP3   OH249502   0.942   7.702  10.561  0.0047 -0.0349  0.0368
 8436TIP3    H149503   0.986   7.649  10.627  0.7597  0.1723 -0.2940
 8436TIP3    H249504   0.927   7.786  10.603 -0.7731 -0.3510  0.4058
 8437TIP3   OH249505   4.583   5.304  10.851 -0.2713  0.3864 -0.5999
 8437TIP3    H149506   4.620   5.333  10.768  0.3714  0.2064 -0.3838
 8437TIP3    H249507   4.491   5.285  10.831 -0.2538  0.8446 -1.1449
 8438TIP3   OH249508   2.617   2.102  12.902  0.3526  0.2164 -0.3127
 8438TIP3    H149509   2.527   2.092  12.932  0.7117 -0.2439  0.6459
 8438TIP3    H249510   2.671   2.069  12.974  1.3492  1.8699 -0.2345
 8439TIP3   OH249511   5.847   0.268  12.789 -0.0260  0.0913  0.3280
 8439TIP3    H149512   5.918   0.302  12.843  0.2279  0.2216 -0.0810
 8439TIP3    H249513   5.780   0.240  12.852 -0.2176  1.2871  0.6915
 8440TIP3   OH249514   4.201   1.708  10.676  0.9836  0.6321 -0.1028
 8440TIP3    H149515   4.229   1.792  10.641  1.4221  1.5081  2.1830
 8440TIP3    H249516   4.123   1.727  10.728 -0.4162 -0.8251 -1.5345
 8441TIP3   OH249517   7.679   0.317  12.119 -0.0123  0.2498  0.4835
 8441TIP3    H149518   7.651   0.301  12.029 -2.9662  2.1939  0.9070
 8441TIP3    H249519   7.774   0.308  12.116 -0.1916 -2.6031 -2.1345
 8442TIP3   OH249520   6.508   1.434  11.268 -0.0179 -0.2981 -0.1612
 8442TIP3    H149521   6.532   1.452  11.177 -1.5500 -0.9980 -0.7324
 8442TIP3    H249522   6.457   1.510  11.296 -0.1956 -0.4272 -0.1340
 8443TIP3   OH249523   0.128   4.894  11.038 -0.1430 -0.1805 -0.2399
 8443TIP3    H149524   0.167   4.936  11.114 -1.3104  0.1775  0.1960
 8443TIP3    H249525   0.053   4.845  11.073 -1.5094  1.0455 -1.2762
 8444TIP3   OH249526   0.932   6.369  11.134  0.0909 -0.3580 -0.2499
 8444TIP3    H149527   0.889   6.450  11.162 -0.4175 -0.9160  0.6332
 8444TIP3    H249528   1.009   6.398  11.086 -0.7603  0.6692 -1.0674
 8445TIP3   OH249529   1.929   4.877  10.637  0.2447  0.1224  0.7880
 8445TIP3    H149530   1.856   4.816  10.651 -0.5973  1.3924  2.1936
 8445TIP3    H249531   1.996   4.824  10.592 -0.5574 -1.7568  1.6966
 8446TIP3   OH249532   0.994   2.656  12.131  0.3954  0.0039  0.4645
 8446TIP3    H149533   0.927   2.723  12.148 -0.5765 -0.6024 -0.8825
 8446TIP3    H249534   1.039   2.687  12.053 -1.3021 -1.7900 -1.3082
 8447TIP3   OH249535   6.748   5.366  12.733 -0.4387 -0.2972  0.3530
 8447TIP3    H149536   6.731   5.452  12.772 -1.7237 -1.0377  1.5060
 8447TIP3    H249537   6.783   5.313  12.805  0.2144 -0.8027 -0.3161
 8448TIP3   OH249538   0.145   1.820  13.028  0.5372 -0.3322  0.4347
 8448TIP3    H149539   0.229   1.857  12.998  0.8212 -2.6421 -2.0154
 8448TIP3    H249540   0.170   1.746  13.083  0.0795 -0.3817  0.5799
 8449TIP3   OH249541   0.197   4.128  11.279 -0.2165  0.1787  0.6309
 8449TIP3    H149542   0.179   4.042  11.240 -0.6036 -0.5906  2.3637
 8449TIP3    H249543   0.147   4.127  11.361  2.3321  0.7011  2.3205
 8450TIP3   OH249544   4.384   4.447  11.334 -0.4362  1.1310 -0.6370
 8450TIP3    H149545   4.416   4.417  11.419 -0.8793  1.0994 -0.4782
 8450TIP3    H249546   4.457   4.431  11.274 -0.6802 -0.3469 -0.5781
 8451TIP3   OH249547   7.273   2.360  10.338 -0.7344  0.0617  0.2625
 8451TIP3    H149548   7.186   2.384  10.369 -1.0781 -0.6471 -0.1275
 8451TIP3    H249549   7.319   2.332  10.416 -0.9965  0.0222  0.4041
 8452TIP3   OH249550   3.768   1.651  12.873  0.0830  0.1137  0.3115
 8452TIP3    H149551   3.855   1.666  12.911  1.3450 -2.4036 -1.3178
 8452TIP3    H249552   3.755   1.725  12.814  1.8619 -0.2579 -0.6127
 8453TIP3   OH249553   2.206   6.511  11.660  0.4167 -0.3367  0.2301
 8453TIP3    H149554   2.194   6.605  11.669  2.3449  0.0776 -0.9534
 8453TIP3    H249555   2.191   6.476  11.748 -3.0432  0.6609  0.1837
 8454TIP3   OH249556   2.081   2.634  12.379  0.2786  0.2723  0.0740
 8454TIP3    H149557   2.134   2.708  12.348  1.0898 -0.5139 -0.4319
 8454TIP3    H249558   2.144   2.567  12.402 -0.4900 -0.7158 -0.6171
 8455TIP3   OH249559   6.359   2.732  11.644 -0.0748 -0.4022  0.2686
 8455TIP3    H149560   6.402   2.692  11.719 -0.7140  0.9724  1.4282
 8455TIP3    H249561   6.270   2.751  11.675 -1.2482 -2.2057 -1.7156
 8456TIP3   OH249562   7.197   2.710  11.551 -0.1882 -0.4931 -0.3453
 8456TIP3    H149563   7.106   2.682  11.561 -0.2860 -0.1297 -0.1944
 8456TIP3    H249564   7.210   2.776  11.619  0.7217 -1.7907  0.8013
 8457TIP3   OH249565   5.144   2.182  13.281  0.5438 -0.4266 -0.1545
 8457TIP3    H149566   5.149   2.180  13.186 -0.8373 -1.4701 -0.2547
 8457TIP3    H249567   5.155   2.274  13.305  0.4455 -0.0919 -1.3618
 8458TIP3   OH249568   6.373   4.495  11.951 -0.0240 -0.1850 -0.3934
 8458TIP3    H149569   6.426   4.517  12.028 -0.8011 -0.8092  0.3549
 8458TIP3    H249570   6.416   4.539  11.878  1.4394 -0.5835  0.1961
 8459TIP3   OH249571   2.046   1.189  10.635  0.3013  0.2604 -0.1366
 8459TIP3    H149572   2.063   1.142  10.717 -1.1458  0.3639  0.2540
 8459TIP3    H249573   2.024   1.121  10.572  0.3195  0.2640 -0.1470
 8460TIP3   OH249574   6.408   4.225  12.224  0.2687 -0.0826  0.0876
 8460TIP3    H149575   6.391   4.165  12.296  1.6713  0.4745  0.9235
 8460TIP3    H249576   6.411   4.169  12.146  2.2512 -1.2367  0.9392
 8461TIP3   OH249577   0.652   1.826   9.892  0.1323  0.1128 -0.0899
 8461TIP3    H149578   0.677   1.918   9.894 -0.6201  0.3282 -0.2458
 8461TIP3    H249579   0.708   1.787   9.825  1.6477  0.0823  1.1534
 8462TIP3   OH249580   6.199   4.862  12.889  0.0303  0.4576  0.0173
 8462TIP3    H149581   6.209   4.896  12.978 -1.7424  0.0538  0.4039
 8462TIP3    H249582   6.107   4.839  12.882  0.1592  0.3504 -1.8967
 8463TIP3   OH249583   2.445   1.793  10.987 -0.6624  0.2722  0.7090
 8463TIP3    H149584   2.433   1.888  10.993 -1.7131  0.1526  0.7411
 8463TIP3    H249585   2.395   1.767  10.910  0.4426 -0.1355  0.1118
 8464TIP3   OH249586   6.282   0.128  12.207  0.0034 -0.5265 -0.0499
 8464TIP3    H149587   6.258   0.213  12.245  3.2131 -0.1943  1.5515
 8464TIP3    H249588   6.301   0.148  12.115  0.5900  0.5097  0.2767
 8465TIP3   OH249589   1.756   0.957  11.112 -0.2308  0.7966  0.3278
 8465TIP3    H149590   1.850   0.938  11.118 -0.2162  1.0873  1.0891
 8465TIP3    H249591   1.738   0.955  11.018  0.0758 -1.3520  0.2770
 8466TIP3   OH249592   6.536   2.816  12.183  0.0558  0.4802  0.3273
 8466TIP3    H149593   6.581   2.745  12.229 -0.0076  0.2653  0.0645
 8466TIP3    H249594   6.606   2.867  12.142  0.0542 -0.0563 -0.3737
 8467TIP3   OH249595   1.779   5.744  12.416 -0.4147  0.6357 -0.1448
 8467TIP3    H149596   1.720   5.811  12.381 -1.3956 -0.9499 -1.6549
 8467TIP3    H249597   1.744   5.662  12.383  0.5239 -0.6976  1.9974
 8468TIP3   OH249598   6.135   1.050  12.890 -0.0332 -0.2280  0.1391
 8468TIP3    H149599   6.229   1.065  12.899 -0.1977 -0.2085  2.3892
 8468TIP3    H249600   6.112   0.993  12.964 -1.4208 -2.2108 -1.6831
 8469TIP3   OH249601   6.128   0.533  10.553  0.3047  0.4352 -0.9842
 8469TIP3    H149602   6.139   0.549  10.647  1.1436 -0.5839 -0.8884
 8469TIP3    H249603   6.179   0.602  10.510 -0.3898  1.1357 -0.7222
 8470TIP3   OH249604   1.258   4.761  11.033 -0.0387  0.8092 -0.0026
 8470TIP3    H149605   1.195   4.723  10.972 -0.0646  1.6282 -0.5053
 8470TIP3    H249606   1.205   4.806  11.098 -0.0587 -1.1634  1.4175
 8471TIP3   OH249607   0.090   0.883  11.660 -0.0647  0.0973  0.4118
 8471TIP3    H149608   0.139   0.937  11.598 -0.1389 -0.5352 -0.2075
 8471TIP3    H249609   0.155   0.824  11.698 -0.2661 -0.4862 -0.1317
 8472TIP3   OH249610   4.844   7.687  13.251 -0.3727 -0.3172  0.0693
 8472TIP3    H149611   4.803   7.608  13.217  0.3101 -1.4385  1.7318
 8472TIP3    H249612   4.851   7.745  13.175 -1.2679 -1.6782 -1.0985
 8473TIP3   OH249613   1.820   3.616  12.092  0.0497  0.2800  0.0427
 8473TIP3    H149614   1.894   3.571  12.052  1.1193  1.2427  0.8261
 8473TIP3    H249615   1.861   3.688  12.142 -1.1362 -0.9005  2.9404
 8474TIP3   OH249616   3.314   0.212  12.113  0.4117 -0.1447 -0.2136
 8474TIP3    H149617   3.367   0.273  12.164 -0.1077 -1.7400  2.4364
 8474TIP3    H249618   3.342   0.226  12.023  0.0266  4.2044  0.1327
 8475TIP3   OH249619   6.042   3.131  10.561  0.8147 -0.0968  0.1373
 8475TIP3    H149620   6.118   3.075  10.546  0.9426  0.3373 -0.8911
 8475TIP3    H249621   5.997   3.134  10.477  1.2766  2.0157 -0.0846
 8476TIP3   OH249622   7.697   5.539  10.482  0.1707 -0.4506 -0.1486
 8476TIP3    H149623   7.674   5.504  10.568 -0.9056  0.1811 -0.1700
 8476TIP3    H249624   7.758   5.474  10.446 -0.7161 -1.6089  0.3772
 8477TIP3   OH249625   1.043   2.106  10.818 -0.2920  0.2555 -0.1281
 8477TIP3    H149626   0.959   2.117  10.774 -1.1757  0.3623  1.5033
 8477TIP3    H249627   1.042   2.016  10.850  2.0124 -1.1960 -3.5458
 8478TIP3   OH249628   1.669   3.215  12.828 -0.4668 -0.2228 -0.1986
 8478TIP3    H149629   1.669   3.223  12.924 -1.4003 -0.1486 -0.1989
 8478TIP3    H249630   1.696   3.301  12.797  0.6107 -0.4753  0.0042
 8479TIP3   OH249631   6.945   3.427  11.554  0.3763  0.2369 -0.0756
 8479TIP3    H149632   6.873   3.480  11.587 -0.1839  0.1793 -1.1866
 8479TIP3    H249633   6.903   3.353  11.510  1.1307 -0.4555  0.3371
 8480TIP3   OH249634   6.058   0.532  11.723 -0.6730  0.2522  0.1550
 8480TIP3    H149635   6.080   0.564  11.810  2.1310  1.0264 -0.7298
 8480TIP3    H249636   5.988   0.590  11.692 -1.9788 -0.2702  1.9494
 8481TIP3   OH249637   3.437   7.177  12.355 -0.2678  0.0254  0.0110
 8481TIP3    H149638   3.419   7.271  12.358 -1.4434 -0.1596 -0.7608
 8481TIP3    H249639   3.386   7.140  12.427 -0.2092 -0.0905 -0.0065
 8482TIP3   OH249640   5.560   5.183  12.426  0.4548 -0.0425 -0.9169
 8482TIP3    H149641   5.520   5.180  12.513  0.8155 -0.1322 -0.7509
 8482TIP3    H249642   5.487   5.192  12.366  0.2349  0.5574 -0.5690
 8483TIP3   OH249643   6.197   7.353  11.898  0.3573 -0.2078 -0.6611
 8483TIP3    H149644   6.154   7.374  11.981  1.4302 -0.7564  0.0523
 8483TIP3    H249645   6.281   7.316  11.923  0.6236 -0.5631 -2.0001
 8484TIP3   OH249646   2.450   1.717  11.763 -0.4259 -0.4679 -0.9312
 8484TIP3    H149647   2.376   1.659  11.744 -0.8544  0.4422 -2.1189
 8484TIP3    H249648   2.441   1.737  11.856 -0.5679 -1.8599 -0.6186
 8485TIP3   OH249649   3.298   1.235  11.532  0.5827 -0.3199  0.3771
 8485TIP3    H149650   3.210   1.212  11.503  0.4465  0.9614 -0.2838
 8485TIP3    H249651   3.339   1.151  11.552 -0.3129 -1.0395 -0.6896
 8486TIP3   OH249652   0.945   4.109  10.850  0.1537 -0.5948 -0.1308
 8486TIP3    H149653   0.876   4.104  10.916  1.4010 -0.6212  1.2456
 8486TIP3    H249654   0.910   4.064  10.774 -1.5182 -0.1679  0.3498
 8487TIP3   OH249655   0.842   5.939  10.672  0.3870 -0.5596  0.3104
 8487TIP3    H149656   0.828   5.844  10.681 -0.8445 -0.7730 -2.5953
 8487TIP3    H249657   0.757   5.973  10.645  1.1831  1.1479 -0.1760
 8488TIP3   OH249658   7.120   6.983  10.433 -0.0567  0.3193  0.3671
 8488TIP3    H149659   7.154   7.072  10.438 -2.2608  1.1640  2.0570
 8488TIP3    H249660   7.115   6.955  10.524  1.0767 -1.7910 -0.1533
 8489TIP3   OH249661   3.258   4.326  11.197  0.1844  0.1598 -0.0729
 8489TIP3    H149662   3.168   4.294  11.200  0.4119 -0.4212  1.5275
 8489TIP3    H249663   3.294   4.304  11.283  1.7765  0.6199 -0.5912
 8490TIP3   OH249664   0.447   2.589  11.013 -0.2878 -0.0519  1.1544
 8490TIP3    H149665   0.372   2.568  10.957  1.2503  1.1369 -1.5044
 8490TIP3    H249666   0.450   2.517  11.076 -2.2570 -1.3654 -0.1420
 8491TIP3   OH249667   7.516   1.362  12.489  0.4486  0.1218  0.5292
 8491TIP3    H149668   7.494   1.409  12.408  0.4993  0.4841  0.7240
 8491TIP3    H249669   7.579   1.295  12.461 -0.8463 -0.9126 -0.0338
 8492TIP3   OH249670   6.477   4.736  10.418 -0.1544 -0.2083  0.7395
 8492TIP3    H149671   6.505   4.694  10.336 -1.6633 -1.0992  0.6400
 8492TIP3    H249672   6.529   4.815  10.424 -0.8618  0.5154 -1.7294
 8493TIP3   OH249673   6.579   7.609  11.504 -0.3398  0.6388 -0.1153
 8493TIP3    H149674   6.564   7.516  11.524 -0.2302  0.2779 -1.5235
 8493TIP3    H249675   6.664   7.609  11.459 -0.1590  1.4804  0.2253
 8494TIP3   OH249676   0.281   5.209  12.207 -0.0329  0.1991 -0.4469
 8494TIP3    H149677   0.347   5.245  12.266  1.0474 -0.0851 -1.4424
 8494TIP3    H249678   0.199   5.246  12.238  0.4435 -0.1830  1.4268
 8495TIP3   OH249679   6.414   5.946  11.074  0.2619  0.3070  0.2191
 8495TIP3    H149680   6.323   5.939  11.101 -0.3627 -2.0175 -2.0922
 8495TIP3    H249681   6.422   6.034  11.037 -0.7012  0.9445  1.4585
 8496TIP3   OH249682   7.272   5.361  10.851  0.2479  0.3841  0.9100
 8496TIP3    H149683   7.208   5.399  10.912 -1.2027  1.3052 -1.0855
 8496TIP3    H249684   7.230   5.281  10.820  0.4597  0.5188  0.2629
 8497TIP3   OH249685   7.345   0.935  12.012 -0.1261  0.3253  0.5288
 8497TIP3    H149686   7.266   0.988  12.000 -1.0583 -1.1234  0.0372
 8497TIP3    H249687   7.362   0.896  11.926  0.6911  0.0380  0.8102
 8498TIP3   OH249688   5.233   6.753  13.296  0.8467  0.4244 -0.4718
 8498TIP3    H149689   5.314   6.707  13.318  0.5333 -0.1278 -0.4537
 8498TIP3    H249690   5.166   6.684  13.294  0.6497  0.6179 -1.9785
 8499TIP3   OH249691   0.428   4.652  12.117  0.2739  0.0940  0.2724
 8499TIP3    H149692   0.425   4.582  12.051 -0.5422 -0.8916  1.3166
 8499TIP3    H249693   0.472   4.725  12.072  3.4936 -1.8656 -0.1374
 8500TIP3   OH249694   0.655   0.330  11.877  0.2817  0.0823 -0.3207
 8500TIP3    H149695   0.677   0.421  11.857  0.4683 -0.3996 -2.6265
 8500TIP3    H249696   0.738   0.283  11.873  0.4339 -0.0127  2.4010
 8501TIP3   OH249697   2.270   4.848  11.934 -0.1039  0.2864  0.1783
 8501TIP3    H149698   2.337   4.916  11.938  1.2165 -0.9459 -0.0511
 8501TIP3    H249699   2.228   4.861  11.849  0.0578  0.8859  0.1887
 8502TIP3   OH249700   6.641   7.412  12.079  0.3908  0.1646  0.0246
 8502TIP3    H149701   6.564   7.456  12.114 -0.1339 -0.1286 -0.7260
 8502TIP3    H249702   6.710   7.429  12.144 -0.3659  0.2057  0.8467
 8503TIP3   OH249703   0.307   5.610  13.331  0.0058  0.0041 -0.0752
 8503TIP3    H149704   0.231   5.579  13.282 -0.3720  0.1160  0.4340
 8503TIP3    H249705   0.334   5.535  13.383  0.2546 -0.0413 -0.2717
 8504TIP3   OH249706   3.841   3.843  11.749 -0.3316 -0.6995 -0.1099
 8504TIP3    H149707   3.899   3.919  11.752  0.1372 -1.0803  2.0544
 8504TIP3    H249708   3.898   3.768  11.763 -1.2641 -1.0949  1.9445
 8505TIP3   OH249709   7.118   5.412  12.374 -0.1148 -0.6571  0.5719
 8505TIP3    H149710   7.155   5.377  12.455  0.9452  1.3715  1.0213
 8505TIP3    H249711   7.031   5.445  12.399  0.4266  0.4640  1.0552
 8506TIP3   OH249712   2.252   2.187  12.410  0.2692 -0.1883 -0.0187
 8506TIP3    H149713   2.281   2.102  12.443  0.6372 -0.5315 -1.1914
 8506TIP3    H249714   2.333   2.236  12.396  0.1521 -0.2018 -0.7899
 8507TIP3   OH249715   1.122   3.449  12.097 -0.0918  0.0466 -0.0953
 8507TIP3    H149716   1.054   3.513  12.077  0.8099  1.0693  0.0194
 8507TIP3    H249717   1.144   3.465  12.189  1.8294  1.2824 -0.6994
 8508TIP3   OH249718   0.246   4.015  12.741  0.3070  0.6254  0.5288
 8508TIP3    H149719   0.331   4.059  12.746 -0.0067  1.3624 -0.2733
 8508TIP3    H249720   0.229   3.983  12.830  1.9707 -0.6104  0.4517
 8509TIP3   OH249721   3.107   6.440  11.575 -0.5417 -0.1321  0.4056
 8509TIP3    H149722   3.052   6.437  11.496 -1.9670  0.2425  1.3571
 8509TIP3    H249723   3.121   6.348  11.597 -1.2320 -0.2309  0.4530
 8510TIP3   OH249724   1.690   0.648  10.779  0.2333  0.4320 -0.2676
 8510TIP3    H149725   1.708   0.716  10.845  0.5620  0.8722 -0.8041
 8510TIP3    H249726   1.602   0.618  10.801 -0.6195  2.2250 -1.0185
 8511TIP3   OH249727   0.260   3.168  13.401  0.3059  0.2777  0.4568
 8511TIP3    H149728   0.241   3.089  13.351 -0.0833  2.5074 -3.2207
 8511TIP3    H249729   0.177   3.191  13.443  0.0638 -0.5030  0.4110
 8512TIP3   OH249730   2.523   6.332  12.404 -0.0385  0.3246  0.3726
 8512TIP3    H149731   2.438   6.329  12.447 -0.7471  1.7117 -0.8406
 8512TIP3    H249732   2.567   6.251  12.431 -1.1594  0.2752  2.1617
 8513TIP3   OH249733   4.146   5.309  11.392 -0.1158  0.4185 -0.2032
 8513TIP3    H149734   4.055   5.313  11.422 -0.9347  0.1083 -2.4851
 8513TIP3    H249735   4.180   5.229  11.431 -0.9115  0.3549  0.3896
 8514TIP3   OH249736   0.722   0.421  12.599 -0.6122  0.4844 -0.5272
 8514TIP3    H149737   0.640   0.381  12.628 -1.2610  1.4309 -1.0074
 8514TIP3    H249738   0.726   0.403  12.506  0.5083 -0.8835 -0.2403
 8515TIP3   OH249739   1.579   5.579  13.004 -0.3728 -0.5945 -0.2092
 8515TIP3    H149740   1.601   5.590  12.912 -0.7584 -0.4312 -0.2808
 8515TIP3    H249741   1.486   5.555  13.004 -0.4659 -0.2296  0.1586
 8516TIP3   OH249742   0.657   3.611  11.707  0.1211  0.2626 -0.3888
 8516TIP3    H149743   0.570   3.636  11.676 -1.5501 -0.2488  3.3202
 8516TIP3    H249744   0.678   3.677  11.773  1.7574 -0.5920 -0.0188
 8517TIP3   OH249745   6.817   6.130  12.662 -0.2712 -0.3686 -0.1464
 8517TIP3    H149746   6.855   6.105  12.578  1.4378  0.8145  0.2159
 8517TIP3    H249747   6.749   6.065  12.679  0.1206 -1.2741 -1.9021
 8518TIP3   OH249748   0.610   5.446  11.292 -0.5371 -0.4266 -0.3563
 8518TIP3    H149749   0.639   5.520  11.345 -0.2426 -0.9415  0.2041
 8518TIP3    H249750   0.555   5.486  11.224 -0.2931  0.3165 -0.1285
 8519TIP3   OH249751   1.328   6.048  10.803 -0.0781  0.6403 -0.1983
 8519TIP3    H149752   1.234   6.055  10.785 -0.1888  2.6961  0.9681
 8519TIP3    H249753   1.349   6.124  10.857  2.2583  0.1799 -0.3316
 8520TIP3   OH249754   3.237   4.295  11.616 -0.0620 -0.0598  0.2284
 8520TIP3    H149755   3.285   4.218  11.648 -0.6521 -0.5487 -0.0436
 8520TIP3    H249756   3.156   4.260  11.581 -0.6125  0.7662  0.6470
 8521TIP3   OH249757   0.776   3.390  12.832 -0.0011 -0.1355 -0.1663
 8521TIP3    H149758   0.793   3.484  12.836  1.8871 -0.4825  2.2940
 8521TIP3    H249759   0.783   3.361  12.923  0.7741 -2.8722 -1.0109
 8522TIP3   OH249760   0.830   6.304  11.999  0.2446 -0.1102  0.1263
 8522TIP3    H149761   0.872   6.287  11.915  2.5307  0.3124  1.1090
 8522TIP3    H249762   0.871   6.242  12.060 -1.8670 -0.8886  0.8321
 8523TIP3   OH249763   0.091   2.526  10.411  0.3940 -0.4757  0.3080
 8523TIP3    H149764   0.003   2.562  10.404  0.7498  0.3580 -0.0989
 8523TIP3    H249765   0.083   2.437  10.377 -0.0828 -0.0421 -0.7789
 8524TIP3   OH249766   7.006   5.436  13.003  0.5771 -0.1150 -0.5983
 8524TIP3    H149767   6.949   5.359  12.996 -0.6058  0.7723 -1.2740
 8524TIP3    H249768   6.953   5.501  13.049  1.1417  0.6532 -1.0084
 8525TIP3   OH249769   1.084   6.911  11.647  0.3897 -0.2322 -0.5501
 8525TIP3    H149770   1.054   6.987  11.597 -1.1405 -0.3472  0.1385
 8525TIP3    H249771   1.127   6.948  11.724 -0.5834 -0.0257 -0.0839
 8526TIP3   OH249772   5.571   6.109  12.692  0.3262  0.2168  0.1043
 8526TIP3    H149773   5.563   6.023  12.651 -2.2614  0.1461  0.6028
 8526TIP3    H249774   5.655   6.143  12.661  0.7556 -1.8831 -1.2142
 8527TIP3   OH249775   6.322   2.647  13.351  0.2037  0.2948 -0.3035
 8527TIP3    H149776   6.291   2.645  13.442 -0.4365  0.1962 -0.5140
 8527TIP3    H249777   6.243   2.630  13.299  0.4895  0.7455 -0.8935
 8528TIP3   OH249778   2.517   7.055  10.713 -0.2401  0.1695  0.3499
 8528TIP3    H149779   2.592   7.023  10.663  0.7601 -0.8719  2.4053
 8528TIP3    H249780   2.512   6.996  10.789 -1.5676  1.7764  1.5700
 8529TIP3   OH249781   7.576   3.848  13.043 -0.4617 -0.0064  0.0226
 8529TIP3    H149782   7.617   3.762  13.037 -0.5396 -0.3648  3.2050
 8529TIP3    H249783   7.598   3.891  12.960  2.6871 -1.7427 -0.1749
 8530TIP3   OH249784   1.440   3.761  12.512  0.1100  0.1194 -0.0349
 8530TIP3    H149785   1.407   3.672  12.523  0.4877  0.0765  0.8179
 8530TIP3    H249786   1.402   3.790  12.428  0.4736 -1.0415 -0.6247
 8531TIP3   OH249787   4.237   1.128  11.612 -0.1939 -0.5712  0.3964
 8531TIP3    H149788   4.281   1.052  11.650  0.4151  0.8730  2.7803
 8531TIP3    H249789   4.292   1.154  11.539  0.8953 -0.9981  1.0425
 8532TIP3   OH249790   2.796   2.651  12.405 -0.4756 -0.1204  0.2222
 8532TIP3    H149791   2.823   2.577  12.459 -3.3608  0.3724  2.6013
 8532TIP3    H249792   2.854   2.723  12.432 -0.3289 -0.4900  0.9161
 8533TIP3   OH249793   5.547   3.287  10.554  0.1707 -0.1653 -0.2813
 8533TIP3    H149794   5.478   3.351  10.534  1.5381  0.8643 -2.0460
 8533TIP3    H249795   5.576   3.309  10.642 -2.3780 -1.2810  0.9435
 8534TIP3   OH249796   6.411   7.144  12.923 -0.2302  0.2741 -0.0436
 8534TIP3    H149797   6.356   7.066  12.920 -0.1863  0.2555 -1.9688
 8534TIP3    H249798   6.356   7.210  12.967 -0.2062 -0.8335  1.7310
 8535TIP3   OH249799   7.682   1.851  11.969 -0.1151  0.0198  0.1579
 8535TIP3    H149800   7.647   1.898  11.893 -0.9994 -0.1168  0.4725
 8535TIP3    H249801   7.777   1.856  11.958 -0.2308  0.0560 -0.9178
 8536TIP3   OH249802   5.066   3.623  12.842  0.1820 -0.0875 -0.0573
 8536TIP3    H149803   5.007   3.548  12.838 -0.3735  0.3444 -0.0927
 8536TIP3    H249804   5.043   3.667  12.924  1.6190 -0.8557  0.7860
 8537TIP3   OH249805   0.087   3.462  11.853 -0.2017 -0.0819  0.2464
 8537TIP3    H149806   0.091   3.508  11.937  3.1538  1.1620 -0.4499
 8537TIP3    H249807   0.027   3.515  11.800  0.3301  1.1152  0.8007
 8538TIP3   OH249808   3.534   6.705  12.236 -0.2847 -0.1302  0.2488
 8538TIP3    H149809   3.482   6.769  12.283 -0.1762  1.5176 -1.7582
 8538TIP3    H249810   3.625   6.729  12.256 -0.2343  0.6929 -0.8773
 8539TIP3   OH249811   5.260   6.608  11.137  0.2185  0.1644 -0.1367
 8539TIP3    H149812   5.184   6.635  11.086  0.4261  0.5208 -0.2574
 8539TIP3    H249813   5.291   6.688  11.179  0.0580 -0.1184  0.5426
 8540TIP3   OH249814   5.591   1.053  13.213 -0.0341 -0.1940  0.2063
 8540TIP3    H149815   5.678   1.032  13.181 -0.6696 -2.0676 -0.3834
 8540TIP3    H249816   5.587   1.149  13.210  0.8144 -0.1395 -3.0026
 8541TIP3   OH249817   5.365   3.106  11.477 -0.8110  0.1547 -0.1013
 8541TIP3    H149818   5.400   3.021  11.503  1.8851  1.4062  0.7913
 8541TIP3    H249819   5.315   3.135  11.553  0.8315  0.5942  0.8769
 8542TIP3   OH249820   0.171   1.468  12.381 -0.1060  0.2353  0.5140
 8542TIP3    H149821   0.236   1.520  12.428 -0.4220  0.7162  0.4173
 8542TIP3    H249822   0.087   1.503  12.408 -0.2997  0.3743 -0.2419
 8543TIP3   OH249823   6.391   1.742  12.399 -0.9014  0.6471 -0.1386
 8543TIP3    H149824   6.296   1.740  12.388 -0.9797  0.7578  0.4431
 8543TIP3    H249825   6.404   1.789  12.482 -0.4150 -0.7214  0.5927
 8544TIP3   OH249826   1.416   3.729  11.490 -0.7761 -0.0198 -0.0801
 8544TIP3    H149827   1.425   3.637  11.464 -1.4899  0.2092 -1.2562
 8544TIP3    H249828   1.351   3.764  11.428  0.1228  1.4855 -0.2003
 8545TIP3   OH249829   3.927   5.830  12.483  0.3333  0.2777 -0.5540
 8545TIP3    H149830   3.925   5.857  12.574 -0.1220  0.1636 -0.5278
 8545TIP3    H249831   3.859   5.763  12.476  0.0943  0.5721 -1.0679
 8546TIP3   OH249832   4.683   3.069  10.752  0.4048 -0.2862 -0.2968
 8546TIP3    H149833   4.632   3.091  10.830 -1.3627  0.6454 -1.6196
 8546TIP3    H249834   4.733   3.148  10.733  0.2580 -0.2387 -0.4984
 8547TIP3   OH249835   5.190   3.611  12.407  0.7281 -0.2075  0.5446
 8547TIP3    H149836   5.117   3.553  12.427 -0.0236 -0.2091 -1.8830
 8547TIP3    H249837   5.257   3.553  12.369  0.4350  0.3018 -0.7992
 8548TIP3   OH249838   1.838   4.158  12.538  0.6683  0.3190  0.2906
 8548TIP3    H149839   1.920   4.109  12.531  0.9402  0.8293 -0.0938
 8548TIP3    H249840   1.803   4.132  12.624  0.8404 -0.4948  0.1250
 8549TIP3   OH249841   7.224   2.820  10.305 -0.3608  0.4370  0.1741
 8549TIP3    H149842   7.264   2.754  10.248 -2.3931 -0.2917 -0.5127
 8549TIP3    H249843   7.162   2.866  10.249  1.6818  3.7272  0.3722
 8550TIP3   OH249844   1.434   4.536  17.978  0.1226 -0.1229 -0.2039
 8550TIP3    H149845   1.399   4.511  18.064 -1.6385 -0.3263 -0.9507
 8550TIP3    H249846   1.462   4.627  17.989 -0.9194  0.1409  0.3545
 8551TIP3   OH249847   2.200   1.445  10.673 -0.1026  0.9697 -0.1802
 8551TIP3    H149848   2.131   1.391  10.637  1.7387  0.0767 -2.6970
 8551TIP3    H249849   2.279   1.392  10.664  1.2571  2.7812  0.4090
 8552TIP3   OH249850   1.922   4.596  11.719 -0.5123 -0.4827  0.4054
 8552TIP3    H149851   1.852   4.536  11.691 -0.9494  0.6148 -0.9856
 8552TIP3    H249852   1.877   4.659  11.775 -0.3814 -0.4971  0.5266
 8553TIP3   OH249853   5.751   1.209  12.817  0.4389 -0.1051 -0.0653
 8553TIP3    H149854   5.791   1.205  12.904  1.3519  0.3024 -0.4540
 8553TIP3    H249855   5.818   1.174  12.758  0.6545  1.5511 -0.8639
 8554TIP3   OH249856   6.175   6.726  10.975 -0.2914  0.2803 -0.0422
 8554TIP3    H149857   6.223   6.773  11.043  0.0426  1.3039 -0.9741
 8554TIP3    H249858   6.242   6.691  10.917 -0.5119 -1.6745  0.8050
 8555TIP3   OH249859   5.538   5.505  12.507  0.4780 -0.3131 -0.1350
 8555TIP3    H149860   5.602   5.482  12.574 -0.7616 -0.5443  1.0210
 8555TIP3    H249861   5.494   5.422  12.487 -0.3392  0.0629  0.0594
 8556TIP3   OH249862   7.300   1.311  11.798  0.2063 -0.4684 -0.2880
 8556TIP3    H149863   7.264   1.342  11.881 -0.6491 -0.4895 -0.6377
 8556TIP3    H249864   7.265   1.372  11.733 -2.5961 -2.7720 -1.1804
 8557TIP3   OH249865   3.535   3.494  11.673 -0.4311  0.2322  0.2136
 8557TIP3    H149866   3.620   3.451  11.665 -1.1094 -0.9245 -1.4255
 8557TIP3    H249867   3.473   3.422  11.685 -1.1632  1.0796  1.7577
 8558TIP3   OH249868   6.468   0.350  12.107 -0.4468 -0.5940 -0.6452
 8558TIP3    H149869   6.499   0.261  12.086  0.7219  0.2304 -2.7568
 8558TIP3    H249870   6.474   0.397  12.023 -2.9877  0.9512 -0.0396
 8559TIP3   OH249871   2.436   4.891  12.227 -1.1032  0.1252  0.0841
 8559TIP3    H149872   2.417   4.910  12.135  0.6631 -1.5563 -0.7030
 8559TIP3    H249873   2.528   4.865  12.227 -1.5501 -1.6982  2.0280
 8560TIP3   OH249874   2.608   4.548  12.203 -0.4188  0.0613 -0.1520
 8560TIP3    H149875   2.657   4.465  12.201  0.2099  0.3787  1.0287
 8560TIP3    H249876   2.521   4.523  12.235 -0.2096 -0.1478  0.2731
 8561TIP3   OH249877   6.413   5.207  12.910  0.6821 -0.3102 -0.0065
 8561TIP3    H149878   6.496   5.160  12.912  1.8949  1.6615 -1.2146
 8561TIP3    H249879   6.365   5.167  12.837 -1.1056 -3.8602  2.7462
 8562TIP3   OH249880   7.239   3.046  17.967 -0.5995 -0.1884  0.6079
 8562TIP3    H149881   7.276   3.129  17.939 -1.9799  0.4930  0.7280
 8562TIP3    H249882   7.148   3.066  17.989 -1.3758 -1.9746 -0.6772
 8563TIP3   OH249883   2.233   0.659  11.673 -0.5546  0.7149  0.0727
 8563TIP3    H149884   2.191   0.581  11.709  0.0286  0.6127  0.5567
 8563TIP3    H249885   2.224   0.725  11.742  0.4416  0.5617  0.3659
 8564TIP3   OH249886   3.281   2.345  11.767  0.3230 -0.1166  0.1366
 8564TIP3    H149887   3.340   2.419  11.756  0.6989 -0.1593  1.5965
 8564TIP3    H249888   3.238   2.334  11.682  2.0596  0.2137 -0.8125
 8565TIP3   OH249889   3.230   0.110  11.194 -0.0614 -0.4806 -0.1315
 8565TIP3    H149890   3.242   0.071  11.281 -1.1735  1.1432  0.7943
 8565TIP3    H249891   3.137   0.101  11.176 -0.5438  2.2827  0.4668
 8566TIP3   OH249892   3.397   6.638  11.350 -0.1002  0.4147  0.4480
 8566TIP3    H149893   3.490   6.629  11.370 -0.4529 -1.3817  1.6585
 8566TIP3    H249894   3.373   6.553  11.313 -1.5678  0.2017  1.7691
 8567TIP3   OH249895   7.237   1.838  12.776 -0.4407  0.7570 -0.0738
 8567TIP3    H149896   7.148   1.840  12.741 -0.6455 -0.0844  0.3534
 8567TIP3    H249897   7.256   1.744  12.787 -0.8795  0.9458  3.2720
 8568TIP3   OH249898   5.587   6.812  11.146  0.0151 -0.2679 -0.0317
 8568TIP3    H149899   5.578   6.747  11.216  0.1590  0.9662  1.1789
 8568TIP3    H249900   5.512   6.870  11.157  1.3347  1.3933  0.7286
 8569TIP3   OH249901   2.986   3.280  11.377 -0.0163 -0.7607  0.2158
 8569TIP3    H149902   2.955   3.294  11.466 -1.3150  1.9146 -0.5224
 8569TIP3    H249903   2.905   3.276  11.324  0.7182  1.2778 -1.1942
 8570TIP3   OH249904   1.755   6.170  11.598  0.4044  0.2609  0.3138
 8570TIP3    H149905   1.730   6.192  11.508 -1.7606 -0.2412  0.7442
 8570TIP3    H249906   1.676   6.186  11.650  1.2926 -0.4600  1.9640
 8571TIP3   OH249907   4.838   4.232  11.516  0.2489  0.5106 -0.4806
 8571TIP3    H149908   4.765   4.231  11.454 -2.3449  0.9098  2.2996
 8571TIP3    H249909   4.881   4.316  11.502 -0.3619  0.6441 -1.6321
 8572TIP3   OH249910   3.581   2.302  13.136 -0.0144 -0.0005 -0.1872
 8572TIP3    H149911   3.500   2.329  13.092  0.3201  0.2185 -0.6711
 8572TIP3    H249912   3.551   2.262  13.218 -0.7400 -1.6187 -1.1884
 8573TIP3   OH249913   7.353   3.491  11.208  0.1899 -0.6406  0.6274
 8573TIP3    H149914   7.439   3.506  11.248  0.4597 -0.8555  0.1389
 8573TIP3    H249915   7.355   3.544  11.129 -0.6179  0.3608  1.2617
 8574TIP3   OH249916   0.990   4.740  13.054  0.0415 -0.0484 -0.6993
 8574TIP3    H149917   1.032   4.825  13.037  1.0120 -0.4909 -0.5664
 8574TIP3    H249918   1.041   4.703  13.126 -0.4196 -0.7274 -0.7183
 8575TIP3   OH249919   0.340   4.953  10.883  0.1624  0.1910 -0.1435
 8575TIP3    H149920   0.273   4.922  10.945  2.0086 -1.6139  1.1104
 8575TIP3    H249921   0.302   4.937  10.797 -1.2039 -0.3035  0.5135
 8576TIP3   OH249922   6.315   6.099  12.558 -0.1615 -0.4042  0.5154
 8576TIP3    H149923   6.238   6.044  12.571  0.2499 -0.8583  1.0973
 8576TIP3    H249924   6.371   6.049  12.498 -1.3094  0.9420 -1.8212
 8577TIP3   OH249925   0.579   2.114  11.048 -0.5484 -0.5993 -0.3248
 8577TIP3    H149926   0.608   2.167  10.974 -1.6456  0.4919 -0.0123
 8577TIP3    H249927   0.653   2.056  11.067  0.9368  1.2190 -0.2892
 8578TIP3   OH249928   6.768   6.358  11.512  0.3919 -0.0432 -0.5375
 8578TIP3    H149929   6.771   6.272  11.471  1.1644  0.1499 -0.8990
 8578TIP3    H249930   6.796   6.419  11.444  3.2005  0.1301  0.6566
 8579TIP3   OH249931   6.904   7.504  11.807  0.0520  0.0559  0.3936
 8579TIP3    H149932   6.874   7.491  11.718  2.2873 -1.6493 -0.2174
 8579TIP3    H249933   6.866   7.431  11.856  1.7188 -1.1979 -0.0520
 8580TIP3   OH249934   4.689   1.952  11.354  0.2929 -0.1647 -0.5490
 8580TIP3    H149935   4.709   1.939  11.446  2.1839 -0.0394 -0.9027
 8580TIP3    H249936   4.653   1.867  11.325 -1.4910  0.1730  0.5333
 8581TIP3   OH249937   0.924   7.116  11.269  0.1860 -0.2605  0.0226
 8581TIP3    H149938   0.836   7.137  11.299  0.3831 -0.3200  0.6632
 8581TIP3    H249939   0.913   7.038  11.214  0.0724 -1.5381  1.7631
 8582TIP3   OH249940   1.359   7.604  11.587 -0.2158  0.8997  0.2240
 8582TIP3    H149941   1.396   7.540  11.525  1.1522  1.4360  0.4484
 8582TIP3    H249942   1.285   7.558  11.627  0.5981 -0.4857  0.2272
 8583TIP3   OH249943   1.645   3.868  11.399 -0.3727 -0.4520 -0.0201
 8583TIP3    H149944   1.574   3.841  11.458 -0.2045 -0.0624  0.3618
 8583TIP3    H249945   1.710   3.797  11.406 -0.7736 -0.8753 -0.4705
 8584TIP3   OH249946   0.414   0.954  11.936 -0.0275  0.4247 -0.1285
 8584TIP3    H149947   0.457   1.017  11.878 -0.5190 -0.5832 -1.6288
 8584TIP3    H249948   0.465   0.873  11.926 -0.3660  0.1196  0.5485
 8585TIP3   OH249949   7.612   3.166  11.680 -0.2143 -0.2166 -0.1817
 8585TIP3    H149950   7.652   3.084  11.707 -1.2135 -0.8768 -0.6167
 8585TIP3    H249951   7.553   3.189  11.752  1.5791  1.2577  0.8945
 8586TIP3   OH249952   5.128   0.848  12.943  0.2065  0.2550 -0.0156
 8586TIP3    H149953   5.184   0.862  12.866  1.4368  2.7866  1.2144
 8586TIP3    H249954   5.178   0.789  12.999 -0.4980 -1.2338 -0.8786
 8587TIP3   OH249955   4.256   1.249  13.262  0.5889  0.1439  0.4532
 8587TIP3    H149956   4.304   1.181  13.308  1.8504 -0.5941 -1.7887
 8587TIP3    H249957   4.177   1.263  13.314  1.1556 -1.7582  1.9168
 8588TIP3   OH249958   6.412   2.421  11.923 -0.1378  0.1612 -0.1465
 8588TIP3    H149959   6.435   2.412  12.016  0.8974  0.2777 -0.3785
 8588TIP3    H249960   6.399   2.515  11.911 -0.1854  0.1555 -0.1406
 8589TIP3   OH249961   7.256   5.376  10.438 -0.1905 -0.4996 -0.0443
 8589TIP3    H149962   7.173   5.345  10.472  0.4510 -1.1285  1.0226
 8589TIP3    H249963   7.306   5.296  10.421  1.2565 -0.1661  2.1515
 8590TIP3   OH249964   6.568   3.246  11.799 -0.5859  0.4053 -0.1314
 8590TIP3    H149965   6.623   3.186  11.748 -2.3584 -1.0928 -0.4029
 8590TIP3    H249966   6.538   3.192  11.873 -1.3316  1.3260  0.2457
 8591TIP3   OH249967   5.416   7.508  11.505 -0.3782 -0.0375  0.2748
 8591TIP3    H149968   5.359   7.545  11.572 -0.6477  0.5193 -0.2609
 8591TIP3    H249969   5.384   7.543  11.423  0.2634 -0.3209 -0.1083
 8592TIP3   OH249970   1.163   7.663  12.563 -0.1817  0.2523 -0.2895
 8592TIP3    H149971   1.087   7.698  12.517  0.4860  1.7436 -0.3125
 8592TIP3    H249972   1.137   7.663  12.655 -0.6644 -0.4813 -0.4172
 8593TIP3   OH249973   5.696   6.087  13.003 -0.5550 -0.0259 -0.1296
 8593TIP3    H149974   5.750   6.147  13.054 -1.0397 -1.0104  1.6148
 8593TIP3    H249975   5.731   6.093  12.914  2.4649 -0.6768  0.9092
 8594TIP3   OH249976   4.275   5.699  11.021  0.0768 -0.2043 -0.1029
 8594TIP3    H149977   4.192   5.668  11.055 -0.5143 -1.2288 -2.3180
 8594TIP3    H249978   4.337   5.685  11.092 -1.7523  1.5531  1.9840
 8595TIP3   OH249979   2.750   1.682  12.411  0.2697  0.1987 -0.0155
 8595TIP3    H149980   2.833   1.685  12.458 -0.4754 -1.0092  1.4662
 8595TIP3    H249981   2.725   1.774  12.402  1.7762  0.5829 -0.5482
 8596TIP3   OH249982   5.712   0.683  11.908 -0.0676 -0.2197 -0.5580
 8596TIP3    H149983   5.624   0.652  11.887 -0.3666 -0.2769  0.6950
 8596TIP3    H249984   5.701   0.734  11.988  1.1700 -1.0882  0.2117
 8597TIP3   OH249985   3.530   2.163  13.629  0.7661 -0.3256 -0.0532
 8597TIP3    H149986   3.538   2.068  13.642  0.1080 -0.5420 -1.1102
 8597TIP3    H249987   3.617   2.197  13.646  1.0545 -1.1476  0.1488
 8598TIP3   OH249988   6.975   4.422  11.474 -0.0914  0.2107 -0.3712
 8598TIP3    H149989   6.947   4.360  11.541 -1.0974  0.2676 -0.7251
 8598TIP3    H249990   7.070   4.423  11.480 -0.1677  0.1871  1.0213
 8599TIP3   OH249991   6.485   4.682  10.908 -0.4677  0.2313  0.2458
 8599TIP3    H149992   6.547   4.683  10.981 -0.1404  2.1281 -0.0016
 8599TIP3    H249993   6.401   4.659  10.948 -0.0573 -0.0542  0.9781
 8600TIP3   OH249994   1.759   4.598  12.331 -0.1638  0.2036 -0.0818
 8600TIP3    H149995   1.730   4.509  12.349 -1.6077  0.2828 -1.7978
 8600TIP3    H249996   1.855   4.592  12.327 -0.2602 -1.3380 -0.5037
 8601TIP3   OH249997   3.281   0.695  12.219  0.7167  0.1030 -0.2085
 8601TIP3    H149998   3.262   0.781  12.255  2.1916  1.1727 -1.8167
 8601TIP3    H249999   3.258   0.702  12.126 -0.1414 -1.5927 -0.1598
 8602TIP3   OH250000   0.274   5.479  11.991  0.3807  0.2606  0.8727
 8602TIP3    H150001   0.345   5.517  12.042  1.0875  0.8178 -0.4553
 8602TIP3    H250002   0.316   5.408  11.941  0.2478  1.2123 -0.6522
 8603TIP3   OH250003   1.054   5.011  11.555 -0.8969  0.1030 -0.3198
 8603TIP3    H150004   1.104   5.017  11.474 -0.0669  0.6122  0.2150
 8603TIP3    H250005   1.041   5.102  11.583 -0.3320 -0.0875  0.6147
 8604TIP3   OH250006   2.926   2.566  11.422 -0.0879  0.0480  0.4424
 8604TIP3    H150007   2.846   2.617  11.435 -0.5619 -1.0644  2.2655
 8604TIP3    H250008   2.997   2.626  11.445 -0.4919  0.5956  0.2794
 8605TIP3   OH250009   0.284   3.111  11.318 -0.2336 -0.0910  0.2649
 8605TIP3    H150010   0.335   3.114  11.237  0.3318 -1.9365  0.4931
 8605TIP3    H250011   0.342   3.148  11.384 -0.2108  0.2694  0.0423
 8606TIP3   OH250012   1.460   6.082  11.282  0.0414  0.0308  0.0038
 8606TIP3    H150013   1.549   6.107  11.258  0.1363 -1.2368 -1.0203
 8606TIP3    H250014   1.408   6.161  11.268  0.7760  0.4073 -0.6263
 8607TIP3   OH250015   4.515   3.477  10.665 -0.5078 -0.0035 -0.3092
 8607TIP3    H150016   4.585   3.424  10.703 -1.0047 -1.2991 -1.1191
 8607TIP3    H250017   4.435   3.428  10.684 -1.1271  1.0581 -0.0856
 8608TIP3   OH250018   6.158   1.649  11.167  0.2865  0.4088 -0.2707
 8608TIP3    H150019   6.151   1.593  11.090  0.0708  1.5784 -1.1233
 8608TIP3    H250020   6.205   1.596  11.231  1.4992 -0.1717 -1.6062
 8609TIP3   OH250021   4.137   2.569  12.113 -0.1085 -0.0369 -0.0657
 8609TIP3    H150022   4.198   2.620  12.060  0.3896 -1.2921 -0.7269
 8609TIP3    H250023   4.066   2.547  12.053 -0.8116  0.6899  0.4760
 8610TIP3   OH250024   1.693   1.161  11.291 -0.0332 -0.2285  0.2360
 8610TIP3    H150025   1.714   1.075  11.255  0.5115 -0.5222  1.2248
 8610TIP3    H250026   1.750   1.222  11.243  0.0283 -0.4970 -0.0346
 8611TIP3   OH250027   3.910   6.153  13.391  0.0244  0.5397 -0.8836
 8611TIP3    H150028   3.969   6.227  13.401 -0.1038  0.3682  2.0806
 8611TIP3    H250029   3.834   6.175  13.445 -0.5485 -1.2313 -0.8966
 8612TIP3   OH250030   5.575   0.336  12.490 -0.4317  0.2176 -0.3127
 8612TIP3    H150031   5.550   0.405  12.428  0.5931  1.7636  0.9288
 8612TIP3    H250032   5.520   0.350  12.566 -0.0469 -0.1915  0.0507
 8613TIP3   OH250033   0.922   2.632  11.212 -0.1473 -0.0277  0.1958
 8613TIP3    H150034   0.827   2.622  11.213 -0.1482 -0.0127  0.2567
 8613TIP3    H250035   0.939   2.688  11.136 -0.2042  0.1444  0.3090
 8614TIP3   OH250036   2.687   3.840  12.329 -0.1495 -0.4686 -0.7944
 8614TIP3    H150037   2.750   3.789  12.278  0.1089 -0.2645 -0.6788
 8614TIP3    H250038   2.733   3.861  12.410 -0.6095 -0.9163 -0.4097
 8615TIP3   OH250039   0.210   7.401  11.760 -0.6356  0.3544  0.0823
 8615TIP3    H150040   0.239   7.332  11.820  0.5689  0.1859 -0.6565
 8615TIP3    H250041   0.291   7.437  11.724 -1.2903 -0.8011 -2.8529
 8616TIP3   OH250042   2.981   1.315  12.827  0.1991 -0.5773  0.0052
 8616TIP3    H150043   3.068   1.328  12.867  0.1770 -1.3076  0.3043
 8616TIP3    H250044   2.929   1.274  12.896 -0.6452  0.6083  0.1104
 8617TIP3   OH250045   4.309   3.724  12.067 -0.0523 -0.1527 -0.1652
 8617TIP3    H150046   4.310   3.645  12.120  1.8868  0.6650  1.1243
 8617TIP3    H250047   4.218   3.754  12.070 -0.8951 -2.4631 -0.9709
 8618TIP3   OH250048   3.938   7.662  12.072 -0.6125  0.6420 -0.1140
 8618TIP3    H150049   3.853   7.636  12.037 -0.4225  0.9104 -0.7903
 8618TIP3    H250050   3.924   7.669  12.167 -1.0337 -0.4850 -0.0738
 8619TIP3   OH250051   3.299   2.200  12.147  0.2254  0.1723 -0.6964
 8619TIP3    H150052   3.229   2.245  12.100 -1.1783  0.8089  1.8063
 8619TIP3    H250053   3.263   2.112  12.164  0.2541  0.3069  0.0887
 8620TIP3   OH250054   0.941   3.734  13.223  0.1625  0.5184 -0.5057
 8620TIP3    H150055   0.875   3.803  13.216 -1.5772 -1.1513 -1.3910
 8620TIP3    H250056   1.024   3.778  13.203 -0.9291  2.2591 -1.4371
 8621TIP3   OH250057   3.846   6.759  11.047  0.0917 -0.0272 -0.0729
 8621TIP3    H150058   3.821   6.693  11.112 -0.9994  1.2841  0.8771
 8621TIP3    H250059   3.789   6.741  10.972 -1.0294  0.5241  0.6198
 8622TIP3   OH250060   6.559   6.955  10.995  0.5416 -0.3744 -0.2865
 8622TIP3    H150061   6.641   6.937  11.042 -0.0100 -0.2186  0.7475
 8622TIP3    H250062   6.582   7.025  10.934  0.9835  0.2571  0.5818
 8623TIP3   OH250063   6.407   0.531  12.444  0.5881 -0.9938  0.1047
 8623TIP3    H150064   6.434   0.439  12.445  0.4943 -1.0722  3.2205
 8623TIP3    H250065   6.313   0.529  12.429  0.6655 -1.3352 -0.3760
 8624TIP3   OH250066   5.186   2.842  11.283  0.0430 -0.3295 -0.2452
 8624TIP3    H150067   5.256   2.815  11.342 -0.0933  1.5850  0.8573
 8624TIP3    H250068   5.227   2.842  11.196  1.3376  0.4012  0.3287
 8625TIP3   OH250069   2.676   4.795  11.284 -0.0632  0.4628  0.7112
 8625TIP3    H150070   2.659   4.730  11.352 -0.3586 -1.5690 -1.1790
 8625TIP3    H250071   2.763   4.829  11.303 -0.5004  0.6358  2.5736
 8626TIP3   OH250072   3.746   0.418  12.645  0.5090  0.2575 -0.0193
 8626TIP3    H150073   3.706   0.488  12.696 -0.0122  1.2518 -1.7025
 8626TIP3    H250074   3.676   0.387  12.587  0.4816 -2.2508  1.1852
 8627TIP3   OH250075   6.881   1.756  11.072 -0.2958  0.1254  0.0965
 8627TIP3    H150076   6.921   1.803  11.145  0.6815 -1.7637  0.8403
 8627TIP3    H250077   6.948   1.758  11.003  0.0001 -0.6563  0.3488
 8628TIP3   OH250078   2.182   6.539  12.894  0.1081  0.7275 -0.1330
 8628TIP3    H150079   2.183   6.528  12.989  2.2069  0.3745 -0.1432
 8628TIP3    H250080   2.163   6.632  12.880 -0.4828  0.7233  0.6092
 8629TIP3   OH250081   5.687   3.831  10.621 -0.6593 -0.1107  0.3856
 8629TIP3    H150082   5.606   3.779  10.622 -0.1627 -0.9726 -1.0720
 8629TIP3    H250083   5.757   3.766  10.618  0.0060  0.6242 -0.7712
 8630TIP3   OH250084   2.201   7.508  10.712 -0.3188 -0.4301 -0.0606
 8630TIP3    H150085   2.259   7.467  10.648  0.2664  0.0762  0.1279
 8630TIP3    H250086   2.127   7.539  10.661 -0.4933 -1.2068 -0.2856
 8631TIP3   OH250087   6.032   5.427  11.229 -0.3131 -0.6013  0.3136
 8631TIP3    H150088   5.944   5.425  11.267 -0.0121 -1.6962  1.0023
 8631TIP3    H250089   6.020   5.467  11.143 -1.1056  1.4293  1.2999
 8632TIP3   OH250090   0.638   4.619  12.683  0.5512 -0.4618 -0.2115
 8632TIP3    H150091   0.695   4.570  12.743  0.6768  0.2248  0.2379
 8632TIP3    H250092   0.692   4.691  12.652 -0.2105  0.5129  0.6373
 8633TIP3   OH250093   4.355   5.675  12.703 -0.2628  0.6101  0.4828
 8633TIP3    H150094   4.281   5.728  12.674  0.2393 -0.6001 -3.5321
 8633TIP3    H250095   4.317   5.589  12.722 -0.2511  0.7819  1.3354
 8634TIP3   OH250096   1.992   3.767  11.899 -0.2371 -0.8583 -0.8174
 8634TIP3    H150097   1.957   3.798  11.816 -3.2482  1.8136  1.2048
 8634TIP3    H250098   2.043   3.840  11.934 -1.2238 -0.8840  0.7892
 8635TIP3   OH250099   6.710   3.862  10.656 -0.0510 -0.0915  0.3938
 8635TIP3    H150100   6.688   3.799  10.724 -0.7670  0.2349  0.4696
 8635TIP3    H250101   6.790   3.827  10.615  0.5040 -0.1926  1.5222
 8636TIP3   OH250102   4.058   0.914  11.251  0.1156  0.4420 -0.6265
 8636TIP3    H150103   4.033   0.990  11.305 -1.6060 -1.6652  1.7951
 8636TIP3    H250104   3.979   0.891  11.203  0.3300 -0.3812 -0.5974
 8637TIP3   OH250105   0.068   7.402  11.479  0.2440 -0.2958 -0.0483
 8637TIP3    H150106  -0.016   7.370  11.512 -0.7457  0.3333 -1.8660
 8637TIP3    H250107   0.109   7.443  11.555 -2.5847  2.4453  0.1810
 8638TIP3   OH250108   6.969   4.273  12.226 -0.0047  0.0147  0.3239
 8638TIP3    H150109   7.046   4.307  12.270 -0.4027  1.3703  0.0057
 8638TIP3    H250110   6.895   4.319  12.267 -0.4976  0.1229 -0.6429
 8639TIP3   OH250111   0.662   6.854  11.627 -0.0125 -0.1991  0.1384
 8639TIP3    H150112   0.697   6.783  11.572  3.1496  2.6004 -1.8150
 8639TIP3    H250113   0.710   6.846  11.710 -0.2770 -0.7718  0.2450
 8640TIP3   OH250114   7.538   4.741  10.959  0.2017  0.2593 -0.1529
 8640TIP3    H150115   7.534   4.734  11.054  1.0812 -0.0921 -0.1327
 8640TIP3    H250116   7.517   4.832  10.940 -0.7459  0.1409  0.3241
 8641TIP3   OH250117   3.787   5.612  12.428  0.3777  0.0549 -0.2227
 8641TIP3    H150118   3.740   5.531  12.444 -2.8582  1.6351 -0.7586
 8641TIP3    H250119   3.809   5.610  12.335 -0.7497  0.2573 -0.5024
 8642TIP3   OH250120   1.137   2.559  11.393  0.2774  0.1146 -0.7552
 8642TIP3    H150121   1.059   2.575  11.340 -0.4449  0.8892  0.4913
 8642TIP3    H250122   1.184   2.642  11.392  0.0147  0.2849  0.1772
 8643TIP3   OH250123   4.325   5.569  12.080 -0.2376 -0.0027  0.4284
 8643TIP3    H150124   4.326   5.542  12.172  0.6974 -1.3183  0.0607
 8643TIP3    H250125   4.358   5.493  12.032 -1.0450  0.5303 -1.0419
 8644TIP3   OH250126   4.444   5.597  11.211 -0.2220  0.3626  0.0186
 8644TIP3    H150127   4.502   5.636  11.276 -0.7545  1.2282 -0.0057
 8644TIP3    H250128   4.431   5.507  11.241  1.3428  0.0685 -0.1404
 8645TIP3   OH250129   6.519   7.350  11.677 -0.1388 -0.9380 -0.2955
 8645TIP3    H150130   6.445   7.291  11.662 -1.0423  0.5073 -1.9113
 8645TIP3    H250131   6.479   7.431  11.709  0.9170 -0.6341  0.3098
 8646TIP3   OH250132   0.979   2.371  12.856  0.1789  0.0844  0.2130
 8646TIP3    H150133   1.043   2.430  12.817  0.3756  0.1456  0.6252
 8646TIP3    H250134   0.917   2.428  12.901  0.4020 -0.0274  0.6613
 8647TIP3   OH250135   5.734   4.106  12.211  0.8986  0.2369 -0.2398
 8647TIP3    H150136   5.695   4.023  12.237  1.8153 -0.2442 -0.3669
 8647TIP3    H250137   5.703   4.169  12.276 -1.5833  0.2910 -1.3583
 8648TIP3   OH250138   0.530   0.206  10.821  0.3150  0.2068 -0.2608
 8648TIP3    H150139   0.576   0.211  10.905  0.3857  0.7895 -0.3268
 8648TIP3    H250140   0.476   0.285  10.820 -0.5791 -0.3993 -0.2504
 8649TIP3   OH250141   7.704   0.427  11.331  0.4574 -0.1501  0.3226
 8649TIP3    H150142   7.680   0.402  11.242 -0.8724  1.0122  0.3175
 8649TIP3    H250143   7.745   0.513  11.322  2.7070 -1.1214  0.5939
 8650TIP3   OH250144   1.756   3.345  12.121 -0.0057 -0.3601 -0.2519
 8650TIP3    H150145   1.772   3.367  12.030  0.6606  0.1222 -0.0275
 8650TIP3    H250146   1.770   3.427  12.169 -1.3999 -0.3321  0.1834
 8651TIP3   OH250147   2.951   4.998  12.919  0.5625 -0.4422  0.3861
 8651TIP3    H150148   2.974   5.016  12.828  1.2254 -0.2580  0.5885
 8651TIP3    H250149   2.902   4.916  12.915 -1.9054  0.9505 -0.4703
 8652TIP3   OH250150   6.091   2.121  11.003 -0.2758 -0.1140  0.1004
 8652TIP3    H150151   6.121   2.183  11.069  1.4423 -0.5283 -0.2431
 8652TIP3    H250152   6.011   2.160  10.968 -0.0220  1.1861  0.8904
 8653TIP3   OH250153   2.497   2.059  10.994  0.3547  0.1426  0.0565
 8653TIP3    H150154   2.530   2.109  11.069  1.3025  1.2648 -1.0896
 8653TIP3    H250155   2.461   2.125  10.935 -0.3486 -0.7352 -0.5182
 8654TIP3   OH250156   1.530   7.018  10.810  0.1297 -0.8271 -0.1999
 8654TIP3    H150157   1.622   7.044  10.810  0.2426 -1.1531 -1.8103
 8654TIP3    H250158   1.483   7.096  10.839  0.7395  0.1108 -1.6271
 8655TIP3   OH250159   1.751   2.479  12.463 -0.1809  0.4696  0.2295
 8655TIP3    H150160   1.671   2.461  12.412 -0.2235  0.1896  0.3938
 8655TIP3    H250161   1.739   2.429  12.544  0.7113 -0.5673 -0.2506
 8656TIP3   OH250162   4.012   0.537  12.613  0.0070 -0.2983  0.6670
 8656TIP3    H150163   4.053   0.505  12.693 -1.2411 -2.1456  0.6246
 8656TIP3    H250164   3.925   0.498  12.613  0.0989 -0.6561 -1.7797
 8657TIP3   OH250165   3.683   7.437  12.074  0.7922 -0.2143 -0.0635
 8657TIP3    H150166   3.756   7.404  12.021 -0.0094  0.5394 -1.7361
 8657TIP3    H250167   3.607   7.388  12.044  0.4245 -0.2448  0.8928
 8658TIP3   OH250168   4.825   7.189  11.663 -0.0931 -0.1924  0.2181
 8658TIP3    H150169   4.766   7.194  11.739  0.9386 -0.3139  1.0590
 8658TIP3    H250170   4.773   7.148  11.594 -1.4100  0.9289  0.5056
 8659TIP3   OH250171   0.935   2.257  11.318 -0.1448 -0.2255  0.4778
 8659TIP3    H150172   0.917   2.278  11.227  2.0404 -1.4412 -0.3198
 8659TIP3    H250173   1.013   2.308  11.340  0.2057 -1.0327  1.1902
 8660TIP3   OH250174   5.943   2.111  11.970  0.0162 -0.2996  0.2522
 8660TIP3    H150175   5.921   2.036  11.915 -0.7615 -0.4873  0.8021
 8660TIP3    H250176   6.036   2.126  11.954 -0.3888  0.2885 -1.9017
 8661TIP3   OH250177   5.873   4.295  11.072 -0.6437  0.0030  0.0858
 8661TIP3    H150178   5.913   4.315  10.987 -1.8927 -1.2131 -0.8337
 8661TIP3    H250179   5.936   4.238  11.116  0.3472  1.2379  0.3172
 8662TIP3   OH250180   5.430   2.392  11.531  0.1540  0.2750 -0.0244
 8662TIP3    H150181   5.336   2.383  11.545 -0.0938  0.1271 -1.6436
 8662TIP3    H250182   5.440   2.479  11.492  0.5278 -0.2446 -1.1116
 8663TIP3   OH250183   0.453   6.070  13.098 -0.1134  0.4014  0.1099
 8663TIP3    H150184   0.361   6.048  13.086  0.1792 -0.6200 -0.4030
 8663TIP3    H250185   0.460   6.160  13.065 -0.8418  0.3309 -0.2690
 8664TIP3   OH250186   4.134   0.312  11.933 -0.0669 -0.4426  0.2694
 8664TIP3    H150187   4.104   0.390  11.886  2.0190 -0.3868 -1.1384
 8664TIP3    H250188   4.172   0.345  12.014  0.0737 -0.0521  0.0478
 8665TIP3   OH250189   2.195   0.413  12.994 -0.4538  0.0994  0.1278
 8665TIP3    H150190   2.198   0.462  12.912 -2.0855 -2.1423 -1.4208
 8665TIP3    H250191   2.281   0.427  13.034  0.0989  1.9326 -1.5364
 8666TIP3   OH250192   2.751   7.504  12.038  0.1128  0.2392 -0.1618
 8666TIP3    H150193   2.831   7.523  11.989 -0.7860  2.1814 -1.0134
 8666TIP3    H250194   2.706   7.589  12.043 -0.2281 -0.0216  3.4177
 8667TIP3   OH250195   0.462   0.853  11.141  0.2506  0.2298 -0.1567
 8667TIP3    H150196   0.538   0.830  11.195  0.5705  4.0458  1.3871
 8667TIP3    H250197   0.495   0.849  11.051  1.7817  0.1365  0.3818
 8668TIP3   OH250198   1.803   4.422  11.027  0.2511 -0.1881 -0.2138
 8668TIP3    H150199   1.708   4.415  11.038 -0.2541 -0.0020 -3.4795
 8668TIP3    H250200   1.822   4.369  10.950  3.1660 -1.7558  1.4448
 8669TIP3   OH250201   7.087   0.917  12.869  0.2772 -0.2128 -0.2548
 8669TIP3    H150202   7.065   0.996  12.918 -1.7822 -0.5205 -0.6008
 8669TIP3    H250203   7.138   0.948  12.795 -0.8008  0.8509 -0.5731
 8670TIP3   OH250204   4.952   0.431  12.523  0.6049 -0.3197 -0.3813
 8670TIP3    H150205   5.030   0.422  12.468 -1.3581 -1.9882 -3.1467
 8670TIP3    H250206   4.881   0.395  12.470 -2.4001  2.5522  1.2776
 8671TIP3   OH250207   2.144   7.299  11.608  0.3318  0.1537 -0.2105
 8671TIP3    H150208   2.213   7.233  11.616  0.9578  1.0170  2.3194
 8671TIP3    H250209   2.165   7.364  11.675 -1.7436  1.5848 -0.8528
 8672TIP3   OH250210   1.863   3.447  12.461 -0.2468  0.4266  0.9195
 8672TIP3    H150211   1.811   3.525  12.440 -0.9346 -0.0050  0.9740
 8672TIP3    H250212   1.878   3.453  12.555 -1.7931 -0.3639  1.2559
 8673TIP3   OH250213   2.145   4.751  11.413 -0.0251  0.2861  0.2187
 8673TIP3    H150214   2.191   4.823  11.369 -0.6085  0.1925 -0.5769
 8673TIP3    H250215   2.053   4.762  11.386 -0.2928 -0.1383  0.9374
 8674TIP3   OH250216   2.845   2.631  10.684 -0.4672  0.5898 -0.2488
 8674TIP3    H150217   2.904   2.589  10.621 -1.7974  1.6013 -2.2587
 8674TIP3    H250218   2.903   2.660  10.755  1.0496 -0.8369 -0.8439
 8675TIP3   OH250219   4.365   6.205  13.271 -0.2087  0.0269  0.3717
 8675TIP3    H150220   4.406   6.229  13.188  1.1613  1.2893  1.3684
 8675TIP3    H250221   4.419   6.135  13.306  0.5951  1.0678  1.2592
 8676TIP3   OH250222   7.105   5.233  11.455 -0.2880 -0.3052  0.4963
 8676TIP3    H150223   7.131   5.215  11.365  2.0383  1.4509  0.7039
 8676TIP3    H250224   7.179   5.201  11.508 -2.1691 -2.5347  1.9758
 8677TIP3   OH250225   3.300   0.321  12.826  0.2551  0.1970 -0.5910
 8677TIP3    H150226   3.313   0.416  12.821  1.0425  0.0522 -1.7608
 8677TIP3    H250227   3.256   0.307  12.910  2.0547  1.3979  0.6166
 8678TIP3   OH250228   2.795   2.540  12.838  0.1234  0.1293  0.1322
 8678TIP3    H150229   2.746   2.601  12.893 -0.8794 -1.7864  1.4931
 8678TIP3    H250230   2.835   2.479  12.900  0.4650 -1.0370 -1.1896
 8679TIP3   OH250231   4.930   2.813  12.243 -0.1507  0.2395 -0.1224
 8679TIP3    H150232   4.934   2.834  12.150  2.5030  0.4669 -0.0282
 8679TIP3    H250233   5.003   2.753  12.257 -1.1950 -0.6950  1.6247
 8680TIP3   OH250234   0.963   0.603  11.117 -0.7843  0.2105  0.3816
 8680TIP3    H150235   1.026   0.534  11.137 -0.3644  0.5097  0.1105
 8680TIP3    H250236   0.980   0.672  11.181 -1.9279 -0.3754  1.3462
 8681TIP3   OH250237   2.727   6.355  11.693  0.2725 -0.2149  0.1205
 8681TIP3    H150238   2.730   6.282  11.631  1.5857  0.3528 -0.5225
 8681TIP3    H250239   2.645   6.343  11.740  1.1217 -2.9736  1.1181
 8682TIP3   OH250240   5.906   6.432  10.664  0.1010  0.2937  0.0119
 8682TIP3    H150241   5.850   6.356  10.681 -3.0002  2.1891 -0.9647
 8682TIP3    H250242   5.917   6.474  10.749  0.3074 -0.2347  0.2524
 8683TIP3   OH250243   7.319   1.473  10.490  0.2265  0.3852 -0.2984
 8683TIP3    H150244   7.377   1.458  10.564  2.2943 -1.2194 -2.0961
 8683TIP3    H250245   7.333   1.397  10.433 -3.4837  0.0367 -1.0124
 8684TIP3   OH250246   1.205   2.621  12.842  0.1775 -1.0654  0.2162
 8684TIP3    H150247   1.270   2.623  12.772 -0.0117 -5.1460 -0.3378
 8684TIP3    H250248   1.256   2.607  12.922  0.2260  1.2298  0.6530
 8685TIP3   OH250249   3.874   0.221  11.837 -0.5275  0.1989  0.1977
 8685TIP3    H150250   3.837   0.309  11.845 -0.2180  0.2002  2.2360
 8685TIP3    H250251   3.966   0.231  11.860 -0.5004 -0.6659  0.5060
 8686TIP3   OH250252   1.822   2.476  13.011 -0.1710  0.3947 -0.3076
 8686TIP3    H150253   1.890   2.417  13.044 -0.1929 -0.1450 -1.1947
 8686TIP3    H250254   1.740   2.430  13.028 -0.2668  0.7001  0.0634
 8687TIP3   OH250255   4.421   2.764  10.874 -0.0967 -0.2948  0.8480
 8687TIP3    H150256   4.358   2.808  10.816  0.4804 -1.0011 -0.3548
 8687TIP3    H250257   4.386   2.676  10.885 -0.3878 -0.0607  1.8967
 8688TIP3   OH250258   0.965   0.863  11.846  0.7829 -0.4682  0.0723
 8688TIP3    H150259   1.011   0.824  11.921 -0.9444 -0.8513  0.9789
 8688TIP3    H250260   0.904   0.795  11.817 -1.0041  0.8655  0.5333
 8689TIP3   OH250261   2.965   1.022  11.975 -0.4604  0.2080 -0.3338
 8689TIP3    H150262   2.923   0.938  11.994  0.1533 -0.2146 -0.8066
 8689TIP3    H250263   3.022   1.038  12.050 -0.2552 -0.0173 -0.4385
 8690TIP3   OH250264   6.400   6.055  11.375  0.0727 -0.1555  0.1196
 8690TIP3    H150265   6.305   6.058  11.382 -0.1301  1.0253 -2.2556
 8690TIP3    H250266   6.418   5.974  11.326  0.3377 -0.5559  0.8616
 8691TIP3   OH250267   5.284   4.475  12.115 -0.3755 -0.1995 -0.0650
 8691TIP3    H150268   5.350   4.417  12.153  2.6159  2.8837 -0.0670
 8691TIP3    H250269   5.256   4.531  12.188 -0.3134  0.8296 -0.8120
 8692TIP3   OH250270   5.415   2.542  11.816  0.0351  0.0704 -0.0398
 8692TIP3    H150271   5.384   2.478  11.751  0.1174 -1.3552  1.2647
 8692TIP3    H250272   5.335   2.576  11.856  0.0213 -1.3130  1.1818
 8693TIP3   OH250273   1.257   1.898  12.616  0.3856 -0.3418  0.5053
 8693TIP3    H150274   1.346   1.871  12.594  0.3296 -0.8866  0.9534
 8693TIP3    H250275   1.249   1.883  12.710 -0.4859 -1.1739  0.3104
 8694TIP3   OH250276   5.712   0.643  12.692  0.0147 -0.6530 -0.7856
 8694TIP3    H150277   5.689   0.562  12.738  0.2918  0.0891  0.7172
 8694TIP3    H250278   5.671   0.712  12.743  1.0657  0.2636 -1.1506
 8695TIP3   OH250279   4.272   4.093  11.367  0.0233 -0.7096 -0.3267
 8695TIP3    H150280   4.264   4.086  11.272 -0.2810 -1.0574 -0.2747
 8695TIP3    H250281   4.347   4.152  11.380  0.6766 -1.4096 -0.7821
 8696TIP3   OH250282   0.459   2.323  11.618 -0.0979 -0.2303 -0.2617
 8696TIP3    H150283   0.530   2.328  11.554 -0.0262 -1.4311 -0.2935
 8696TIP3    H250284   0.380   2.341  11.568 -0.0505 -1.2476 -0.7270
 8697TIP3   OH250285   1.985   7.241  12.639 -0.2553 -0.1280  0.4677
 8697TIP3    H150286   1.896   7.212  12.622  0.2115 -1.7063  0.5893
 8697TIP3    H250287   2.027   7.167  12.681  2.0076 -0.6017 -2.3118
 8698TIP3   OH250288   4.537   1.421  10.715  0.0033 -0.0896 -0.0356
 8698TIP3    H150289   4.450   1.450  10.743 -0.1055 -0.1803 -0.2840
 8698TIP3    H250290   4.584   1.406  10.797 -0.3550 -0.4603  0.1028
 8699TIP3   OH250291   2.569   3.510  10.836 -0.7318 -0.8164  0.4744
 8699TIP3    H150292   2.559   3.423  10.797 -0.2423 -0.5209 -0.3217
 8699TIP3    H250293   2.657   3.537  10.812 -0.5154 -0.5058  1.5689
 8700TIP3   OH250294   2.251   4.333  10.676  0.5613  0.3948  0.2756
 8700TIP3    H150295   2.212   4.252  10.708 -1.4886  1.9266  1.9630
 8700TIP3    H250296   2.191   4.402  10.705  2.2984  2.5600 -0.9171
 8701TIP3   OH250297   7.437   2.614  11.668  0.1135 -0.0398 -0.0764
 8701TIP3    H150298   7.471   2.703  11.656 -1.1073  0.7580  1.8004
 8701TIP3    H250299   7.356   2.613  11.618 -0.9637  0.6652  1.5774
 8702TIP3   OH250300   0.665   1.428  12.392  0.3516 -0.3911 -0.3287
 8702TIP3    H150301   0.660   1.388  12.479  0.2164 -1.6256 -0.8864
 8702TIP3    H250302   0.590   1.487  12.388  0.3723 -0.3013  0.3904
 8703TIP3   OH250303   5.199   2.678  11.550  0.0071 -0.1829 -0.4478
 8703TIP3    H150304   5.282   2.667  11.504  0.5221  0.7491  0.2054
 8703TIP3    H250305   5.223   2.724  11.631 -0.8131 -1.9950  0.9054
 8704TIP3   OH250306   5.464   5.498  11.446  0.2623 -0.4074 -0.0141
 8704TIP3    H150307   5.529   5.553  11.403 -0.3002 -0.0253 -0.4010
 8704TIP3    H250308   5.380   5.527  11.409 -0.1533 -0.6781  0.6942
 8705TIP3   OH250309   7.406   3.437  11.556 -0.6920 -0.2165  0.0385
 8705TIP3    H150310   7.336   3.471  11.501 -0.2928  0.3599 -0.1145
 8705TIP3    H250311   7.360   3.400  11.632 -1.2439 -1.0291 -0.6738
 8706TIP3   OH250312   3.369   6.092  11.139  0.2725 -0.2547  0.3645
 8706TIP3    H150313   3.342   6.005  11.170 -0.1600 -0.2238  0.0914
 8706TIP3    H250314   3.366   6.084  11.044 -0.9919  0.4191  0.3282
 8707TIP3   OH250315   1.244   4.056  10.934  0.1345 -0.5632 -0.5255
 8707TIP3    H150316   1.159   4.052  10.892 -0.6999  0.3549  0.9703
 8707TIP3    H250317   1.267   3.965  10.952 -1.4470 -0.7637  0.7275
 8708TIP3   OH250318   1.012   6.060  12.385  0.9703 -0.4532  0.1802
 8708TIP3    H150319   0.928   6.018  12.405  0.0330  0.3413 -1.7527
 8708TIP3    H250320   1.026   6.121  12.458 -1.0098  0.5793 -0.2219
 8709TIP3   OH250321   6.878   7.611  10.758  0.2388  0.2469  0.1031
 8709TIP3    H150322   6.930   7.615  10.678  1.0521  0.4951  0.6310
 8709TIP3    H250323   6.842   7.699  10.768  0.0533  0.1891 -0.0326
 8710TIP3   OH250324   0.250   3.946  12.160  0.0303  0.0422  0.6409
 8710TIP3    H150325   0.266   4.040  12.156  0.2450 -0.0329 -1.8213
 8710TIP3    H250326   0.322   3.907  12.109 -0.2453 -1.4297  1.3146
 8711TIP3   OH250327   6.177   7.330  10.256 -0.1586 -0.0867 -0.5634
 8711TIP3    H150328   6.269   7.351  10.240 -0.2097  0.4828 -0.1479
 8711TIP3    H250329   6.130   7.410  10.230 -0.4534 -0.0540  0.0570
 8712TIP3   OH250330   0.873   1.964  10.268 -0.2864  0.9255 -0.1488
 8712TIP3    H150331   0.923   1.896  10.314 -1.4326 -1.2713 -1.9225
 8712TIP3    H250332   0.913   2.046  10.295  1.2142 -0.4432  2.0949
 8713TIP3   OH250333   1.687   4.108  11.896  0.3768 -0.1132  0.1441
 8713TIP3    H150334   1.631   4.031  11.907 -0.8558  0.9248  1.5936
 8713TIP3    H250335   1.628   4.175  11.863  0.6935  1.0473  1.8250
 8714TIP3   OH250336   7.016   2.485  11.545  0.3491  0.5720 -0.1163
 8714TIP3    H150337   7.049   2.482  11.455 -1.1624 -1.4055 -0.6594
 8714TIP3    H250338   7.080   2.435  11.595 -0.2955 -0.8096 -0.6425
 8715TIP3   OH250339   2.670   4.224  11.186  0.1491  0.4841  0.1230
 8715TIP3    H150340   2.628   4.266  11.111  0.8380  1.0768  0.0639
 8715TIP3    H250341   2.718   4.294  11.230 -0.5946  0.2469  1.3899
 8716TIP3   OH250342   6.671   6.697  11.772 -0.3894 -0.2027  0.4191
 8716TIP3    H150343   6.582   6.664  11.778 -0.0706 -1.1206  0.2071
 8716TIP3    H250344   6.723   6.623  11.741  0.2076  0.7168 -0.9101
 8717TIP3   OH250345   0.953   5.960  11.371  0.4866  0.7471  0.0638
 8717TIP3    H150346   1.046   5.963  11.351  0.7301  0.4788  1.0981
 8717TIP3    H250347   0.934   6.047  11.408  0.3948  0.6967  0.1356
 8718TIP3   OH250348   7.139   6.883  12.799 -0.5148 -0.3935  0.4472
 8718TIP3    H150349   7.142   6.838  12.883  1.5903  0.7888  1.0967
 8718TIP3    H250350   7.206   6.839  12.747 -0.9172 -0.2824 -0.1701
 8719TIP3   OH250351   0.762   5.997  12.025  0.3026  0.0119 -0.5495
 8719TIP3    H150352   0.752   5.904  12.005 -0.3264  0.1171 -0.7593
 8719TIP3    H250353   0.783   6.038  11.941  0.9451  0.0105 -0.3903
 8720TIP3   OH250354   3.317   0.369  11.149 -0.0805  1.1640  0.5612
 8720TIP3    H150355   3.289   0.369  11.057 -0.0575  0.4348  0.5516
 8720TIP3    H250356   3.289   0.284  11.183  1.6726  0.5699  0.6749
 8721TIP3   OH250357   3.503   5.177  12.363 -1.2451  0.1334  0.0945
 8721TIP3    H150358   3.470   5.217  12.444  0.0381  1.8676 -0.1953
 8721TIP3    H250359   3.525   5.251  12.307  2.6639 -0.8474  0.0980
 8722TIP3   OH250360   4.994   6.402  12.756  0.4359 -0.1453  0.0915
 8722TIP3    H150361   5.057   6.445  12.814 -0.6857 -1.7044  2.6761
 8722TIP3    H250362   4.953   6.335  12.811 -0.6626 -1.8552 -2.6097
 8723TIP3   OH250363   5.861   2.800  10.719 -0.7384 -0.1947 -0.1960
 8723TIP3    H150364   5.955   2.810  10.705 -0.6846 -0.2954  0.0953
 8723TIP3    H250365   5.840   2.865  10.786 -0.6378 -1.0771  0.7057
 8724TIP3   OH250366   0.390   5.700  10.641 -0.1390 -0.1895 -0.0237
 8724TIP3    H150367   0.359   5.609  10.635 -2.3520  0.4745  0.3956
 8724TIP3    H250368   0.347   5.734  10.720 -0.5771  1.6413 -0.9961
 8725TIP3   OH250369   4.674   6.869  12.517  0.5962 -0.7073 -0.1048
 8725TIP3    H150370   4.753   6.814  12.520  1.1857  0.1166 -0.1211
 8725TIP3    H250371   4.706   6.957  12.536 -0.5176 -0.5397  1.0917
 8726TIP3   OH250372   3.857   1.551  10.595  0.9034 -0.0445 -0.5794
 8726TIP3    H150373   3.883   1.458  10.598  1.1177  0.0074 -0.7661
 8726TIP3    H250374   3.938   1.598  10.616  0.2504  0.0522  2.1621
 8727TIP3   OH250375   5.621   0.974  12.673  0.2609 -0.1738 -0.1767
 8727TIP3    H150376   5.536   0.950  12.708  1.5837 -3.5059  1.1524
 8727TIP3    H250377   5.657   1.036  12.737 -0.3449 -0.3759  0.3682
 8728TIP3   OH250378   4.789   1.924  11.090 -0.2245  0.2931  0.0017
 8728TIP3    H150379   4.783   1.828  11.086 -1.6282  0.1086  3.1196
 8728TIP3    H250380   4.795   1.943  11.184  1.1483  3.2468 -0.5897
 8729TIP3   OH250381   5.077   5.798  12.565  0.0654  0.7784 -0.3604
 8729TIP3    H150382   5.019   5.872  12.585 -0.7962  0.0157  0.0403
 8729TIP3    H250383   5.058   5.778  12.473  2.3844  2.8386 -1.3979
 8730TIP3   OH250384   1.382   4.972  11.998  0.5858  0.2021 -0.3025
 8730TIP3    H150385   1.399   4.964  11.904  0.3296 -1.2475 -0.2378
 8730TIP3    H250386   1.346   4.888  12.024  0.6216  0.5906  1.1034
 8731TIP3   OH250387   6.080   6.951  10.821  0.3342  0.4029 -0.1180
 8731TIP3    H150388   6.169   6.982  10.804  0.4918 -0.2989 -0.5752
 8731TIP3    H250389   6.092   6.868  10.867 -0.0850  0.1914 -0.3930
 8732TIP3   OH250390   5.944   3.897  11.660 -0.4033  0.2117 -0.3707
 8732TIP3    H150391   5.973   3.959  11.727  0.3080 -0.0780 -0.3934
 8732TIP3    H250392   5.895   3.950  11.597 -1.2321  0.4590  0.4636
 8733TIP3   OH250393   5.883   7.555  11.863  0.3897  0.3373 -0.0194
 8733TIP3    H150394   5.908   7.646  11.850  0.3594  0.1763 -1.3904
 8733TIP3    H250395   5.878   7.544  11.958 -0.7025  2.0560  0.1713
 8734TIP3   OH250396   2.015   2.402  10.425 -0.0583  0.6557 -0.2257
 8734TIP3    H150397   2.016   2.339  10.353 -0.3851  1.7958 -1.2519
 8734TIP3    H250398   1.954   2.470  10.397  0.6850  1.7064  0.6146
 8735TIP3   OH250399   2.291   5.850  11.282 -0.0311 -0.1987  0.1299
 8735TIP3    H150400   2.247   5.934  11.266 -0.6752 -0.4140  0.7148
 8735TIP3    H250401   2.312   5.817  11.195  1.0544  0.9829 -0.1013
 8736TIP3   OH250402   7.231   6.489  10.418 -0.3355  0.3864  0.1210
 8736TIP3    H150403   7.223   6.397  10.391  0.2024  0.8093 -1.6106
 8736TIP3    H250404   7.301   6.489  10.484 -0.2094 -0.4252 -0.0017
 8737TIP3   OH250405   0.236   1.795  11.861  0.4576 -0.0275  0.3065
 8737TIP3    H150406   0.223   1.733  11.789  1.2175 -1.5212  1.3904
 8737TIP3    H250407   0.323   1.831  11.845  0.5878 -0.2889  0.4178
 8738TIP3   OH250408   2.852   0.805  13.039 -0.1081  0.6515  0.1355
 8738TIP3    H150409   2.890   0.883  13.079  0.3723  0.1603  0.6520
 8738TIP3    H250410   2.902   0.791  12.959 -0.3575  1.0170 -0.0825
 8739TIP3   OH250411   2.905   0.170  11.577  0.0810 -0.0226  0.1673
 8739TIP3    H150412   2.871   0.081  11.585 -1.4044  0.6171  1.5693
 8739TIP3    H250413   2.832   0.226  11.602  0.2104  1.7482 -2.8890
 8740TIP3   OH250414   7.418   3.953  10.852 -0.1704  0.7256  0.0630
 8740TIP3    H150415   7.422   3.931  10.945 -0.1933 -0.5170 -0.2072
 8740TIP3    H250416   7.416   4.049  10.850 -0.0292  0.7766  1.3294
 8741TIP3   OH250417   4.427   2.023  12.957  0.0684 -0.2908 -0.4265
 8741TIP3    H150418   4.365   2.005  13.028  0.3569  0.1811 -0.0427
 8741TIP3    H250419   4.372   2.053  12.884 -0.0835  1.8045  0.4499
 8742TIP3   OH250420   7.655   5.667  12.344 -0.1537 -0.2341 -0.6190
 8742TIP3    H150421   7.580   5.620  12.379 -0.8746  0.0154 -1.7562
 8742TIP3    H250422   7.683   5.616  12.268  1.6470 -1.0043  0.5058
 8743TIP3   OH250423   3.725   4.890  11.710  0.0658 -0.1124 -0.1130
 8743TIP3    H150424   3.700   4.979  11.685  2.5450  0.3868 -1.1335
 8743TIP3    H250425   3.697   4.881  11.801 -1.7397  1.0694 -0.5101
 8744TIP3   OH250426   6.557   7.167  12.258  0.3381 -0.2804  0.4015
 8744TIP3    H150427   6.471   7.192  12.226  0.3647 -1.6216 -0.7887
 8744TIP3    H250428   6.541   7.095  12.318  0.6018 -0.2177  0.5496
 8745TIP3   OH250429   2.016   5.978  11.447  0.3231 -0.5602  0.2616
 8745TIP3    H150430   1.937   5.924  11.441  0.5336 -0.6998 -2.5378
 8745TIP3    H250431   2.021   6.003  11.539 -2.0901 -1.8564  0.8261
 8746TIP3   OH250432  -0.045   2.472  11.320 -1.0413  0.0715 -0.3153
 8746TIP3    H150433  -0.019   2.546  11.375 -1.0015 -0.4395  0.3645
 8746TIP3    H250434  -0.040   2.506  11.230 -0.1032  0.6159 -0.0688
 8747TIP3   OH250435   1.778   4.815  10.936 -0.0951  0.1167  0.4181
 8747TIP3    H150436   1.747   4.744  10.880  1.7223 -0.1580 -0.3012
 8747TIP3    H250437   1.705   4.833  10.995 -1.0770 -1.4174 -0.2815
 8748TIP3   OH250438   6.090   7.025  12.516  0.0029 -0.4880 -0.0124
 8748TIP3    H150439   6.027   6.965  12.477  0.4985 -0.5525 -0.7302
 8748TIP3    H250440   6.070   7.023  12.610 -1.8042  0.3659 -0.3432
 8749TIP3   OH250441   3.228   4.258  12.843  0.1796  0.1225  0.0463
 8749TIP3    H150442   3.163   4.326  12.827  0.8187  0.5369 -0.8616
 8749TIP3    H250443   3.177   4.177  12.851 -0.3659  0.2184 -2.0077
 8750TIP3   OH250444   2.895   1.702  12.083 -0.1634  0.1348 -0.0569
 8750TIP3    H150445   2.816   1.711  12.137  0.0798 -1.2604  0.5823
 8750TIP3    H250446   2.886   1.615  12.043  0.5754  0.3811 -0.7578
 8751TIP3   OH250447   2.713   6.748  11.058  0.1302  0.1872 -0.2435
 8751TIP3    H150448   2.796   6.755  11.010 -0.2601  0.0991 -0.9390
 8751TIP3    H250449   2.737   6.766  11.149  1.0188 -0.4246 -0.3382
 8752TIP3   OH250450   5.973   5.833  13.089 -0.2949  0.0417 -0.0835
 8752TIP3    H150451   5.889   5.788  13.082  0.7536 -1.7206 -3.9096
 8752TIP3    H250452   6.035   5.764  13.112  0.5423  0.7311 -0.2213
 8753TIP3   OH250453   3.114   1.545  11.267 -0.1818  0.1479 -0.0922
 8753TIP3    H150454   3.112   1.457  11.228 -0.7627 -0.7147  1.7296
 8753TIP3    H250455   3.158   1.599  11.202 -1.1160 -1.1626 -1.9139
 8754TIP3   OH250456   0.470   7.582  11.073 -0.1541 -0.3625  0.2806
 8754TIP3    H150457   0.557   7.587  11.032  0.5943  1.3784  1.9326
 8754TIP3    H250458   0.416   7.643  11.023  0.4994  1.0396  1.2301
 8755TIP3   OH250459   3.563   0.791  10.926  0.5878 -0.2022  0.9076
 8755TIP3    H150460   3.554   0.726  10.996 -2.7153  0.8490  1.5978
 8755TIP3    H250461   3.542   0.744  10.846  1.6972 -0.7457  0.9054
 8756TIP3   OH250462   1.668   5.355  11.887  0.0883  0.0512 -0.4796
 8756TIP3    H150463   1.609   5.331  11.959  0.2667  1.6503  0.2406
 8756TIP3    H250464   1.615   5.412  11.831 -0.1926 -1.5300 -1.9172
 8757TIP3   OH250465   4.157   6.774  10.660 -0.8853 -0.3694 -0.0657
 8757TIP3    H150466   4.210   6.853  10.660 -2.8682  1.2004 -3.6783
 8757TIP3    H250467   4.217   6.704  10.639  0.7879  0.1680  2.4749
 8758TIP3   OH250468   4.525   7.057  10.968 -0.7223 -0.3583 -0.1953
 8758TIP3    H150469   4.590   7.005  10.921  1.5905  1.9697  0.1537
 8758TIP3    H250470   4.524   7.021  11.056  0.6272 -0.0673 -0.0346
 8759TIP3   OH250471   0.651   0.953  10.668  0.0927 -1.3919  0.1514
 8759TIP3    H150472   0.687   1.034  10.632 -0.1614 -1.8307 -1.1218
 8759TIP3    H250473   0.694   0.943  10.753  1.2059 -0.6882 -0.3169
 8760TIP3   OH250474   6.068   7.248  10.800  0.2503  0.4103 -0.5018
 8760TIP3    H150475   6.079   7.208  10.886  0.6675 -1.4223 -1.3756
 8760TIP3    H250476   6.157   7.263  10.768  0.1132  2.0836 -0.2163
 8761TIP3   OH250477   7.218   6.865  11.384  0.1254  0.3526  0.1692
 8761TIP3    H150478   7.233   6.771  11.384 -0.0642  0.3161  0.9326
 8761TIP3    H250479   7.301   6.903  11.356  0.3116 -0.0239  0.2139
 8762TIP3   OH250480   6.014   4.842  12.605 -0.2628  0.4797  0.0343
 8762TIP3    H150481   5.936   4.891  12.581 -0.1222  0.1518 -1.1581
 8762TIP3    H250482   6.019   4.850  12.700 -0.9525  1.6815 -0.0089
 8763TIP3   OH250483   0.447   3.136  12.930  0.4190 -0.7266  0.0410
 8763TIP3    H150484   0.399   3.054  12.947  0.7904 -1.1532 -0.9078
 8763TIP3    H250485   0.433   3.188  13.009  0.2415 -1.7368  0.6982
 8764TIP3   OH250486   0.493   4.347  17.889  0.1826  0.0393  0.0863
 8764TIP3    H150487   0.528   4.436  17.891 -0.5252  0.3482 -0.6996
 8764TIP3    H250488   0.472   4.327  17.981 -0.1516  0.8903  0.1985
 8765TIP3   OH250489   6.589   7.017  11.634 -0.1298  0.8435  0.2223
 8765TIP3    H150490   6.509   7.067  11.619  1.1743  2.7354 -0.7872
 8765TIP3    H250491   6.597   6.961  11.557 -0.0659  1.2111 -0.0359
 8766TIP3   OH250492   5.602   2.454  11.040 -0.1116 -0.0080 -0.0543
 8766TIP3    H150493   5.610   2.493  10.953 -2.2236  0.0350 -0.2838
 8766TIP3    H250494   5.548   2.516  11.089  0.4028 -0.4101  1.0450
 8767TIP3   OH250495   1.571   5.767  11.778  0.1643  0.0246 -0.6354
 8767TIP3    H150496   1.581   5.760  11.873 -1.3121 -1.0690 -0.5304
 8767TIP3    H250497   1.488   5.813  11.766  1.9813  3.5042 -1.4550
 8768TIP3   OH250498   1.162   1.441  12.747 -0.4979  0.6116 -0.1568
 8768TIP3    H150499   1.124   1.526  12.726 -0.2773  0.4862 -1.0928
 8768TIP3    H250500   1.246   1.463  12.789 -1.3370  0.8748  1.4612
 8769TIP3   OH250501   2.480   4.241  13.421 -0.2257 -0.1001  0.1386
 8769TIP3    H150502   2.519   4.154  13.431 -2.6514 -1.2084  0.7120
 8769TIP3    H250503   2.409   4.228  13.358 -0.6079  1.4875  0.2099
 8770TIP3   OH250504   7.429   7.638  10.597  1.0068  0.3036  0.5637
 8770TIP3    H150505   7.429   7.542  10.592  0.4953  0.2828  0.9309
 8770TIP3    H250506   7.478   7.666  10.519 -0.8421 -0.1822 -0.8536
 8771TIP3   OH250507   6.251   0.077  13.350  0.4658  0.0672  0.5587
 8771TIP3    H150508   6.219   0.132  13.278  2.7838  0.3647 -0.3424
 8771TIP3    H250509   6.276  -0.006  13.308 -2.0721 -1.4026  1.7477
 8772TIP3   OH250510   5.282   0.092  11.172  0.5128  0.1750 -0.1402
 8772TIP3    H150511   5.224   0.084  11.249  1.5138  1.5589  0.8152
 8772TIP3    H250512   5.370   0.081  11.207  0.9221 -0.5029 -1.3424
 8773TIP3   OH250513   0.180   5.268  10.495 -0.2998 -0.1954 -0.8627
 8773TIP3    H150514   0.225   5.185  10.478 -1.3045 -1.2616  1.3895
 8773TIP3    H250515   0.089   5.244  10.510 -0.1925  0.9390  2.2879
 8774TIP3   OH250516   5.909   6.812  13.002  0.3892 -0.4598  0.1926
 8774TIP3    H150517   5.969   6.778  13.069 -0.6536 -1.9949  0.4032
 8774TIP3    H250518   5.827   6.825  13.048  0.0393 -0.1974 -0.4913
 8775TIP3   OH250519   4.214   0.457  11.438 -0.1806 -0.5502  0.4932
 8775TIP3    H150520   4.126   0.495  11.442 -0.8409 -1.8076 -0.9240
 8775TIP3    H250521   4.229   0.423  11.527 -1.1307 -0.3303  0.7564
 8776TIP3   OH250522   6.871   5.372  17.713  0.1251 -0.1141  0.2052
 8776TIP3    H150523   6.961   5.354  17.687  0.6622  1.7357  0.6782
 8776TIP3    H250524   6.835   5.424  17.641  0.1447  1.0213  0.9998
 8777TIP3   OH250525   0.735   0.410  11.147  0.0716  0.2834 -0.1619
 8777TIP3    H150526   0.790   0.484  11.120  0.9641 -0.5520 -0.7453
 8777TIP3    H250527   0.646   0.444  11.143  0.4432  1.2781 -0.5915
 8778TIP3   OH250528   5.891   2.904  11.041  0.1852  0.4100  0.4563
 8778TIP3    H150529   5.851   2.982  11.002  0.1144  0.4486  0.6060
 8778TIP3    H250530   5.886   2.919  11.135 -1.0641 -0.3738  0.5433
 8779TIP3   OH250531   4.272   1.831  12.262  0.3282  0.6356  0.8797
 8779TIP3    H150532   4.183   1.827  12.298 -0.7149  0.6535 -1.4972
 8779TIP3    H250533   4.326   1.789  12.328 -1.7098 -0.9241  1.6874
 8780TIP3   OH250534   4.670   1.072  10.820 -0.2763 -0.1754  0.3182
 8780TIP3    H150535   4.639   0.981  10.817  0.8022 -0.5761  0.7047
 8780TIP3    H250536   4.600   1.119  10.866  0.0816 -1.2432  2.0684
 8781TIP3   OH250537   2.091   0.910  12.353 -0.0215  0.6503  0.1587
 8781TIP3    H150538   2.056   0.938  12.438  0.1947  1.2573  0.0498
 8781TIP3    H250539   2.023   0.934  12.290 -1.4027 -2.1853  0.4111
 8782TIP3   OH250540   2.462   0.864  11.223 -0.7741  0.1767  0.4181
 8782TIP3    H150541   2.407   0.808  11.279 -0.1681 -0.8211  0.0438
 8782TIP3    H250542   2.434   0.953  11.244 -0.8608 -0.1864  1.9965
 8783TIP3   OH250543   7.154   1.765  11.620  0.2717  0.7787 -0.3301
 8783TIP3    H150544   7.085   1.830  11.608 -0.2369  0.5265  1.1175
 8783TIP3    H250545   7.218   1.808  11.676 -0.0569  0.0597  0.6227
 8784TIP3   OH250546   1.004   6.172  10.602  0.3855  0.1127  0.5136
 8784TIP3    H150547   0.975   6.090  10.563  0.4682 -0.1892  1.0669
 8784TIP3    H250548   1.020   6.150  10.694  2.3539  0.2477  0.2548
 8785TIP3   OH250549   5.440   5.648  12.805  0.5881 -0.0079  0.5339
 8785TIP3    H150550   5.516   5.703  12.788  0.8291 -0.4569  0.1141
 8785TIP3    H250551   5.383   5.701  12.860  0.3124  1.0786 -0.7519
 8786TIP3   OH250552   3.593   1.264  11.054  0.8557  0.0101 -0.2008
 8786TIP3    H150553   3.598   1.337  11.115 -0.6730 -0.4509  0.5271
 8786TIP3    H250554   3.543   1.298  10.980  1.7657  0.2370 -0.7334
 8787TIP3   OH250555   0.421   0.890  10.859 -0.2305  0.0856  0.0531
 8787TIP3    H150556   0.464   0.910  10.776 -1.2042  3.1288  0.1326
 8787TIP3    H250557   0.341   0.943  10.857 -1.9249 -2.2464  1.6016
 8788TIP3   OH250558   6.610   0.530  10.810 -0.0669  0.1981  0.4569
 8788TIP3    H150559   6.544   0.595  10.787 -0.3482 -0.5630 -0.9823
 8788TIP3    H250560   6.686   0.552  10.756  0.2632  0.0624  0.8589
 8789TIP3   OH250561   3.161   6.171  11.498 -0.3553 -0.4287 -0.2112
 8789TIP3    H150562   3.205   6.113  11.560 -0.7241 -0.2294  0.2469
 8789TIP3    H250563   3.114   6.113  11.439 -0.7230 -0.6061  0.2444
 8790TIP3   OH250564   3.734   2.227  11.344 -0.3432 -0.4322 -0.2049
 8790TIP3    H150565   3.642   2.225  11.319 -0.5503 -0.4032  0.5408
 8790TIP3    H250566   3.780   2.253  11.264 -1.1325  1.1947 -0.1717
 8791TIP3   OH250567   6.453   3.931  10.628  0.3556 -0.2603 -0.1768
 8791TIP3    H150568   6.443   4.022  10.601  0.8329 -0.2664 -0.3795
 8791TIP3    H250569   6.546   3.911  10.613  0.0462 -1.0934 -1.1023
 8792TIP3   OH250570   0.533   2.224  12.314 -0.4108 -0.0792 -0.7182
 8792TIP3    H150571   0.466   2.269  12.366 -1.8316 -1.9146 -0.8737
 8792TIP3    H250572   0.552   2.144  12.364  1.1603  0.0512 -1.0532
 8793TIP3   OH250573   4.934   6.767  12.807 -0.1951  0.6342 -0.1699
 8793TIP3    H150574   4.984   6.775  12.888 -0.5560  1.5998 -0.0238
 8793TIP3    H250575   4.899   6.855  12.792  0.9487  0.8154 -2.0980
 8794TIP3   OH250576   0.252   6.662  11.112 -0.1950 -0.5789 -0.1155
 8794TIP3    H150577   0.259   6.568  11.101  1.2776 -0.5921  0.6156
 8794TIP3    H250578   0.188   6.674  11.182  2.4924 -1.3034  2.6580
 8795TIP3   OH250579   4.833   2.700  11.155 -0.6804  0.3276  0.3004
 8795TIP3    H150580   4.828   2.793  11.135 -1.7268  0.2461  0.1549
 8795TIP3    H250581   4.886   2.695  11.235  0.8644  0.8936 -0.6346
 8796TIP3   OH250582   0.457   6.038  12.609  0.4482 -0.3759 -0.0153
 8796TIP3    H150583   0.522   6.047  12.679  1.2421 -2.0827 -0.4839
 8796TIP3    H250584   0.509   6.027  12.529 -0.3693 -2.1165 -0.3508
 8797TIP3   OH250585   4.058   6.841  11.889  0.0037  0.5499  0.8186
 8797TIP3    H150586   4.126   6.893  11.933 -0.3693  1.0321  0.8409
 8797TIP3    H250587   3.987   6.836  11.953 -0.0400  0.1767  0.7402
 8798TIP3   OH250588   5.383   3.389  11.566  0.3955  0.0481  0.1278
 8798TIP3    H150589   5.415   3.475  11.594  1.5641 -1.1951  2.8979
 8798TIP3    H250590   5.310   3.409  11.507  1.6140  2.9187 -0.5771
 8799TIP3   OH250591   0.508   6.760  11.061 -0.4950 -0.8285  0.4866
 8799TIP3    H150592   0.423   6.718  11.074 -0.5223 -1.1871 -0.7658
 8799TIP3    H250593   0.538   6.728  10.976  1.2538 -1.3016  1.2449
 8800TIP3   OH250594   3.229   5.421  11.504 -0.2383  0.2437  0.3688
 8800TIP3    H150595   3.196   5.483  11.439 -0.2269  0.2600  0.3783
 8800TIP3    H250596   3.182   5.444  11.585 -0.6967 -0.1645  0.2230
 8801TIP3   OH250597   7.175   6.437  12.515  0.0705 -0.2653 -0.4844
 8801TIP3    H150598   7.245   6.410  12.573  0.0898 -0.6550 -0.6844
 8801TIP3    H250599   7.216   6.445  12.429  0.0666  0.4148 -0.4337
 8802TIP3   OH250600   1.610   2.393  10.778  0.6477  0.5516  0.4211
 8802TIP3    H150601   1.671   2.433  10.839  0.8557  0.6908  0.1240
 8802TIP3    H250602   1.646   2.412  10.691  1.0710 -0.7688  0.2782
 8803TIP3   OH250603   2.964   5.615  11.049  0.0287  0.2199 -0.5012
 8803TIP3    H150604   3.032   5.549  11.059 -0.4089 -0.1018  0.5280
 8803TIP3    H250605   2.916   5.613  11.132 -1.3183  0.3318 -1.2388
 8804TIP3   OH250606   1.312   2.477  12.108 -0.2914  0.2559 -0.2325
 8804TIP3    H150607   1.232   2.476  12.161  1.2714  0.0708  2.3194
 8804TIP3    H250608   1.344   2.387  12.112 -0.1473  0.2327 -1.5832
 8805TIP3   OH250609   2.160   5.178  12.112 -0.3093 -0.3720  0.0359
 8805TIP3    H150610   2.149   5.086  12.135 -1.6520 -0.2293  0.0603
 8805TIP3    H250611   2.090   5.223  12.160 -0.2834  0.5236 -0.7349
 8806TIP3   OH250612   1.838   3.624  10.791  0.3417  0.1249  0.0405
 8806TIP3    H150613   1.833   3.544  10.738 -0.8216  0.4806 -0.4092
 8806TIP3    H250614   1.806   3.693  10.733  1.5069  0.9660  0.3699
 8807TIP3   OH250615   7.104   4.095  10.718  0.3288 -0.2289 -0.3539
 8807TIP3    H150616   7.089   4.052  10.802  0.6065 -0.0174 -0.1927
 8807TIP3    H250617   7.189   4.137  10.728  1.0635 -1.4654 -1.2773
 8808TIP3   OH250618   5.440   6.939  10.842  0.3497  0.0988 -0.7414
 8808TIP3    H150619   5.358   6.959  10.798  0.7813 -0.1813 -1.6940
 8808TIP3    H250620   5.449   7.008  10.908 -2.6548 -2.0823  2.2754
 8809TIP3   OH250621   5.519   1.023  11.920  0.1989 -0.0737 -0.1047
 8809TIP3    H150622   5.519   1.030  12.016 -2.0361 -1.5471  0.0792
 8809TIP3    H250623   5.608   1.044  11.895  0.5337  1.6661  2.1851
 8810TIP3   OH250624   1.793   7.639  12.484  0.5181  0.0260  1.1386
 8810TIP3    H150625   1.755   7.565  12.438  0.9973  0.1220  0.5735
 8810TIP3    H250626   1.814   7.605  12.572  0.2529 -0.3541  1.0568
 8811TIP3   OH250627   4.274   5.738  13.485 -0.2914 -0.4356  0.5319
 8811TIP3    H150628   4.203   5.702  13.539 -0.3889 -0.0635  0.6539
 8811TIP3    H250629   4.238   5.820  13.450 -0.7297 -1.3076 -1.1904
 8812TIP3   OH250630   4.998   5.817  12.976  0.0772 -0.0186 -0.3832
 8812TIP3    H150631   4.915   5.834  13.020 -0.5857 -0.6371 -1.3654
 8812TIP3    H250632   4.974   5.781  12.890  1.3411  0.6719 -1.0607
 8813TIP3   OH250633   7.580   0.567  10.958 -0.7915  0.4075  0.1693
 8813TIP3    H150634   7.498   0.607  10.986 -0.9598 -0.5935  1.1652
 8813TIP3    H250635   7.577   0.478  10.994  0.2401 -0.0023 -0.7102
 8814TIP3   OH250636   0.230   6.133  10.544  0.5151 -0.1142 -0.2670
 8814TIP3    H150637   0.303   6.116  10.485 -0.3111  1.0965 -1.7213
 8814TIP3    H250638   0.156   6.087  10.505 -0.0245  0.6232 -0.1460
 8815TIP3   OH250639   0.060   5.384  11.798 -0.7258 -0.0425 -0.2854
 8815TIP3    H150640   0.117   5.455  11.828 -1.3986  0.8848 -1.1485
 8815TIP3    H250641   0.109   5.341  11.728 -0.6677  0.0917 -0.3262
 8816TIP3   OH250642   4.390   1.678  11.368 -0.3876  0.4012  0.1891
 8816TIP3    H150643   4.334   1.712  11.299  0.9809  2.6399  0.0945
 8816TIP3    H250644   4.478   1.675  11.329  0.0582 -0.2926  1.1878
 8817TIP3   OH250645   2.250   2.490  11.808  0.3042 -0.0689 -0.2164
 8817TIP3    H150646   2.181   2.446  11.859  1.2719 -0.9957  0.3225
 8817TIP3    H250647   2.285   2.421  11.752  2.7348 -0.4148  1.5516
 8818TIP3   OH250648   4.823   1.851  12.419  0.2859 -0.5028  0.3177
 8818TIP3    H150649   4.903   1.856  12.367  0.0013  0.4195 -0.0493
 8818TIP3    H250650   4.756   1.825  12.356  0.2439 -1.0092  0.5692
 8819TIP3   OH250651   3.677   3.971  11.580 -0.3609 -0.2228 -0.2063
 8819TIP3    H150652   3.720   3.908  11.638 -0.4611 -0.0710  0.0320
 8819TIP3    H250653   3.618   3.917  11.526 -1.0564 -0.2499  0.5522
 8820TIP3   OH250654   3.850   4.127  12.304 -0.4298  0.5002 -0.9327
 8820TIP3    H150655   3.919   4.167  12.251  1.6933 -1.1532  0.3906
 8820TIP3    H250656   3.799   4.074  12.242 -0.3118  1.4707 -1.8780
 8821TIP3   OH250657   0.956   5.856  13.194 -0.3853  0.0471  0.0069
 8821TIP3    H150658   0.954   5.762  13.173  0.2000 -0.0449  0.3224
 8821TIP3    H250659   0.872   5.889  13.165  0.1134 -0.2101 -1.8156
 8822TIP3   OH250660   1.082   5.889  12.627  0.4612 -0.3995  0.3775
 8822TIP3    H150661   1.014   5.940  12.582  1.0373  0.1656  0.1331
 8822TIP3    H250662   1.108   5.943  12.701  0.9983 -0.3833  0.1807
 8823TIP3   OH250663   5.229   0.185  10.525 -0.2610 -0.2715  0.4465
 8823TIP3    H150664   5.206   0.244  10.453  0.2254 -1.2714 -0.5532
 8823TIP3    H250665   5.160   0.119  10.526  1.0552 -1.7391 -0.8152
 8824TIP3   OH250666   5.710   6.895  11.455  0.0599  0.3802 -0.1491
 8824TIP3    H150667   5.648   6.824  11.437 -0.0770  0.4635 -0.0135
 8824TIP3    H250668   5.654   6.969  11.482  0.1349  0.7967 -1.0818
 8825TIP3   OH250669   0.360   0.887  11.529  0.0351 -0.4941  0.5135
 8825TIP3    H150670   0.446   0.883  11.572 -0.4391 -1.1618  1.4344
 8825TIP3    H250671   0.334   0.979  11.535  1.0414 -0.1140 -0.5282
 8826TIP3   OH250672   3.098   2.835  12.220 -0.8285  0.2653 -0.2672
 8826TIP3    H150673   3.181   2.859  12.179 -0.0440  1.8498  2.0399
 8826TIP3    H250674   3.088   2.742  12.202  1.0675  0.2019 -1.2293
 8827TIP3   OH250675   5.565   2.146  10.706 -0.3251 -0.4798  0.2588
 8827TIP3    H150676   5.544   2.233  10.674 -0.6622 -0.8013 -0.4139
 8827TIP3    H250677   5.513   2.087  10.651 -0.2185 -1.0949  0.8054
 8828TIP3   OH250678   5.742   6.045  12.255 -0.8690  0.6224 -0.2094
 8828TIP3    H150679   5.749   6.066  12.348 -2.5290 -1.5087  0.4908
 8828TIP3    H250680   5.815   5.986  12.239 -0.2340  1.4549 -0.4301
 8829TIP3   OH250681   6.390   4.036  11.999 -1.1576 -0.4661 -0.4524
 8829TIP3    H150682   6.436   4.009  11.919  0.6580  0.3989  0.2475
 8829TIP3    H250683   6.325   4.100  11.969 -1.6438 -1.3681 -1.4031
 8830TIP3   OH250684   5.582   2.755  12.707 -0.0483 -0.0178  0.1851
 8830TIP3    H150685   5.549   2.748  12.617 -0.8007  0.4322  0.4210
 8830TIP3    H250686   5.543   2.835  12.741  2.3553  1.3206  0.0532
 8831TIP3   OH250687   6.157   1.326  11.268  0.5602 -0.0151 -0.4734
 8831TIP3    H150688   6.134   1.395  11.330 -0.4229 -0.1089 -0.7232
 8831TIP3    H250689   6.115   1.247  11.302  0.8210 -0.2709 -0.7389
 8832TIP3   OH250690   0.672   2.506  12.684  0.0663  0.2756  0.0637
 8832TIP3    H150691   0.621   2.426  12.671 -1.3735  0.6727  2.5929
 8832TIP3    H250692   0.709   2.497  12.772  0.6237  2.0003  0.0500
 8833TIP3   OH250693   2.636   0.077  12.003 -0.0607  0.0918 -0.0428
 8833TIP3    H150694   2.567   0.142  12.011 -1.1201 -0.5530 -2.6383
 8833TIP3    H250695   2.714   0.127  11.979 -0.7065  0.5298 -1.3678
 8834TIP3   OH250696   2.131   2.573  13.020 -0.1431  0.4669  0.6895
 8834TIP3    H150697   2.223   2.589  13.041 -0.4913  1.5000  1.5220
 8834TIP3    H250698   2.083   2.604  13.096 -1.0690 -2.7250  1.5917
 8835TIP3   OH250699   3.924   0.239  12.557 -0.0937  0.0870 -0.2860
 8835TIP3    H150700   3.868   0.191  12.617  3.6739 -1.4973  2.3247
 8835TIP3    H250701   3.899   0.331  12.567 -2.3180 -0.5677  0.4990
 8836TIP3   OH250702   2.509   6.052  13.214  0.7033  0.4772  0.3298
 8836TIP3    H150703   2.584   6.107  13.191  0.5771 -0.0136 -1.3389
 8836TIP3    H250704   2.531   5.966  13.179 -0.3938  0.1899  0.3324
 8837TIP3   OH250705   0.955   7.093  11.883  0.1432  0.5402 -0.5831
 8837TIP3    H150706   0.918   7.174  11.918  2.0893  0.7723  1.1194
 8837TIP3    H250707   0.885   7.028  11.896 -1.7102  2.0059 -2.6278
 8838TIP3   OH250708   0.523   3.170  12.661  0.0594 -0.7429 -0.2197
 8838TIP3    H150709   0.484   3.154  12.747  0.9694  0.0040  0.3464
 8838TIP3    H250710   0.566   3.087  12.639  1.8497 -0.2381  1.1510
 8839TIP3   OH250711   6.896   6.496  11.725  0.0728  0.1026 -0.6600
 8839TIP3    H150712   6.865   6.421  11.674  1.0543 -0.7069 -0.0809
 8839TIP3    H250713   6.852   6.487  11.809  1.4634 -0.7872  0.0003
 8840TIP3   OH250714   3.344   7.396  11.238 -0.3676  0.5440 -0.2667
 8840TIP3    H150715   3.440   7.397  11.233 -0.3531  2.3421 -0.3491
 8840TIP3    H250716   3.325   7.341  11.314  0.7351  0.3605 -0.0958
 8841TIP3   OH250717   6.635   1.372  12.083  0.1339  0.0801 -0.7968
 8841TIP3    H150718   6.552   1.417  12.093 -0.7011 -1.2004 -1.6805
 8841TIP3    H250719   6.688   1.403  12.156 -1.4937  0.1183  0.4235
 8842TIP3   OH250720   1.643   0.125  11.917 -0.6054 -0.1942  0.4476
 8842TIP3    H150721   1.655   0.126  11.822 -0.1638  0.5824  0.5026
 8842TIP3    H250722   1.677   0.040  11.944  1.1253  0.3572  0.1290
 8843TIP3   OH250723   4.621   6.730  10.947  0.4071  0.2519  0.5569
 8843TIP3    H150724   4.621   6.667  11.019 -0.0832  0.2554  0.5638
 8843TIP3    H250725   4.530   6.734  10.919  0.1286  2.1595  1.5924
 8844TIP3   OH250726   4.503   3.689  11.864  0.0809  0.4332  0.3861
 8844TIP3    H150727   4.581   3.739  11.888  0.0739 -0.1543  1.7061
 8844TIP3    H250728   4.438   3.713  11.930 -0.5914  0.2852 -0.2152
 8845TIP3   OH250729   0.412   0.631  12.782 -0.3722  0.6430  0.3783
 8845TIP3    H150730   0.323   0.600  12.801 -0.6423 -0.0407 -1.7080
 8845TIP3    H250731   0.462   0.613  12.861 -1.9421  0.4179  1.3474
 8846TIP3   OH250732   2.537   1.332  11.539  0.5319  0.8642 -0.5513
 8846TIP3    H150733   2.552   1.333  11.633  2.4278 -0.8419 -0.7476
 8846TIP3    H250734   2.491   1.413  11.520 -0.4724  0.9320  1.9193
 8847TIP3   OH250735   6.348   4.700  12.691 -0.5803  0.2446 -0.2244
 8847TIP3    H150736   6.305   4.759  12.753  0.5447  0.9289 -0.0618
 8847TIP3    H250737   6.364   4.620  12.741 -0.9673  0.2649 -0.0662
 8848TIP3   OH250738   6.547   4.050  11.108 -0.2141 -0.4272 -0.1901
 8848TIP3    H150739   6.553   3.955  11.112 -0.0301 -0.3931  0.4706
 8848TIP3    H250740   6.595   4.074  11.028 -1.4496 -0.9774 -1.1177
 8849TIP3   OH250741   1.148   3.019  12.222 -0.0073  0.0299  0.2768
 8849TIP3    H150742   1.126   2.970  12.301 -1.3617 -0.0450 -0.1116
 8849TIP3    H250743   1.065   3.027  12.176  0.8894 -0.6184 -1.5353
 8850TIP3   OH250744   7.228   3.365  11.763 -0.0061  0.5052 -0.1118
 8850TIP3    H150745   7.191   3.281  11.737 -3.0546  1.3236  1.1344
 8850TIP3    H250746   7.211   3.371  11.857  2.6434  1.4030  0.3985
 8851TIP3   OH250747   3.194   1.968  12.333  0.3255 -0.4655  0.1832
 8851TIP3    H150748   3.120   2.017  12.370  0.0853 -1.0571  0.5059
 8851TIP3    H250749   3.163   1.878  12.329  0.2701 -0.4047 -1.6843
 8852TIP3   OH250750   6.418   6.825  13.350 -0.4310 -0.4806 -0.3307
 8852TIP3    H150751   6.378   6.912  13.340 -1.1763 -0.9131 -1.3190
 8852TIP3    H250752   6.492   6.826  13.290  0.0215 -0.2825  0.2171
 8853TIP3   OH250753   0.645   0.160  13.535 -0.5730 -0.1879 -0.3394
 8853TIP3    H150754   0.614   0.142  13.624  1.1294  2.5364  0.9436
 8853TIP3    H250755   0.738   0.180  13.546 -0.2860  0.0831 -2.7799
 8854TIP3   OH250756   3.934   3.324  11.392  0.4811  0.1476 -0.2036
 8854TIP3    H150757   3.927   3.402  11.337  1.3511  0.0264 -0.4942
 8854TIP3    H250758   3.964   3.255  11.332  0.9252 -0.1142  0.3151
 8855TIP3   OH250759   7.667   6.749  13.242  0.2239 -0.1591  0.2908
 8855TIP3    H150760   7.746   6.796  13.218  0.7548 -0.8484  0.6590
 8855TIP3    H250761   7.697   6.678  13.298 -0.3270 -2.0717 -1.6872
 8856TIP3   OH250762   6.009   6.561  11.695  0.4116 -0.4662  0.1318
 8856TIP3    H150763   6.012   6.538  11.602  2.6276  1.9865 -0.5147
 8856TIP3    H250764   5.948   6.635  11.699  0.0331 -0.8039  0.7052
 8857TIP3   OH250765   0.978   6.458  12.467  0.2061  0.4597  0.3065
 8857TIP3    H150766   1.064   6.496  12.450  0.8289 -0.6202  0.9090
 8857TIP3    H250767   0.919   6.506  12.410  0.9033  2.4463  1.1719
 8858TIP3   OH250768   0.817   2.279  10.005 -0.2733 -0.0845 -0.4499
 8858TIP3    H150769   0.803   2.372  10.018  0.0460  0.1584 -1.6562
 8858TIP3    H250770   0.861   2.249  10.084 -1.1050  0.6194  0.2888
 8859TIP3   OH250771   6.241   7.159  10.467 -0.2618 -0.3548  0.2999
 8859TIP3    H150772   6.189   7.078  10.458 -0.1271 -0.5537  1.2158
 8859TIP3    H250773   6.194   7.223  10.414  0.0623 -1.2213 -1.1062
 8860TIP3   OH250774   6.468   2.785  10.957 -0.2142 -0.0711 -0.6163
 8860TIP3    H150775   6.521   2.864  10.943 -0.7838  0.4109 -0.1268
 8860TIP3    H250776   6.512   2.717  10.905  0.7409  0.3680 -0.4151
 8861TIP3   OH250777   6.147   6.580  11.433 -0.3094  0.3854  0.5836
 8861TIP3    H150778   6.171   6.670  11.455 -0.0262  0.4637 -0.0363
 8861TIP3    H250779   6.100   6.587  11.350  0.4858 -0.1252  0.0809
 8862TIP3   OH250780   3.171   0.499  11.356 -0.2833  0.9501  0.2743
 8862TIP3    H150781   3.166   0.592  11.334 -0.8119  0.5812 -1.3049
 8862TIP3    H250782   3.229   0.462  11.289 -1.0445 -0.0592  0.1574
 8863TIP3   OH250783   5.922   0.356  12.341  0.1105 -0.3700  0.1644
 8863TIP3    H150784   6.000   0.393  12.299  0.0744 -0.3920  0.0787
 8863TIP3    H250785   5.943   0.356  12.434  1.1249 -2.4462 -0.0035
 8864TIP3   OH250786   4.442   1.202  10.922 -0.3808  0.0347  0.1388
 8864TIP3    H150787   4.379   1.150  10.973 -1.3393  0.9266 -0.0967
 8864TIP3    H250788   4.388   1.265  10.875  0.4514 -0.9653 -2.2743
 8865TIP3   OH250789   0.620   5.536  10.530  0.3006  0.2278  0.3406
 8865TIP3    H150790   0.540   5.484  10.540  0.3234 -0.0453 -0.7628
 8865TIP3    H250791   0.591   5.627  10.541 -0.2744  0.1707 -0.5467
 8866TIP3   OH250792   1.996   4.972  10.873  0.0820  0.0019 -0.3734
 8866TIP3    H150793   1.975   4.927  10.791  0.3792 -0.9306  0.0481
 8866TIP3    H250794   1.922   4.953  10.930  0.5597 -0.6057  0.0565
 8867TIP3   OH250795   6.945   1.577  12.905 -0.1112  0.3261 -0.2679
 8867TIP3    H150796   6.867   1.575  12.960  1.0735  1.7890  1.6065
 8867TIP3    H250797   7.006   1.517  12.947  0.7894  1.4092  0.0409
 8868TIP3   OH250798   3.159   3.230  12.204 -0.8991  0.0512 -0.1083
 8868TIP3    H150799   3.162   3.274  12.119 -2.6774 -1.9863 -1.3317
 8868TIP3    H250800   3.065   3.219  12.222 -0.5350 -1.1859  1.2188
 8869TIP3   OH250801   2.087   4.038  12.459  0.5513 -0.0811  0.4338
 8869TIP3    H150802   2.160   3.984  12.490 -1.2333 -2.3391  0.9580
 8869TIP3    H250803   2.128   4.119  12.431  3.1172 -0.7816  1.8420
 8870TIP3   OH250804   4.400   3.217  11.300  0.1640  0.0038  0.4312
 8870TIP3    H150805   4.471   3.169  11.257  0.1684  1.4181 -1.2535
 8870TIP3    H250806   4.381   3.290  11.241 -1.2848  0.8555  1.8620
 8871TIP3   OH250807   2.365   6.071  12.227 -0.2963  0.4401  0.1183
 8871TIP3    H150808   2.420   6.006  12.183 -1.8878 -0.3541 -0.8081
 8871TIP3    H250809   2.352   6.036  12.315  0.4124  0.4827  0.2441
 8872TIP3   OH250810   4.412   0.102  11.510 -0.2290 -0.5154  0.4844
 8872TIP3    H150811   4.454   0.018  11.529  0.6866  0.3988  2.9433
 8872TIP3    H250812   4.363   0.123  11.590  0.0256  1.5314  0.1606
 8873TIP3   OH250813   4.439   6.175  12.554  0.1011  0.7184  0.2014
 8873TIP3    H150814   4.427   6.082  12.532  0.6276  0.6982 -0.0290
 8873TIP3    H250815   4.460   6.175  12.647 -0.0160  0.6119  0.2277
 8874TIP3   OH250816   0.517   4.157  13.243 -0.2174  0.1047 -0.4311
 8874TIP3    H150817   0.508   4.149  13.148  0.2183  1.3763 -0.6018
 8874TIP3    H250818   0.460   4.231  13.266  0.3369  0.3446  0.1764
 8875TIP3   OH250819   1.050   5.784  13.568 -0.1135 -0.2853 -0.0061
 8875TIP3    H150820   1.081   5.693  13.570  0.0237 -0.2277  1.1016
 8875TIP3    H250821   0.969   5.781  13.518 -0.4376 -1.1401  0.5409
 8876TIP3   OH250822   1.526   2.743  10.573 -0.2371  0.3114  0.0175
 8876TIP3    H150823   1.470   2.799  10.626 -0.2366  0.2017  0.1357
 8876TIP3    H250824   1.540   2.792  10.492 -1.4901 -0.1746 -0.5160
 8877TIP3   OH250825   0.130   1.439  12.763 -0.0233  0.1617  0.4671
 8877TIP3    H150826   0.118   1.534  12.766 -1.1581  0.0124  1.6125
 8877TIP3    H250827   0.191   1.424  12.691 -0.7498  1.6677 -0.4916
 8878TIP3   OH250828   2.032   0.718  11.287 -0.3949 -0.1758  0.5580
 8878TIP3    H150829   1.958   0.662  11.262 -1.4506  1.1387  0.5896
 8878TIP3    H250830   1.991   0.790  11.335  1.2233 -0.9184  3.2338
 8879TIP3   OH250831   1.623   0.997  12.284  0.4412  0.5004  0.6241
 8879TIP3    H150832   1.631   1.048  12.364  0.3178 -0.0279  0.9785
 8879TIP3    H250833   1.532   0.968  12.283  0.6554 -0.1897  0.7209
 8880TIP3   OH250834   0.845   3.182  11.830 -0.1457  0.7325  0.1552
 8880TIP3    H150835   0.762   3.225  11.850  0.0348  0.4993  1.4934
 8880TIP3    H250836   0.889   3.175  11.915  1.8818  2.1832 -0.6805
 8881TIP3   OH250837   3.209   2.955  13.215  0.1591  0.4253  0.1839
 8881TIP3    H150838   3.216   3.039  13.260 -0.9509 -0.6984  2.6965
 8881TIP3    H250839   3.120   2.954  13.180 -0.2128 -0.0798  1.0994
 8882TIP3   OH250840   1.731   4.431  11.590  0.1253 -0.3402  0.0895
 8882TIP3    H150841   1.712   4.352  11.540  0.5554  0.0452 -0.7035
 8882TIP3    H250842   1.709   4.409  11.680 -2.5118 -0.4756 -0.4987
 8883TIP3   OH250843   1.062   5.648  10.786 -0.2271 -0.2230  0.0636
 8883TIP3    H150844   0.995   5.675  10.723  1.6522  2.8496 -0.8144
 8883TIP3    H250845   1.043   5.700  10.864  0.1777 -0.5575  0.3857
 8884TIP3   OH250846   4.128   7.140  11.510 -0.3102 -0.7570 -0.0500
 8884TIP3    H150847   4.072   7.118  11.584  0.3950  0.3098  0.8296
 8884TIP3    H250848   4.117   7.235  11.500  0.6717 -0.6797 -0.4161
 8885TIP3   OH250849   1.614   6.556  12.086 -0.5203 -0.1313 -0.0002
 8885TIP3    H150850   1.562   6.600  12.153 -1.6900 -1.5141  0.0513
 8885TIP3    H250851   1.682   6.619  12.063 -1.0760  0.9996  1.3063
 8886TIP3   OH250852   6.702   2.122  12.001 -0.2562 -0.3105  0.1032
 8886TIP3    H150853   6.760   2.167  12.064 -1.3965 -0.1492  1.0728
 8886TIP3    H250854   6.640   2.074  12.056 -0.9660 -0.5824 -0.9138
 8887TIP3   OH250855   5.128   6.742  12.993  0.5906  0.2141 -0.1658
 8887TIP3    H150856   5.054   6.693  13.028 -0.1256 -0.6188 -2.6952
 8887TIP3    H250857   5.180   6.764  13.071 -2.3287  1.0149  1.7351
 8888TIP3   OH250858   0.160   7.425  11.237 -0.3538  0.3794  0.5357
 8888TIP3    H150859   0.118   7.507  11.210 -0.6508  0.1397  0.2536
 8888TIP3    H250860   0.118   7.402  11.320 -1.4681 -0.3473 -0.2066
 8889TIP3   OH250861   6.802   6.692  10.458  0.4603  0.3039 -0.2618
 8889TIP3    H150862   6.870   6.673  10.394 -0.3720  3.4972 -2.3668
 8889TIP3    H250863   6.720   6.683  10.410 -0.3439  0.5733  1.0021
 8890TIP3   OH250864   7.486   6.914  11.320 -0.2149 -0.0131 -0.2563
 8890TIP3    H150865   7.560   6.967  11.350 -0.4662  0.8234 -1.0837
 8890TIP3    H250866   7.466   6.947  11.232 -1.2248 -0.5950 -0.2648
 8891TIP3   OH250867   2.683   6.198  12.170 -0.2112  0.5238  0.2880
 8891TIP3    H150868   2.750   6.239  12.115 -0.4920 -0.2553 -0.6678
 8891TIP3    H250869   2.677   6.254  12.247 -0.7564  2.4109 -1.0707
 8892TIP3   OH250870   5.966   2.437  12.032  0.2095 -0.2495  0.6459
 8892TIP3    H150871   5.936   2.349  12.057  0.0361 -0.1416  0.8201
 8892TIP3    H250872   6.008   2.471  12.111  0.0640 -0.0830  0.6509
 8893TIP3   OH250873   4.331   1.868  11.902  0.2142  0.3235  0.0496
 8893TIP3    H150874   4.388   1.818  11.960  1.8831  1.9107 -0.1171
 8893TIP3    H250875   4.360   1.844  11.814 -0.2508  0.2004 -0.0747
 8894TIP3   OH250876   0.093   5.522  13.181 -0.3241  0.0629 -0.3120
 8894TIP3    H150877   0.085   5.429  13.161 -0.7748  0.5079 -2.4874
 8894TIP3    H250878   0.003   5.553  13.188 -0.1751  0.3454  0.4822
 8895TIP3   OH250879   7.401   1.836  12.518 -0.1961 -0.6239 -0.0111
 8895TIP3    H150880   7.348   1.865  12.444  0.7845  0.2783 -0.3890
 8895TIP3    H250881   7.361   1.879  12.594 -1.6551 -2.1365  0.1224
 8896TIP3   OH250882   6.738   5.400  10.589 -0.0939  0.6165  0.1147
 8896TIP3    H150883   6.820   5.448  10.587 -0.4331  1.2577  1.0220
 8896TIP3    H250884   6.733   5.364  10.678 -0.1835 -0.5048 -0.3310
 8897TIP3   OH250885   6.225   3.231  12.464 -0.4148 -0.0314 -0.0545
 8897TIP3    H150886   6.319   3.217  12.478 -0.5233 -1.1824 -0.4295
 8897TIP3    H250887   6.204   3.306  12.521  0.5732 -0.2171  0.5868
 8898TIP3   OH250888   3.671   7.058  12.324  0.7329 -0.3079  0.0734
 8898TIP3    H150889   3.604   7.123  12.347  1.2468 -0.7105  3.2025
 8898TIP3    H250890   3.740   7.109  12.281  0.6762  1.1163  1.5480
 8899TIP3   OH250891   3.158   2.893  12.524 -0.5910  0.2483  0.0709
 8899TIP3    H150892   3.105   2.898  12.444 -0.7525 -0.4233  0.1274
 8899TIP3    H250893   3.125   2.816  12.569 -1.1950  1.1927  1.2922
 8900TIP3   OH250894   0.753   4.229  12.752  0.4780  0.2077 -0.0024
 8900TIP3    H150895   0.795   4.218  12.666  0.5525  0.7004 -0.0315
 8900TIP3    H250896   0.779   4.316  12.780  2.7767 -0.9295  1.7851
 8901TIP3   OH250897   3.616   6.250  11.089 -0.4921  0.3379 -0.2933
 8901TIP3    H150898   3.703   6.262  11.050 -0.1528 -0.8086  0.0597
 8901TIP3    H250899   3.616   6.159  11.120 -1.4883  0.5992  0.5425
 8902TIP3   OH250900   4.696   3.845  11.935  0.0377  0.3698  0.1907
 8902TIP3    H150901   4.657   3.924  11.898 -2.6449 -2.0215 -2.7287
 8902TIP3    H250902   4.760   3.818  11.869  0.4379 -0.2515  0.8284
 8903TIP3   OH250903   7.019   2.451  10.105 -0.5266  0.2951 -0.1398
 8903TIP3    H150904   6.998   2.544  10.104  1.1050  0.7154  0.8608
 8903TIP3    H250905   6.973   2.417  10.182  0.4991  0.7312  0.6968
 8904TIP3   OH250906   1.203   4.906  12.542 -0.6158  0.2524  0.2250
 8904TIP3    H150907   1.280   4.899  12.598 -0.2322  0.8480 -0.2218
 8904TIP3    H250908   1.189   5.001  12.533 -1.6539  0.1610  0.6504
 8905TIP3   OH250909  -0.074   1.121  11.826  0.1530  0.4228 -0.1827
 8905TIP3    H150910   0.020   1.110  11.842  0.5868  2.6197 -0.9941
 8905TIP3    H250911  -0.082   1.119  11.730 -0.4475  1.3875 -0.1628
 8906TIP3   OH250912   5.737   6.032  11.878  0.0957  0.1045 -0.0333
 8906TIP3    H150913   5.642   6.034  11.865 -0.0345 -0.5212  0.7648
 8906TIP3    H250914   5.764   6.124  11.873 -0.2460  0.1484 -2.2828
 8907TIP3   OH250915   6.571   7.406  11.264  0.5424 -0.1668 -0.3765
 8907TIP3    H150916   6.522   7.444  11.191 -1.8406 -1.2760  0.5392
 8907TIP3    H250917   6.646   7.465  11.276 -0.2451  1.3164 -2.2138
 8908TIP3   OH250918   3.448   2.482  10.657  0.7186 -0.8050  0.2992
 8908TIP3    H150919   3.485   2.562  10.619  0.5314 -1.5835 -1.6480
 8908TIP3    H250920   3.355   2.485  10.635  0.0567 -0.1845  2.8087
 8909TIP3   OH250921   7.399   7.035  11.713  0.0321 -0.0108 -0.2744
 8909TIP3    H150922   7.315   7.070  11.682 -0.0216  1.2313  1.1639
 8909TIP3    H250923   7.376   6.950  11.753 -0.1948 -0.6480 -1.6987
 8910TIP3   OH250924   6.805   7.576  12.406 -0.4957 -0.1795  0.4749
 8910TIP3    H150925   6.817   7.633  12.482 -1.3206 -0.3545  0.7445
 8910TIP3    H250926   6.764   7.497  12.440  1.8196 -1.5418  0.3136
 8911TIP3   OH250927   5.048   4.070  11.458  0.4111  0.2213 -0.0958
 8911TIP3    H150928   4.962   4.092  11.494  0.4077  1.4541 -0.8161
 8911TIP3    H250929   5.093   4.154  11.449  0.5564 -0.0581 -2.5959
 8912TIP3   OH250930   6.932   5.546  11.577 -0.1266 -0.1800 -0.9723
 8912TIP3    H150931   6.980   5.616  11.622 -0.8322  1.2904 -2.4211
 8912TIP3    H250932   6.994   5.510  11.514  0.7456 -2.0014  0.7941
 8913TIP3   OH250933   6.136   1.796  10.803 -0.2190  0.0981  0.1347
 8913TIP3    H150934   6.087   1.753  10.733  0.0940  1.0268 -0.6766
 8913TIP3    H250935   6.210   1.737  10.820 -1.1158 -0.8871  0.7779
 8914TIP3   OH250936   6.624   1.793  12.299  0.1834 -0.3460 -0.2374
 8914TIP3    H150937   6.700   1.780  12.355 -0.0781  0.7123  0.4029
 8914TIP3    H250938   6.549   1.779  12.357 -0.0877  0.6774 -0.3126
 8915TIP3   OH250939   5.084   7.362  10.410  0.1559  0.0788  0.5515
 8915TIP3    H150940   5.044   7.285  10.368  0.5429  0.2977 -0.2510
 8915TIP3    H250941   5.174   7.334  10.427  0.0382  0.0420  1.1119
 8916TIP3   OH250942   0.360   0.242  11.515  0.5074  0.1807 -0.3059
 8916TIP3    H150943   0.367   0.173  11.581 -1.7398  0.9246  0.7930
 8916TIP3    H250944   0.315   0.200  11.441  3.2384 -0.7210 -1.6017
 8917TIP3   OH250945   5.336   0.758  10.456  0.0917 -0.1287 -0.0255
 8917TIP3    H150946   5.346   0.733  10.548 -0.1387  0.2330  0.0985
 8917TIP3    H250947   5.398   0.829  10.444  2.1914 -1.9731 -0.8783
 8918TIP3   OH250948   6.712   7.288  11.851  0.3039 -0.1669  0.0634
 8918TIP3    H150949   6.685   7.343  11.924 -0.7462 -0.6605  0.0592
 8918TIP3    H250950   6.637   7.286  11.793  0.9711 -0.1465 -0.8276
 8919TIP3   OH250951   4.452   0.597  13.022 -0.1535  0.1603  0.4568
 8919TIP3    H150952   4.488   0.564  13.105 -1.4524  0.4500  1.1632
 8919TIP3    H250953   4.482   0.688  13.017  0.5497 -0.0786  0.2252
 8920TIP3   OH250954   7.678   6.974  11.723  0.4048  0.1947  0.2410
 8920TIP3    H150955   7.627   7.008  11.797 -0.3115 -3.5948  1.7388
 8920TIP3    H250956   7.612   6.939  11.663  1.0720  1.3295 -1.1881
 8921TIP3   OH250957   2.700   3.660  11.403  0.6820  0.3571  0.1881
 8921TIP3    H150958   2.672   3.726  11.467  0.9650  1.2608 -0.6108
 8921TIP3    H250959   2.643   3.584  11.421 -0.2221  1.1060  0.5599
 8922TIP3   OH250960   1.509   5.309  11.450  0.6765 -0.0906  0.0627
 8922TIP3    H150961   1.501   5.214  11.445 -0.1653  0.0374 -1.5529
 8922TIP3    H250962   1.425   5.339  11.484  0.7346  0.1162  0.0263
 8923TIP3   OH250963   7.202   2.361  11.711 -0.4649 -0.1718 -0.0147
 8923TIP3    H150964   7.194   2.284  11.655  3.3350  0.1568 -1.2719
 8923TIP3    H250965   7.217   2.327  11.799 -1.9750 -0.7537  0.0427
 8924TIP3   OH250966   4.882   0.638  11.233  0.6447  0.1017  0.3953
 8924TIP3    H150967   4.846   0.675  11.314  2.4491  0.5008  1.0663
 8924TIP3    H250968   4.923   0.556  11.260  1.7268  0.4939  0.0069
 8925TIP3   OH250969   1.181   4.315  12.703  0.3949  0.4984 -0.7283
 8925TIP3    H150970   1.267   4.333  12.742  0.2332 -0.0776 -0.0766
 8925TIP3    H250971   1.127   4.389  12.730  0.6538  0.8014 -1.0354
 8926TIP3   OH250972   7.172   0.215  12.952  0.3548 -0.5457  0.1445
 8926TIP3    H150973   7.214   0.152  13.012 -0.4215 -0.8696  0.3562
 8926TIP3    H250974   7.223   0.295  12.962 -0.2919 -0.3227  1.9126
 8927TIP3   OH250975  -0.056   6.776  12.471 -0.5237 -0.1210 -0.2783
 8927TIP3    H150976  -0.120   6.828  12.423  0.9933  2.7194  0.6093
 8927TIP3    H250977  -0.047   6.820  12.555  0.9175 -1.8044  0.5041
 8928TIP3   OH250978   4.602   3.737  10.721 -0.4339 -0.0308 -0.0595
 8928TIP3    H150979   4.530   3.797  10.705  0.4823  0.9534 -0.6096
 8928TIP3    H250980   4.566   3.651  10.700 -1.0015  0.6050 -1.9041
 8929TIP3   OH250981   2.823   4.626  11.113 -0.3683  0.6851 -0.0897
 8929TIP3    H150982   2.825   4.559  11.045  0.0967  1.0772 -0.4731
 8929TIP3    H250983   2.738   4.669  11.102 -0.6173  0.2433  0.0818
 8930TIP3   OH250984   5.945   1.665  10.562  0.4237 -0.2947 -0.2033
 8930TIP3    H150985   5.887   1.589  10.555  0.3980 -0.4973  1.7507
 8930TIP3    H250986   5.891   1.739  10.535 -0.5417 -0.5810  0.8531
 8931TIP3   OH250987   7.297   6.149  10.421  0.2816  0.1372  0.2400
 8931TIP3    H150988   7.296   6.057  10.395 -0.6292  0.7648 -2.2552
 8931TIP3    H250989   7.387   6.178  10.405  1.0060 -0.6483  2.5694
 8932TIP3   OH250990   1.138   4.918  12.921  0.2997  0.4297  0.3207
 8932TIP3    H150991   1.208   4.970  12.962  1.0148 -1.4766  1.6557
 8932TIP3    H250992   1.178   4.882  12.842  0.0645  1.1714 -0.1537
 8933TIP3   OH250993   6.313   1.055  13.336  0.0676  0.2677 -0.3728
 8933TIP3    H150994   6.335   1.120  13.403  0.5384  2.1736 -2.2770
 8933TIP3    H250995   6.393   1.044  13.285  0.0443 -1.9837 -0.0511
 8934TIP3   OH250996   0.400   4.676  11.735  0.5324  0.4524 -0.1182
 8934TIP3    H150997   0.466   4.726  11.689 -0.7513  1.5715 -0.8210
 8934TIP3    H250998   0.345   4.639  11.666  0.0092  0.1264  0.4608
 8935TIP3   OH250999   1.217   7.345  11.576 -0.0313  0.6341 -0.5532
 8935TIP3    H151000   1.296   7.322  11.526  0.9678  0.4673  1.0316
 8935TIP3    H251001   1.154   7.277  11.553  1.5304 -1.4307  0.9328
 8936TIP3   OH251002   7.334   6.676  10.796  0.0919 -0.1279  0.7043
 8936TIP3    H151003   7.285   6.736  10.852 -0.0322 -0.5172  1.0211
 8936TIP3    H251004   7.294   6.590  10.812 -1.1115  0.0091 -1.2964
 8937TIP3   OH251005   2.787   3.862  12.880  0.4629  0.4541 -0.0508
 8937TIP3    H151006   2.803   3.942  12.831  1.4433  1.5050  1.8684
 8937TIP3    H251007   2.865   3.809  12.865  0.6055  0.6231  0.0929
 8938TIP3   OH251008   5.721   3.068  10.571  0.0109 -0.2004 -0.3034
 8938TIP3    H151009   5.689   3.156  10.551  1.0776  0.6156  1.3228
 8938TIP3    H251010   5.670   3.040  10.647  1.2910  0.0436  0.6831
 8939TIP3   OH251011   2.339   5.297  12.435 -0.0375 -0.4355  0.3070
 8939TIP3    H151012   2.295   5.239  12.373  1.6311 -0.5708 -0.8144
 8939TIP3    H251013   2.322   5.385  12.401 -0.5402 -0.3985  0.6390
 8940TIP3   OH251014   2.182   0.088  11.776 -0.0211  0.1948 -0.2734
 8940TIP3    H151015   2.154   0.172  11.813 -0.5186 -0.2726  0.4407
 8940TIP3    H251016   2.263   0.108  11.730  0.5889  0.8278  1.0059
 8941TIP3   OH251017   4.297   2.893  12.390 -0.0217 -0.1981  0.0827
 8941TIP3    H151018   4.346   2.839  12.328  0.3917 -0.6840  0.8187
 8941TIP3    H251019   4.356   2.967  12.410 -0.1921  0.0077 -0.1751
 8942TIP3   OH251020   4.111   3.471  10.937  0.7571  0.0051 -0.0251
 8942TIP3    H151021   4.100   3.547  10.881 -1.4010 -0.1594  0.1143
 8942TIP3    H251022   4.027   3.460  10.980  1.4841 -1.5859  1.0888
 8943TIP3   OH251023   6.538   2.199  12.390 -0.6353 -0.2006  0.7566
 8943TIP3    H151024   6.465   2.168  12.443 -0.4134 -1.7057  0.2373
 8943TIP3    H251025   6.603   2.230  12.453 -1.1843 -0.0851  1.2706
 8944TIP3   OH251026   3.443   5.642  12.081  0.5259 -0.2592 -0.3938
 8944TIP3    H151027   3.521   5.605  12.039 -0.3856  0.8292 -3.3125
 8944TIP3    H251028   3.430   5.726  12.037 -0.6715  0.9402  2.0731
 8945TIP3   OH251029   3.039   3.845  11.311  0.2676 -0.0643 -0.1133
 8945TIP3    H151030   3.058   3.767  11.258  0.4890  0.7877 -1.3298
 8945TIP3    H251031   3.098   3.912  11.277 -0.9212  1.0435 -0.0796
 8946TIP3   OH251032   5.174   7.663  11.453  0.1113  0.3156 -0.2422
 8946TIP3    H151033   5.237   7.728  11.484  0.0579 -0.3635  1.3644
 8946TIP3    H251034   5.091   7.711  11.448  0.6339  1.1177 -2.0202
 8947TIP3   OH251035   6.985   4.564  11.891 -0.3939 -0.2124  0.4307
 8947TIP3    H151036   6.970   4.659  11.897  0.8442  0.0568 -0.4347
 8947TIP3    H251037   6.906   4.531  11.847  0.1563  0.7660 -1.3896
 8948TIP3   OH251038   1.427   1.858  12.305  0.0829  0.4062 -0.2759
 8948TIP3    H151039   1.467   1.845  12.391  0.0154 -0.6544 -0.3987
 8948TIP3    H251040   1.499   1.888  12.250  0.4371 -0.2866 -0.1928
 8949TIP3   OH251041   1.220   3.462  11.329  0.4168 -0.2671 -0.6972
 8949TIP3    H151042   1.205   3.373  11.362  0.8605 -1.3865 -3.3022
 8949TIP3    H251043   1.156   3.515  11.376 -0.6862 -2.1532  0.0759
 8950TIP3   OH251044   6.424   7.263  11.995 -0.4940 -0.3848 -0.0175
 8950TIP3    H151045   6.446   7.177  11.961 -0.2438 -0.5370  0.5159
 8950TIP3    H251046   6.508   7.304  12.016 -0.5687  0.2935 -0.9790
 8951TIP3   OH251047   1.672   0.366  12.104 -0.6445  0.1015  0.1206
 8951TIP3    H151048   1.658   0.310  12.028 -3.2639 -0.6482  1.0149
 8951TIP3    H251049   1.668   0.306  12.179 -0.2516  1.0706  0.9391
 8952TIP3   OH251050   0.884   5.492  12.155  0.2312 -0.6504 -0.1251
 8952TIP3    H151051   0.978   5.490  12.138  0.5813 -3.0944  1.5499
 8952TIP3    H251052   0.876   5.535  12.241 -0.3178  0.4677 -0.7149
 8953TIP3   OH251053   5.703   2.531  11.624  0.4208  0.6554 -0.0387
 8953TIP3    H151054   5.682   2.573  11.707  0.4590  1.7913 -0.5855
 8953TIP3    H251055   5.649   2.577  11.559  0.4314 -0.1729 -0.6499
 8954TIP3   OH251056   4.072   5.003  10.643 -0.6315  0.4975  0.2623
 8954TIP3    H151057   4.071   5.035  10.553 -0.0414 -0.0642  0.0505
 8954TIP3    H251058   4.102   5.078  10.695 -2.0590  1.1776  0.1549
 8955TIP3   OH251059   5.006   6.645  11.065 -0.1117  0.0276 -0.1187
 8955TIP3    H151060   4.929   6.688  11.028  2.1769  2.4564 -2.4916
 8955TIP3    H251061   5.015   6.684  11.152 -0.5661  1.1448 -0.5442
 8956TIP3   OH251062   1.337   7.379  11.260 -0.2515  0.1404 -0.3958
 8956TIP3    H151063   1.361   7.298  11.306  1.3063  0.6688 -0.2249
 8956TIP3    H251064   1.416   7.432  11.262 -0.9720  1.2996 -1.3336
 8957TIP3   OH251065   4.682   3.064  11.585 -0.0133 -0.4306 -0.2539
 8957TIP3    H151066   4.713   3.152  11.563  1.6395 -0.7823  0.4713
 8957TIP3    H251067   4.626   3.076  11.661 -0.0282  0.0266 -0.3378
 8958TIP3   OH251068   3.446   6.377  12.229 -0.0259 -0.5353 -0.0307
 8958TIP3    H151069   3.386   6.359  12.300 -0.3760 -0.1661 -0.2326
 8958TIP3    H251070   3.527   6.332  12.254  1.0276  2.3817  2.2858
 8959TIP3   OH251071   3.735   5.789  13.076 -0.1027 -0.1302  0.2508
 8959TIP3    H151072   3.713   5.815  13.166  3.1854 -0.0119  1.1470
 8959TIP3    H251073   3.705   5.698  13.070 -0.6239 -0.0496  1.3519
 8960TIP3   OH251074   2.137   3.415  11.360  0.3504 -0.0427 -1.1872
 8960TIP3    H151075   2.044   3.420  11.380  0.7139  0.4009  0.5957
 8960TIP3    H251076   2.165   3.331  11.395  1.1837  1.1255  1.1618
 8961TIP3   OH251077   1.529   3.638  10.738 -0.2635  0.5846  0.7580
 8961TIP3    H151078   1.587   3.688  10.681 -3.2512  2.7034 -0.6879
 8961TIP3    H251079   1.489   3.704  10.796 -2.3033 -0.4777  0.6603
 8962TIP3   OH251080   4.063   2.474  10.958  0.1870  0.0690  0.0068
 8962TIP3    H151081   4.143   2.473  10.905  0.2452 -0.3552  0.0953
 8962TIP3    H251082   3.992   2.477  10.893  0.2648 -0.1130 -0.0875
 8963TIP3   OH251083   0.482   3.898  12.472 -0.4492 -0.1299  0.9303
 8963TIP3    H151084   0.556   3.955  12.493  1.0077 -1.0051 -1.4906
 8963TIP3    H251085   0.432   3.947  12.407  0.3160 -1.1724 -0.4922
 8964TIP3   OH251086   5.103   1.964  12.602 -0.1382 -0.4472 -0.7015
 8964TIP3    H151087   5.055   2.040  12.571  0.0631 -0.0680 -0.0833
 8964TIP3    H251088   5.185   1.966  12.552  0.5541  0.6446  0.4417
 8965TIP3   OH251089   6.902   5.874  10.722 -0.0127 -1.0764  0.0919
 8965TIP3    H151090   6.888   5.955  10.674  0.2034 -1.1081 -0.0237
 8965TIP3    H251091   6.816   5.831  10.723  0.2090 -1.5825 -1.1962
 8966TIP3   OH251092   7.445   3.092  12.426 -0.6053 -0.5374 -0.0632
 8966TIP3    H151093   7.510   3.157  12.451  0.3361 -1.0182 -1.1850
 8966TIP3    H251094   7.372   3.143  12.391 -0.2857 -0.0516 -0.0308
 8967TIP3   OH251095   3.185   1.895  11.289  0.1041  0.0379 -0.3197
 8967TIP3    H151096   3.147   1.875  11.203  0.8086 -1.0744 -0.3861
 8967TIP3    H251097   3.280   1.897  11.273  0.2316 -0.0095  0.4033
 8968TIP3   OH251098   4.846   3.682  10.620  0.3510 -0.2814  0.2989
 8968TIP3    H151099   4.769   3.695  10.676  1.2939  1.3138  1.3047
 8968TIP3    H251100   4.820   3.612  10.560 -2.2754  0.8421 -0.0522
 8969TIP3   OH251101   7.169   6.454  10.809 -0.8517  0.0485 -0.0762
 8969TIP3    H151102   7.119   6.529  10.778 -0.8949  0.0946  0.1089
 8969TIP3    H251103   7.154   6.387  10.742 -1.3598 -0.0216  0.1060
 8970TIP3   OH251104   2.363   6.885  12.434  0.5781  0.4752  0.5610
 8970TIP3    H151105   2.294   6.836  12.387  1.0853  0.0407  0.2566
 8970TIP3    H251106   2.317   6.960  12.471  0.2759  1.2402 -1.2427
 8971TIP3   OH251107   7.113   1.375  12.288  0.2489  0.3267 -0.7281
 8971TIP3    H151108   7.140   1.307  12.350 -0.9874 -0.3525 -0.8989
 8971TIP3    H251109   7.091   1.450  12.343 -0.8100 -0.2626 -0.3127
 8972TIP3   OH251110   4.040   2.967  11.786  0.1267 -0.9856 -0.1229
 8972TIP3    H151111   4.030   3.050  11.739  1.3854 -0.9482 -0.3758
 8972TIP3    H251112   4.027   2.900  11.720 -0.9246 -1.0015  0.0881
 8973TIP3   OH251113   5.394   0.531  12.386 -0.2123  0.4207  0.1023
 8973TIP3    H151114   5.318   0.585  12.407 -0.5398  0.5732 -1.4024
 8973TIP3    H251115   5.413   0.550  12.295  1.6326  0.3641  0.4406
 8974TIP3   OH251116   3.965   0.562  11.456  0.4023 -0.4419  0.1601
 8974TIP3    H151117   3.916   0.483  11.433  0.4742 -0.5984  0.5284
 8974TIP3    H251118   3.902   0.618  11.500  0.9741 -1.4803  2.4749
 8975TIP3   OH251119   3.999   3.860  11.379  0.1831  0.1991  0.8970
 8975TIP3    H151120   4.050   3.856  11.298 -0.1310  0.4466  0.6793
 8975TIP3    H251121   3.943   3.782  11.376  1.7611 -1.0286  1.9879
 8976TIP3   OH251122   4.875   5.072  10.334 -0.1594  0.0797 -0.3915
 8976TIP3    H151123   4.949   5.011  10.342  0.6723  0.9107 -1.4489
 8976TIP3    H251124   4.827   5.042  10.257 -0.8782 -0.3879  0.2270
 8977TIP3   OH251125   4.310   4.128  11.086 -0.1298 -0.0623  0.1855
 8977TIP3    H151126   4.277   4.216  11.068 -1.1974 -0.5061 -0.0952
 8977TIP3    H251127   4.393   4.124  11.039 -0.8003  0.2862 -1.0881
 8978TIP3   OH251128   2.701   5.995  11.815 -0.0518  0.3707  0.0029
 8978TIP3    H151129   2.637   5.942  11.768  0.8509 -0.2419 -0.5636
 8978TIP3    H251130   2.649   6.065  11.854 -0.9885  0.2509 -0.9590
 8979TIP3   OH251131   6.853   6.965  10.497 -0.3650 -0.1616  0.4415
 8979TIP3    H151132   6.826   6.875  10.481 -2.4003  0.2623  1.1763
 8979TIP3    H251133   6.936   6.975  10.450 -1.2250 -1.7368 -1.5102
 8980TIP3   OH251134   1.863   7.567  11.687 -0.1208 -0.0373  0.9785
 8980TIP3    H151135   1.935   7.531  11.739  0.1061 -0.8970  0.0974
 8980TIP3    H251136   1.877   7.532  11.599 -1.5020 -0.0696  0.7486
 8981TIP3   OH251137   0.233   2.276  12.339 -0.4231  0.4611  0.3799
 8981TIP3    H151138   0.217   2.350  12.280  0.1222  0.2643 -0.0259
 8981TIP3    H251139   0.191   2.202  12.296 -0.6987  0.4725  0.6298
 8982TIP3   OH251140   3.061   0.387  12.241 -0.0279 -0.4103  0.9181
 8982TIP3    H151141   3.031   0.300  12.268  1.1526 -0.3396  2.6436
 8982TIP3    H251142   3.148   0.371  12.205 -0.9409 -0.2727 -1.5241
 8983TIP3   OH251143   6.782   1.341  11.277 -0.2445 -0.0847  0.3427
 8983TIP3    H151144   6.794   1.246  11.278  1.2490 -0.0589 -2.7128
 8983TIP3    H251145   6.687   1.353  11.278 -0.6157 -1.8464 -2.4073
 8984TIP3   OH251146   6.820   6.347  12.844 -0.4063 -0.4107  0.3904
 8984TIP3    H151147   6.866   6.400  12.778  0.6982 -0.1476  1.3361
 8984TIP3    H251148   6.781   6.275  12.794 -1.5320  0.9990 -0.8675
 8985TIP3   OH251149   5.671   4.176  10.726 -0.0637 -0.1541 -0.6411
 8985TIP3    H151150   5.698   4.108  10.788 -0.2125  1.0795  0.8483
 8985TIP3    H251151   5.751   4.227  10.711 -0.8047  1.8980  1.6898
 8986TIP3   OH251152   6.302   7.389  10.714  0.2324 -0.1413  0.1604
 8986TIP3    H151153   6.395   7.385  10.734  0.4516  0.1631 -0.7608
 8986TIP3    H251154   6.296   7.442  10.634 -0.7334 -0.0927  0.2460
 8987TIP3   OH251155   6.707   1.927  12.603  0.1416 -0.6281  0.4303
 8987TIP3    H151156   6.726   1.895  12.691 -1.7203 -1.5779  0.5326
 8987TIP3    H251157   6.612   1.922  12.596 -0.0931  2.6892 -0.4138
 8988TIP3   OH251158   7.232   0.910  12.637 -0.1240  0.1145  0.2778
 8988TIP3    H151159   7.211   0.867  12.554  0.9432  0.4174 -0.1746
 8988TIP3    H251160   7.328   0.911  12.639 -0.0792 -1.8053  2.5386
 8989TIP3   OH251161   2.032   6.162  12.636  0.1805  0.0555 -0.3094
 8989TIP3    H151162   1.961   6.140  12.576  0.9267  0.7267 -1.4697
 8989TIP3    H251163   1.991   6.221  12.700 -0.4769 -0.1663 -0.5168
 8990TIP3   OH251164   4.506   7.277  13.110  0.2798  0.5924 -0.0379
 8990TIP3    H151165   4.525   7.236  13.025 -0.1198  0.4673 -0.0675
 8990TIP3    H251166   4.411   7.281  13.113  0.2555 -0.2281  0.7990
 8991TIP3   OH251167   4.255   3.031  10.683 -0.4195 -0.4993 -0.1677
 8991TIP3    H151168   4.266   3.051  10.776 -0.2723  2.7781 -0.7857
 8991TIP3    H251169   4.333   3.066  10.641 -1.0300 -0.8786 -1.6831
 8992TIP3   OH251170   5.394   0.608  12.712 -0.3062  0.2326 -0.4631
 8992TIP3    H151171   5.357   0.679  12.660 -2.4768 -1.0590 -0.8232
 8992TIP3    H251172   5.336   0.602  12.788  0.6321 -0.3054  0.2173
 8993TIP3   OH251173   4.488   2.036  11.680  0.2836 -0.6970 -0.0863
 8993TIP3    H151174   4.519   1.951  11.648 -0.8387 -0.2600 -2.5099
 8993TIP3    H251175   4.560   2.068  11.735  1.8919 -2.0338 -1.2923
 8994TIP3   OH251176   3.893   5.187  12.829 -0.6731 -0.5368  0.2070
 8994TIP3    H151177   3.883   5.172  12.923 -1.0127 -1.2380  0.0699
 8994TIP3    H251178   3.987   5.174  12.813 -0.1466  2.0366  0.8297
 8995TIP3   OH251179   5.736   5.632  11.799 -0.4020  0.4985 -0.3423
 8995TIP3    H151180   5.726   5.714  11.751  1.0241  1.7668  1.4165
 8995TIP3    H251181   5.717   5.654  11.890 -0.9382 -1.3658  0.0446
 8996TIP3   OH251182   7.366   7.397  12.326  0.6044  0.2368 -0.0215
 8996TIP3    H151183   7.427   7.373  12.396  1.1689  0.3276 -0.4731
 8996TIP3    H251184   7.280   7.373  12.360  0.9764 -0.7648  0.2521
 8997TIP3   OH251185   0.754   6.909  12.246 -0.2530  0.4111 -0.1087
 8997TIP3    H151186   0.675   6.879  12.201 -0.5941  2.1260 -0.7242
 8997TIP3    H251187   0.819   6.841  12.227 -0.7622  0.4208 -2.1082
 8998TIP3   OH251188   0.549   2.885  11.454  0.0350  0.0649  0.1949
 8998TIP3    H151189   0.605   2.821  11.498 -1.5479 -1.9870 -0.6001
 8998TIP3    H251190   0.600   2.914  11.378 -0.3059 -2.6478 -1.1812
 8999TIP3   OH251191   1.518   2.052  12.753 -0.9410  0.2077 -0.2479
 8999TIP3    H151192   1.598   2.032  12.704 -1.3008  1.7131 -1.5408
 8999TIP3    H251193   1.459   2.089  12.688 -2.4454 -0.2041  0.8316
 9000TIP3   OH251194   4.000   5.132  10.963 -0.4175 -0.5042  0.2094
 9000TIP3    H151195   4.065   5.159  10.898  1.5398 -0.2747  2.1244
 9000TIP3    H251196   3.949   5.211  10.981 -0.2385 -0.2835 -0.2374
 9001TIP3   OH251197   3.167   0.155  10.719 -0.1322 -0.5973 -0.6140
 9001TIP3    H151198   3.112   0.104  10.659  1.1965 -0.6689 -1.8110
 9001TIP3    H251199   3.195   0.093  10.785 -2.0485 -0.4022  0.4599
 9002TIP3   OH251200   0.154   7.486  12.045  0.4091 -0.3771 -0.7234
 9002TIP3    H151201   0.223   7.428  12.012 -0.1173 -0.0048 -2.5908
 9002TIP3    H251202   0.193   7.574  12.042  0.4824 -0.3727  0.0676
 9003TIP3   OH251203   3.747   4.321  10.970  0.5036 -0.1247 -0.0364
 9003TIP3    H151204   3.799   4.401  10.965  0.6745  0.1546  3.5945
 9003TIP3    H251205   3.792   4.259  10.913  1.3300  1.8142 -1.6123
 9004TIP3   OH251206   5.701   5.182  11.168 -0.4315  0.1394 -0.0814
 9004TIP3    H151207   5.796   5.173  11.159 -0.3765 -0.3855  0.9381
 9004TIP3    H251208   5.670   5.195  11.078  0.4574 -1.1137 -0.6031
 9005TIP3   OH251209   5.716   2.926  11.505 -0.3144  0.2420  0.5828
 9005TIP3    H151210   5.641   2.871  11.485  0.6447 -0.9899  0.1903
 9005TIP3    H251211   5.776   2.868  11.552  0.9553  0.7840 -0.2986
 9006TIP3   OH251212   1.930   0.644  11.608 -0.1702  0.0358 -0.1410
 9006TIP3    H151213   1.990   0.607  11.543  0.6190 -0.2624  0.7291
 9006TIP3    H251214   1.934   0.582  11.682  0.2374  1.2062  0.8472
 9007TIP3   OH251215   5.234   7.017  11.512 -0.3142  0.2361  0.0074
 9007TIP3    H151216   5.198   7.042  11.597 -1.5828 -0.5678 -0.2820
 9007TIP3    H251217   5.271   7.099  11.478 -1.3839  0.9706  0.5465
 9008TIP3   OH251218   4.142   0.855  10.586  0.2664  0.0346  0.2428
 9008TIP3    H151219   4.096   0.851  10.670 -0.7674  0.6262 -0.2837
 9008TIP3    H251220   4.204   0.927  10.595 -2.4563  2.7054 -0.7260
 9009TIP3   OH251221   0.745   7.337  11.622 -0.4081  0.1589  0.5703
 9009TIP3    H151222   0.777   7.415  11.667  0.4722  0.1317  0.0172
 9009TIP3    H251223   0.761   7.354  11.530 -0.7543 -0.4315  0.3979
 9010TIP3   OH251224   4.043   1.732  12.378 -0.1117 -0.0065 -0.2450
 9010TIP3    H151225   3.972   1.793  12.397 -1.4532 -1.4689 -0.3470
 9010TIP3    H251226   4.086   1.718  12.462 -1.7859 -1.2841  0.4562
 9011TIP3   OH251227   0.773   6.294  10.928  0.3326 -0.5122  0.4092
 9011TIP3    H151228   0.847   6.307  10.987 -0.4091  1.4346  0.9749
 9011TIP3    H251229   0.707   6.250  10.982 -0.1673  0.8403  0.9462
 9012TIP3   OH251230   7.650   3.738  11.906 -0.0936 -0.3597 -0.1163
 9012TIP3    H151231   7.624   3.730  11.814  0.3756  1.5882 -0.4438
 9012TIP3    H251232   7.570   3.719  11.955 -0.2524 -1.8313 -0.8766
 9013TIP3   OH251233   5.237   1.781  10.618 -0.1205  0.8652 -0.1444
 9013TIP3    H151234   5.153   1.734  10.623  0.3345 -0.0818 -1.0796
 9013TIP3    H251235   5.212   1.873  10.607 -1.0258  0.8238  1.3310
 9014TIP3   OH251236   3.416   1.886  11.147 -0.6260 -0.5599 -0.0261
 9014TIP3    H151237   3.478   1.910  11.078 -1.6143  0.6721 -0.5276
 9014TIP3    H251238   3.399   1.792  11.134 -0.1351 -0.5266 -0.9104
 9015TIP3   OH251239   6.992   0.244  12.715 -0.2958 -0.7415 -0.4680
 9015TIP3    H151240   7.028   0.187  12.783  1.4492 -2.0531 -2.4019
 9015TIP3    H251241   6.951   0.184  12.653 -1.6919  0.4257 -0.7427
 9016TIP3   OH251242   6.523   0.042  13.423  0.7639  1.0358  0.1487
 9016TIP3    H151243   6.456   0.110  13.426  0.1879  0.4463  2.0087
 9016TIP3    H251244   6.529   0.010  13.513  2.1131 -0.3194 -0.3781
 9017TIP3   OH251245   0.726   0.711  12.140 -0.1428  0.2680 -0.4743
 9017TIP3    H151246   0.692   0.791  12.179  1.9000  0.0901  1.9383
 9017TIP3    H251247   0.811   0.736  12.105 -0.7040 -0.2739 -2.3667
 9018TIP3   OH251248   7.176   3.830  11.897 -0.4298 -0.2985  0.1226
 9018TIP3    H151249   7.173   3.774  11.819 -1.2846 -0.9426  0.6087
 9018TIP3    H251250   7.101   3.802  11.950 -0.6806  1.0713  0.5349
 9019TIP3   OH251251   2.421   5.300  12.700 -0.3010  0.1816 -0.8047
 9019TIP3    H151252   2.372   5.293  12.618 -0.3602 -0.6165 -0.7161
 9019TIP3    H251253   2.358   5.277  12.767 -0.4807  1.6530 -0.4390
 9020TIP3   OH251254   5.234   6.735  10.501 -0.1267  0.6399 -0.9160
 9020TIP3    H151255   5.157   6.707  10.551 -0.3056  0.5087 -1.2637
 9020TIP3    H251256   5.266   6.655  10.460  0.5473  0.5876 -0.2985
 9021TIP3   OH251257   3.174   0.862  11.098  0.4242 -0.2276 -0.6695
 9021TIP3    H151258   3.229   0.939  11.112 -0.3642  0.0243  1.2956
 9021TIP3    H251259   3.201   0.829  11.012  1.9013  1.2942 -0.8425
 9022TIP3   OH251260   3.186   1.052  10.858 -0.1822 -0.5195 -0.0245
 9022TIP3    H151261   3.186   0.957  10.844 -0.9812 -0.5148 -0.1394
 9022TIP3    H251262   3.259   1.068  10.917  0.1797 -1.1625 -0.2847
 9023TIP3   OH251263   3.912   3.318  12.684 -0.8511 -0.2097 -0.7568
 9023TIP3    H151264   3.967   3.371  12.741 -1.6778  0.2571 -0.3786
 9023TIP3    H251265   3.889   3.376  12.612 -1.1344 -0.2881 -0.7314
 9024TIP3   OH251266   3.449   1.870  11.425  0.2760 -0.2968 -0.2980
 9024TIP3    H151267   3.407   1.785  11.411  0.6851 -0.5773  0.1487
 9024TIP3    H251268   3.467   1.902  11.337  1.9581 -1.6025 -0.4806
 9025TIP3   OH251269   0.045   2.647  11.125 -0.3379 -0.5336 -0.1286
 9025TIP3    H151270   0.106   2.674  11.194  0.5399 -1.3250 -0.5729
 9025TIP3    H251271   0.081   2.685  11.045 -0.9569 -0.2117 -0.2538
 9026TIP3   OH251272   7.549   2.880  10.498  0.3065 -0.1613 -0.0152
 9026TIP3    H151273   7.493   2.936  10.551  0.5722  0.6322 -0.5449
 9026TIP3    H251274   7.625   2.935  10.477  0.4808 -0.6525 -0.7149
 9027TIP3   OH251275   5.764   3.945  10.856 -0.6598 -0.6032  0.0015
 9027TIP3    H151276   5.716   3.911  10.780 -0.0929 -0.1850 -0.5499
 9027TIP3    H251277   5.854   3.917  10.842 -0.6072 -0.8246  0.7065
 9028TIP3   OH251278   0.022   5.437  11.395  0.2870  0.0568 -0.1206
 9028TIP3    H151279   0.021   5.342  11.404 -0.2583 -0.0447 -1.1019
 9028TIP3    H251280   0.103   5.465  11.437 -1.1069 -0.4849  3.3165
 9029TIP3   OH251281   2.393   0.037  10.789  0.1510  0.5367  0.1597
 9029TIP3    H151282   2.341   0.116  10.799 -0.1851  0.3868 -0.3507
 9029TIP3    H251283   2.331  -0.030  10.761  0.0801 -0.4069  2.3755
 9030TIP3   OH251284   4.168   0.163  10.802  0.0477  0.1731  0.1346
 9030TIP3    H151285   4.205   0.185  10.887 -1.4399 -0.6403  1.0543
 9030TIP3    H251286   4.235   0.186  10.738  2.1718 -1.3838  1.6887
 9031TIP3   OH251287   6.723   4.204  11.965  0.1961  0.6710 -0.3127
 9031TIP3    H151288   6.699   4.114  11.984  0.3113  0.8275  0.5781
 9031TIP3    H251289   6.686   4.255  12.037 -1.0581  1.5171 -1.4826
 9032TIP3   OH251290   7.125   1.122  12.073  0.2591 -0.4065  0.0643
 9032TIP3    H151291   7.142   1.188  12.006  0.0246  0.3511  0.7231
 9032TIP3    H251292   7.067   1.059  12.031 -0.1511  0.2358 -0.3474
 9033TIP3   OH251293   3.437   1.490  13.164  0.0480  0.1284  0.0413
 9033TIP3    H151294   3.517   1.489  13.217  0.4300  3.6488 -0.2219
 9033TIP3    H251295   3.417   1.397  13.150  4.6393 -0.9938 -0.7913
 9034TIP3   OH251296   6.793   4.564  11.306  0.2504  0.1174 -0.4792
 9034TIP3    H151297   6.774   4.478  11.268  1.6390  0.3218 -1.7249
 9034TIP3    H251298   6.874   4.552  11.355  0.4340  0.6850 -0.6279
 9035TIP3   OH251299   7.092   2.481  11.278 -0.2310  0.6917  0.3965
 9035TIP3    H151300   7.172   2.528  11.257  0.2594  0.0696  0.8429
 9035TIP3    H251301   7.043   2.480  11.195 -0.7202  2.8222  0.6004
 9036TIP3   OH251302   2.355   1.314  12.548  0.2440  0.0174 -0.2270
 9036TIP3    H151303   2.379   1.265  12.626  0.1888  0.1011 -0.1576
 9036TIP3    H251304   2.292   1.379  12.579  1.0201  0.7584 -0.1343
 9037TIP3   OH251305   4.281   6.085  12.870  0.1245 -0.1672  0.1037
 9037TIP3    H151306   4.328   6.145  12.927  0.1385  1.0525 -1.1145
 9037TIP3    H251307   4.258   6.011  12.925  2.2659 -0.1782  1.0603
 9038TIP3   OH251308   1.359   0.183  11.405  0.3118  0.0648 -0.2330
 9038TIP3    H151309   1.330   0.261  11.453  1.8245  0.4726  0.0874
 9038TIP3    H251310   1.431   0.148  11.458  0.5767 -0.7392 -1.0963
 9039TIP3   OH251311   4.741   1.633  12.573 -0.1405  0.0482  0.3685
 9039TIP3    H151312   4.808   1.699  12.592  1.3070 -0.9288 -1.0736
 9039TIP3    H251313   4.703   1.661  12.489 -2.1455  1.0067  1.5239
 9040TIP3   OH251314   0.458   1.534  12.918 -0.6367  0.0883 -0.0989
 9040TIP3    H151315   0.509   1.600  12.964  0.2892  0.6835 -1.8735
 9040TIP3    H251316   0.368   1.568  12.918 -0.1620  1.4159 -1.0460
 9041TIP3   OH251317   2.893   3.076  11.910 -0.7566 -0.0344 -0.3332
 9041TIP3    H151318   2.805   3.112  11.912 -0.7783 -0.1146  1.1011
 9041TIP3    H251319   2.948   3.147  11.879 -0.7985  1.3202  2.4042
 9042TIP3   OH251320   3.212   0.808  11.350 -0.3261 -0.0090  0.2980
 9042TIP3    H151321   3.162   0.854  11.283 -0.7010 -0.1541  0.4748
 9042TIP3    H251322   3.299   0.849  11.347 -0.4598  0.2621  0.0066
 9043TIP3   OH251323   3.533   6.052  11.738 -0.1807  0.4902  0.1298
 9043TIP3    H151324   3.569   6.130  11.779  0.6796  0.0222  0.2718
 9043TIP3    H251325   3.584   6.040  11.658 -1.3471  0.9628 -0.7267
 9044TIP3   OH251326   5.810   1.653  11.236 -0.0635  0.1808  0.1322
 9044TIP3    H151327   5.832   1.742  11.208  0.6991  0.1105  0.4836
 9044TIP3    H251328   5.869   1.635  11.309  0.5831 -1.0269 -0.6456
 9045TIP3   OH251329   3.226   7.171  11.873  0.5881  0.1915 -0.2197
 9045TIP3    H151330   3.286   7.227  11.825  1.7074  0.1149  1.0341
 9045TIP3    H251331   3.282   7.113  11.925 -0.5089 -2.3362 -1.6626
 9046TIP3   OH251332   4.727   1.512  12.041  0.3738 -0.2473  0.6722
 9046TIP3    H151333   4.821   1.497  12.057  0.0936 -0.8604  1.8081
 9046TIP3    H251334   4.683   1.438  12.083 -0.5699 -0.6328 -0.9196
 9047TIP3   OH251335   4.155   4.750  10.960 -0.1057 -0.4258 -0.0005
 9047TIP3    H151336   4.230   4.768  11.017  1.2829 -2.6067 -0.9524
 9047TIP3    H251337   4.156   4.655  10.950 -1.4138 -0.2797 -2.1484
 9048TIP3   OH251338   7.039   7.083  12.525  0.6333  0.1066 -0.0545
 9048TIP3    H151339   7.114   7.052  12.576  0.7116 -2.1338 -1.4489
 9048TIP3    H251340   7.068   7.167  12.490  2.7196 -0.9193 -0.9488
 9049TIP3   OH251341   7.108   3.214  10.652  0.1125  0.3026  0.9874
 9049TIP3    H151342   7.110   3.148  10.721  0.8351 -0.3988  0.3175
 9049TIP3    H251343   7.195   3.254  10.654  0.0265  0.5106  0.7025
 9050TIP3   OH251344   1.462   6.583  11.256 -0.1336 -0.0112 -0.1380
 9050TIP3    H151345   1.526   6.647  11.225  0.5769 -0.6713 -0.0543
 9050TIP3    H251346   1.493   6.557  11.342 -1.0652  0.3908  0.3386
 9051TIP3   OH251347   0.014   1.953  11.034 -0.0364 -0.3586  0.1071
 9051TIP3    H151348   0.047   1.896  10.964 -0.2887  0.1779 -0.4514
 9051TIP3    H251349   0.035   1.905  11.115 -1.1377 -1.7182 -0.3765
 9052TIP3   OH251350   4.894   7.553  12.532 -0.1729  0.7573  0.2330
 9052TIP3    H151351   4.981   7.543  12.571  0.4124 -0.5982 -1.3014
 9052TIP3    H251352   4.838   7.494  12.584 -0.5036  2.5151  1.9872
 9053TIP3   OH251353   3.909   6.936  10.796  0.0803  0.0091 -0.4181
 9053TIP3    H151354   3.965   6.960  10.722 -0.2453 -0.1479 -0.7203
 9053TIP3    H251355   3.967   6.935  10.872  0.7033 -1.1452 -0.8845
 9054TIP3   OH251356   5.249   3.363  10.795  0.0899  0.0229 -0.3581
 9054TIP3    H151357   5.337   3.385  10.826  0.3343  0.9921 -1.6389
 9054TIP3    H251358   5.236   3.420  10.719 -2.2626  1.0498  0.7140
 9055TIP3   OH251359   6.976   4.069  11.664 -0.4542  0.0810 -0.3749
 9055TIP3    H151360   7.047   4.099  11.720 -1.6254  1.9626  0.1593
 9055TIP3    H251361   6.905   4.047  11.723 -0.7983 -0.5284 -0.9885
 9056TIP3   OH251362   2.654   1.688  10.788 -0.1159  0.5975  0.1979
 9056TIP3    H151363   2.560   1.691  10.806 -0.0709  0.7037  0.4146
 9056TIP3    H251364   2.663   1.623  10.719 -0.2823  0.1397  0.6029
 9057TIP3   OH251365   4.645   5.693  11.913 -0.1156  0.1344 -0.0684
 9057TIP3    H151366   4.722   5.665  11.863  0.9547 -1.5637  2.3483
 9057TIP3    H251367   4.667   5.782  11.942  0.3275  0.1723 -0.4995
 9058TIP3   OH251368   6.956   1.562  11.292  0.6379  0.0187 -0.2996
 9058TIP3    H151369   6.908   1.480  11.277 -1.4033  0.6276  2.1714
 9058TIP3    H251370   6.919   1.622  11.227 -1.0914  0.1167  0.7196
 9059TIP3   OH251371   6.169   2.519  10.804 -0.1060 -0.1690  0.4998
 9059TIP3    H151372   6.079   2.495  10.783  0.2108  0.3296 -1.6346
 9059TIP3    H251373   6.223   2.453  10.762  0.5621  0.4258  0.3939
 9060TIP3   OH251374   1.971   5.354  11.255 -0.2524  0.0458  0.0569
 9060TIP3    H151375   1.973   5.259  11.254  2.2991 -0.0942  2.8756
 9060TIP3    H251376   1.996   5.380  11.166  1.4347 -2.0073 -0.1361
 9061TIP3   OH251377   1.450   7.241  10.979 -0.1068  0.3427 -0.0354
 9061TIP3    H151378   1.511   7.224  11.052  1.2227 -0.0015 -1.1836
 9061TIP3    H251379   1.424   7.332  10.991  0.7836  0.5605  0.3985
 9062TIP3   OH251380   2.889   6.574  11.697  0.1748 -0.0746 -0.2959
 9062TIP3    H151381   2.967   6.543  11.653  0.3722 -0.2980  0.2049
 9062TIP3    H251382   2.843   6.494  11.724  0.3731  0.0476  0.4449
 9063TIP3   OH251383   3.204   1.013  12.925  0.4465 -0.1863 -0.2061
 9063TIP3    H151384   3.285   1.033  12.973  0.1659 -1.4011  0.8110
 9063TIP3    H251385   3.135   1.022  12.991 -0.0987 -0.5072 -0.7285
 9064TIP3   OH251386   2.179   2.863  12.604  0.1712  0.3692  0.2358
 9064TIP3    H151387   2.200   2.913  12.526 -0.9718  0.1345 -0.2352
 9064TIP3    H251388   2.106   2.910  12.645  1.2537  0.9395  1.6108
 9065TIP3   OH251389   3.194   5.620  13.355  0.3976 -0.1713 -0.2044
 9065TIP3    H151390   3.158   5.560  13.420 -1.0836 -1.7646 -2.3420
 9065TIP3    H251391   3.266   5.571  13.315 -1.4772 -1.1523 -2.6967
 9066TIP3   OH251392   5.545   0.932  10.468  0.4095 -0.3000 -0.4645
 9066TIP3    H151393   5.501   0.941  10.553 -1.7503 -1.3741 -1.3661
 9066TIP3    H251394   5.607   0.860  10.481  0.7026  0.0894  0.4060
 9067TIP3   OH251395   2.026   6.593  10.765 -0.3104 -0.3113  0.1220
 9067TIP3    H151396   2.100   6.540  10.734 -0.5717 -0.2635 -0.6166
 9067TIP3    H251397   2.046   6.681  10.732 -0.0096  0.0058  1.1121
 9068TIP3   OH251398   5.005   4.061  11.151  0.3042 -0.2319  0.1981
 9068TIP3    H151399   5.026   4.032  11.240  0.7132  0.0613  0.1979
 9068TIP3    H251400   5.007   3.980  11.099 -0.0791 -0.4247  0.4767
 9069TIP3   OH251401   3.433   2.034  12.637 -0.4696 -0.4287  0.1192
 9069TIP3    H151402   3.347   2.074  12.653 -0.1167  0.4390 -0.0643
 9069TIP3    H251403   3.425   1.994  12.551 -0.5877 -0.0521 -0.0473
 9070TIP3   OH251404   4.456   0.158  10.767 -0.8847 -0.2324  0.0253
 9070TIP3    H151405   4.523   0.106  10.722  0.4447 -0.0069  1.6698
 9070TIP3    H251406   4.465   0.246  10.731 -0.2508 -0.1911  0.2770
 9071TIP3   OH251407   0.006   6.528  12.388 -0.5700 -0.2348 -0.2533
 9071TIP3    H151408  -0.001   6.623  12.402 -1.3789 -0.0442 -1.7778
 9071TIP3    H251409  -0.029   6.489  12.468 -2.0264  0.7545 -0.3829
 9072TIP3   OH251410   4.923   6.627  13.129 -0.1207 -0.3676 -0.2131
 9072TIP3    H151411   4.833   6.648  13.154 -0.2738 -1.0500 -0.1688
 9072TIP3    H251412   4.967   6.607  13.212 -0.0736 -0.5702 -0.2867
 9073TIP3   OH251413   7.082   3.320  13.421  0.0440  0.1644 -0.1916
 9073TIP3    H151414   7.008   3.378  13.404  0.0985  0.2800 -0.0358
 9073TIP3    H251415   7.042   3.235  13.437 -0.1691  0.4956  1.2367
 9074TIP3   OH251416   5.550   6.397  12.482 -0.2890  0.3317 -0.7637
 9074TIP3    H151417   5.515   6.446  12.557 -0.3926 -1.7350  0.6158
 9074TIP3    H251418   5.489   6.415  12.411 -1.6403  0.3556  0.3526
 9075TIP3   OH251419   4.743   2.261  10.634  0.1947 -0.2389 -0.6826
 9075TIP3    H151420   4.763   2.305  10.551  1.0251  0.4520 -0.1269
 9075TIP3    H251421   4.743   2.331  10.699  0.4878 -0.9074  0.0533
 9076TIP3   OH251422   7.040   5.243  10.555 -0.3871  0.0945 -0.2915
 9076TIP3    H151423   7.015   5.312  10.617 -0.0401  1.6697 -1.8179
 9076TIP3    H251424   7.094   5.183  10.606 -1.4716  0.4170  1.3198
 9077TIP3   OH251425   4.627   5.464  10.606  0.1624 -0.1609 -0.0303
 9077TIP3    H151426   4.653   5.407  10.534  2.4290 -0.4944  0.9783
 9077TIP3    H251427   4.566   5.527  10.566  2.1766  0.3797 -2.5338
 9078TIP3   OH251428   4.850   4.765  12.116  0.0522  0.2791  0.0901
 9078TIP3    H151429   4.932   4.740  12.072  1.2131  1.6654  1.3428
 9078TIP3    H251430   4.877   4.790  12.204 -1.8813 -0.1561  0.8541
 9079TIP3   OH251431   3.280   5.221  12.044  0.2432 -0.4094  0.2865
 9079TIP3    H151432   3.368   5.252  12.061 -0.2225  0.0410  2.0363
 9079TIP3    H251433   3.238   5.217  12.130 -1.4684 -0.5205 -0.5002
 9080TIP3   OH251434   5.804   2.297  12.713  0.5415 -0.5793 -0.5609
 9080TIP3    H151435   5.813   2.277  12.620  2.2110  3.4447 -1.4794
 9080TIP3    H251436   5.894   2.302  12.746  0.0449 -0.2664  0.8286
 9081TIP3   OH251437   5.699   3.488  11.471  0.6420  0.1233 -0.1474
 9081TIP3    H151438   5.754   3.520  11.543  0.1203  0.2183  0.2210
 9081TIP3    H251439   5.688   3.395  11.489 -0.6908  0.4146  0.7422
 9082TIP3   OH251440   2.037   3.382  13.399 -1.0275  0.1976  0.0074
 9082TIP3    H151441   2.103   3.321  13.433 -0.4623  0.4957 -0.5139
 9082TIP3    H251442   1.994   3.418  13.476 -1.0340 -0.4969  0.3347
 9083TIP3   OH251443   6.583   5.583  13.252 -0.2235 -0.0406  0.3094
 9083TIP3    H151444   6.593   5.539  13.336 -1.2041 -0.6238  0.1441
 9083TIP3    H251445   6.573   5.675  13.274  3.3127  0.3893  0.5687
 9084TIP3   OH251446   6.760   1.468  12.321  0.1442  0.0850 -0.1700
 9084TIP3    H151447   6.702   1.445  12.394  0.7020  0.0452  0.2723
 9084TIP3    H251448   6.780   1.560  12.335 -0.9846  0.5080 -1.1611
 9085TIP3   OH251449   4.936   3.334  11.879  0.2882  0.0346 -0.2088
 9085TIP3    H151450   4.851   3.365  11.848  0.2135  1.1830  1.0135
 9085TIP3    H251451   4.999   3.398  11.846  0.5198 -0.1274 -0.0913
 9086TIP3   OH251452   5.338   4.063  10.962 -0.2252 -0.0699  0.3757
 9086TIP3    H151453   5.314   3.989  10.908 -0.5408  0.8261 -0.7454
 9086TIP3    H251454   5.434   4.064  10.959 -0.1902 -0.7893  0.9178
 9087TIP3   OH251455   1.543   3.381  10.864  0.6220 -0.2414  0.2874
 9087TIP3    H151456   1.456   3.345  10.879  0.8673 -1.8822 -1.7920
 9087TIP3    H251457   1.528   3.453  10.801  0.8686 -1.5905 -1.3888
 9088TIP3   OH251458   4.290   7.110  12.755 -0.2571 -0.2699 -0.9180
 9088TIP3    H151459   4.224   7.091  12.821  0.2809  3.2210  0.8362
 9088TIP3    H251460   4.241   7.111  12.672 -1.6655 -1.1510 -0.1440
 9089TIP3   OH251461   7.571   5.687  10.977 -0.1247  0.1479 -0.4285
 9089TIP3    H151462   7.486   5.725  10.957 -0.8934 -0.4417  1.4279
 9089TIP3    H251463   7.567   5.669  11.071  1.4448 -1.3959 -0.6093
 9090TIP3   OH251464   4.957   1.550  12.329 -0.0975 -0.6590  0.2814
 9090TIP3    H151465   5.012   1.617  12.289 -0.1440 -0.8318 -0.0819
 9090TIP3    H251466   4.934   1.585  12.415 -0.4760 -0.0184 -0.0733
 9091TIP3   OH251467   4.197   0.272  11.091 -0.4308 -0.3339  0.2327
 9091TIP3    H151468   4.197   0.337  11.161  0.7750  0.2350 -0.2610
 9091TIP3    H251469   4.154   0.195  11.129 -0.1630  0.1033  1.4564
 9092TIP3   OH251470   2.319   5.064  11.611 -0.2151 -0.0805  0.1237
 9092TIP3    H151471   2.244   5.076  11.669  0.4191 -1.0698  1.1890
 9092TIP3    H251472   2.284   5.019  11.535 -0.6751 -0.7105  0.6998
 9093TIP3   OH251473   7.535   1.108  12.108 -0.2682  0.4048 -0.6344
 9093TIP3    H151474   7.465   1.052  12.073  1.6494 -1.5699 -1.5511
 9093TIP3    H251475   7.554   1.169  12.037 -1.1157  1.0322 -0.3341
 9094TIP3   OH251476   3.313   5.374  10.922  0.3437 -0.0215  0.4809
 9094TIP3    H151477   3.291   5.361  10.830 -1.0089  0.2816  0.7433
 9094TIP3    H251478   3.268   5.303  10.968  0.1029  0.4782  1.0224
 9095TIP3   OH251479   6.735   0.891  12.094 -0.2455 -0.7451  0.1756
 9095TIP3    H151480   6.691   0.859  12.173 -0.2158 -0.9075  0.1278
 9095TIP3    H251481   6.708   0.830  12.026  1.4446 -1.9279  0.4973
 9096TIP3   OH251482   2.271   1.135  11.242 -0.3132 -0.9263 -0.6584
 9096TIP3    H151483   2.290   1.222  11.208 -2.2009 -0.4067 -0.4940
 9096TIP3    H251484   2.334   1.122  11.313  1.1822 -0.4749 -1.8604
 9097TIP3   OH251485   5.920   2.722  11.627 -0.2621  0.5733 -0.5031
 9097TIP3    H151486   5.887   2.634  11.611  1.5494  0.0225 -1.4398
 9097TIP3    H251487   5.908   2.735  11.721 -2.1243  0.0386 -0.6165
 9098TIP3   OH251488   1.105   4.280  13.200 -0.2817  0.2446 -0.4002
 9098TIP3    H151489   1.038   4.345  13.223 -1.4512 -1.0233 -0.0856
 9098TIP3    H251490   1.081   4.202  13.251  0.2758 -0.8716 -1.7893
 9099TIP3   OH251491   3.499   5.455  12.738  0.0835 -0.1605  0.1766
 9099TIP3    H151492   3.524   5.533  12.787  0.1770  0.0813 -0.2535
 9099TIP3    H251493   3.579   5.428  12.693 -0.1880  0.0834 -0.4700
 9100TIP3   OH251494   7.113   0.270  10.094 -0.1812  0.2847 -0.6625
 9100TIP3    H151495   7.073   0.218  10.164  1.0645 -2.6106 -1.9480
 9100TIP3    H251496   7.058   0.348  10.088 -1.5031 -0.2936  2.1527
 9101TIP3   OH251497   7.426   3.217  13.010 -0.1501 -0.0274 -0.3212
 9101TIP3    H151498   7.342   3.188  13.045 -1.8981  0.2024 -3.8405
 9101TIP3    H251499   7.419   3.313  13.006  0.9222  0.1154  0.6820
 9102TIP3   OH251500   0.887   4.440  11.257  0.0728 -0.6532  0.5233
 9102TIP3    H151501   0.840   4.512  11.215 -0.5187 -1.5195 -0.3451
 9102TIP3    H251502   0.844   4.428  11.341 -0.4699 -0.6399  0.2507
 9103TIP3   OH251503   1.063   4.753  11.616 -0.0755  0.0720 -0.2577
 9103TIP3    H151504   1.057   4.713  11.530 -2.0764 -1.9944  0.7550
 9103TIP3    H251505   1.052   4.847  11.600 -3.0480 -0.4572 -2.0683
 9104TIP3   OH251506   5.310   3.833  10.836 -0.0137  0.2033  0.2218
 9104TIP3    H151507   5.384   3.801  10.889 -0.3504 -1.7710 -0.4317
 9104TIP3    H251508   5.240   3.771  10.853  0.0656 -0.9508 -3.0041
 9105TIP3   OH251509   2.458   1.903  11.574  0.3053  0.5852 -0.0584
 9105TIP3    H151510   2.527   1.956  11.613 -0.9443  0.9195  1.8833
 9105TIP3    H251511   2.448   1.829  11.634 -0.1461 -0.1176 -0.9887
 9106TIP3   OH251512   3.928   1.146  11.324  0.8590 -0.0287 -0.2718
 9106TIP3    H151513   3.883   1.210  11.379  1.6796  0.0415  0.3447
 9106TIP3    H251514   3.889   1.156  11.238 -1.3527 -1.0126  0.5581
 9107TIP3   OH251515   4.704   1.268  12.128  0.3863  0.4516 -0.3532
 9107TIP3    H151516   4.783   1.234  12.170 -0.8440 -0.9088  0.9601
 9107TIP3    H251517   4.675   1.196  12.071 -1.8112 -0.5615  1.8599
 9108TIP3   OH251518   6.304   1.596  10.841  0.2158  0.0516  0.0319
 9108TIP3    H151519   6.379   1.570  10.895  0.5527  2.4513  0.8501
 9108TIP3    H251520   6.232   1.540  10.871  0.5098  0.9360  2.6997
 9109TIP3   OH251521   0.466   5.379  13.380 -0.0286 -0.1228 -0.0965
 9109TIP3    H151522   0.504   5.363  13.293  0.3321 -0.3013  0.0917
 9109TIP3    H251523   0.509   5.315  13.437 -0.9442 -0.6395  0.0387
 9110TIP3   OH251524   0.300   1.840  12.183  0.4971 -0.2205  0.1239
 9110TIP3    H151525   0.388   1.860  12.216  0.4736 -0.1377  0.1355
 9110TIP3    H251526   0.313   1.766  12.124  0.9553  1.2990 -1.7915
 9111TIP3   OH251527   2.919   4.485  10.688 -0.4761 -0.3045 -1.0049
 9111TIP3    H151528   2.829   4.494  10.719 -0.4922  1.7177 -1.4972
 9111TIP3    H251529   2.944   4.573  10.662  1.6931 -0.8101 -0.8072
 9112TIP3   OH251530   5.114   6.643  10.732 -0.1940  0.7093 -0.7349
 9112TIP3    H151531   5.121   6.718  10.792 -0.3660  0.0688  0.0994
 9112TIP3    H251532   5.167   6.575  10.772  1.1429  0.8070 -2.2210
 9113TIP3   OH251533   6.527   6.296  11.968  0.2154  0.2045  0.0537
 9113TIP3    H151534   6.446   6.256  11.936 -1.0012  1.1432  1.7484
 9113TIP3    H251535   6.561   6.232  12.031  0.6684 -0.0741 -0.4669
 9114TIP3   OH251536   1.452   6.986  11.732 -0.2798  0.1619  0.4318
 9114TIP3    H151537   1.508   7.064  11.736  0.8492 -0.6271  0.2658
 9114TIP3    H251538   1.373   7.011  11.781 -0.3125  1.6996 -0.3202
 9115TIP3   OH251539   5.705   0.855  12.173  0.0583 -0.2639 -0.3618
 9115TIP3    H151540   5.713   0.938  12.221  0.6460  0.1659 -1.1713
 9115TIP3    H251541   5.780   0.803  12.203 -0.9487 -1.0046  1.0271
 9116TIP3   OH251542   4.969   5.182  10.673 -0.3332  0.1845 -0.1795
 9116TIP3    H151543   5.061   5.171  10.697 -0.6440  0.7508  1.3892
 9116TIP3    H251544   4.933   5.236  10.743 -1.7052  0.5447 -1.1374
 9117TIP3   OH251545   3.846   2.957  11.323 -0.7576 -0.5239 -0.2386
 9117TIP3    H151546   3.840   2.934  11.415 -1.7036  0.1429 -0.1133
 9117TIP3    H251547   3.909   2.895  11.286 -1.1421 -1.4544  0.6358
 9118TIP3   OH251548   1.802   3.604  11.297  0.1511  0.3624 -0.3803
 9118TIP3    H151549   1.869   3.664  11.264 -1.4376  2.4927  0.0008
 9118TIP3    H251550   1.747   3.585  11.220  0.7502 -0.7704 -0.5349
 9119TIP3   OH251551  -0.125   6.122  12.035 -0.6521  0.3976  0.0450
 9119TIP3    H151552  -0.146   6.150  12.124 -3.5404  0.2713 -0.5003
 9119TIP3    H251553  -0.124   6.203  11.984  0.0965  0.3786  0.0213
 9120TIP3   OH251554   0.607   1.007  11.313  0.4866  0.5912 -0.1937
 9120TIP3    H151555   0.539   1.045  11.258 -0.1639  1.9171  1.4300
 9120TIP3    H251556   0.680   0.991  11.254 -0.6949  0.5046 -1.7016
 9121TIP3   OH251557   7.226   2.107  10.202 -0.3355  0.3780  0.1892
 9121TIP3    H151558   7.147   2.130  10.154 -0.2869  0.7596  0.2879
 9121TIP3    H251559   7.246   2.184  10.254 -1.2640 -0.5606  2.0229
 9122TIP3   OH251560   0.015   0.262  10.575 -0.1522 -0.9746 -0.2367
 9122TIP3    H151561   0.007   0.263  10.670  1.1958  1.4745 -0.0745
 9122TIP3    H251562   0.045   0.350  10.552  1.5551 -2.0961 -2.7548
 9123TIP3   OH251563   2.244   2.880  13.455  0.0262 -0.0727 -0.1885
 9123TIP3    H151564   2.339   2.886  13.464 -0.0276  0.6426 -0.0073
 9123TIP3    H251565   2.230   2.802  13.401  0.7711  0.4230 -1.1417
 9124TIP3   OH251566   0.808   2.959  12.470  0.0146  0.0197 -0.2012
 9124TIP3    H151567   0.754   2.883  12.448 -0.9349  0.3480  0.9041
 9124TIP3    H251568   0.750   3.034  12.460 -0.4014  0.2305  2.8526
 9125TIP3   OH251569   1.583   0.120  10.768 -0.3888  0.3549 -0.1275
 9125TIP3    H151570   1.590   0.182  10.840 -0.3691  0.6632 -0.3957
 9125TIP3    H251571   1.621   0.165  10.693 -0.5940  0.1138 -0.3789
 9126TIP3   OH251572   1.147   3.528  12.384  0.3389 -0.1566 -0.2826
 9126TIP3    H151573   1.202   3.530  12.462  0.8014 -0.4163 -0.5987
 9126TIP3    H251574   1.058   3.536  12.417  0.5172 -0.5050  0.2873
 9127TIP3   OH251575   4.491   1.437  11.219  0.4040 -0.0291 -0.7384
 9127TIP3    H151576   4.522   1.388  11.143  1.3170  0.6133 -0.8048
 9127TIP3    H251577   4.550   1.412  11.290 -0.3652 -0.5297 -0.2623
 9128TIP3   OH251578   1.191   0.840  11.521  0.0252  0.0636 -0.4407
 9128TIP3    H151579   1.164   0.762  11.570  0.7604 -0.4882 -0.9011
 9128TIP3    H251580   1.286   0.837  11.523  0.0964 -0.5126 -2.7397
 9129TIP3   OH251581   0.091   3.741  10.568 -0.0686 -0.2939  0.7693
 9129TIP3    H151582   0.174   3.693  10.571 -0.5344 -1.3560 -1.2137
 9129TIP3    H251583   0.048   3.720  10.650  0.0315 -2.8419  0.2747
 9130TIP3   OH251584   6.296   3.205  11.737 -0.6363 -0.4372  0.1710
 9130TIP3    H151585   6.224   3.223  11.798 -0.5910  2.7146 -0.5069
 9130TIP3    H251586   6.375   3.230  11.785 -0.2236 -1.4840  0.0561
 9131TIP3   OH251587   6.864   6.697  12.801  0.3806  0.4275 -0.8755
 9131TIP3    H151588   6.815   6.717  12.721  1.4504  0.6961 -1.4711
 9131TIP3    H251589   6.941   6.648  12.772  1.3235  1.4245 -0.1343
 9132TIP3   OH251590   7.326   7.097  10.816 -0.3046 -0.2312 -0.5460
 9132TIP3    H151591   7.412   7.105  10.776  0.5664 -0.0294  1.2636
 9132TIP3    H251592   7.343   7.056  10.901 -2.1536 -1.4065 -0.6879
 9133TIP3   OH251593   1.811   1.255  10.888 -0.2309  0.3006 -0.5910
 9133TIP3    H151594   1.860   1.265  10.806 -0.4482 -1.9875 -1.0723
 9133TIP3    H251595   1.730   1.303  10.873 -0.4729 -0.4580 -1.9446
 9134TIP3   OH251596   2.423   0.243  11.996  0.1376  0.8010 -0.2181
 9134TIP3    H151597   2.411   0.263  11.903 -1.7240 -1.5705 -0.5790
 9134TIP3    H251598   2.362   0.300  12.042 -1.0409 -0.0166 -0.7340
 9135TIP3   OH251599   4.436   3.967  10.781 -0.0264 -0.2426 -0.1019
 9135TIP3    H151600   4.489   3.973  10.860 -1.3305  1.0997  0.7239
 9135TIP3    H251601   4.426   4.057  10.751 -3.2386 -0.1612  0.8057
 9136TIP3   OH251602   4.644   1.335  12.419  0.4939 -0.1932  0.6232
 9136TIP3    H151603   4.558   1.374  12.404  0.2565 -1.1057 -0.5897
 9136TIP3    H251604   4.676   1.314  12.331  1.2978 -1.2401  1.1494
 9137TIP3   OH251605   5.793   3.960  11.990 -0.1589 -0.5347  0.1245
 9137TIP3    H151606   5.783   3.873  12.029  0.3318 -1.1093 -1.0021
 9137TIP3    H251607   5.759   4.020  12.057  0.9059 -1.4607  1.5439
 9138TIP3   OH251608   6.664   5.535  11.899 -0.0532 -0.1900  0.5519
 9138TIP3    H151609   6.688   5.609  11.843 -0.4442 -0.4749 -0.0080
 9138TIP3    H251610   6.741   5.478  11.897 -0.3160 -0.5274 -0.2613
 9139TIP3   OH251611   3.168   5.489  12.515  0.0123 -0.2047 -0.3423
 9139TIP3    H151612   3.175   5.510  12.422  0.1724  0.4603 -0.1815
 9139TIP3    H251613   3.225   5.552  12.559  0.4574 -0.9317  0.1573
 9140TIP3   OH251614   0.414   1.593  10.597  0.0035  0.3611  0.6318
 9140TIP3    H151615   0.451   1.527  10.538 -0.2529 -0.1572  1.0381
 9140TIP3    H251616   0.397   1.668  10.541  3.1901  1.2832  0.7098
 9141TIP3   OH251617   1.421   6.025  13.194  0.7611  0.3853 -0.2516
 9141TIP3    H151618   1.439   6.005  13.102  0.7118 -0.1878 -0.1420
 9141TIP3    H251619   1.438   6.118  13.202 -0.8377  0.7974 -1.2323
 9142TIP3   OH251620   0.771   4.477  11.509 -0.1061  0.2225  0.1887
 9142TIP3    H151621   0.696   4.422  11.487  0.1462  0.2953 -0.8829
 9142TIP3    H251622   0.734   4.564  11.521 -0.2318  0.1964 -0.0091
 9143TIP3   OH251623   5.352   4.547  11.711 -0.1725  0.0719 -0.3279
 9143TIP3    H151624   5.343   4.642  11.720  1.0772  0.2734 -0.9222
 9143TIP3    H251625   5.412   4.522  11.781 -0.4545 -0.2721 -0.2096
 9144TIP3   OH251626   6.577   3.594  12.142  0.1487 -0.2322  0.1440
 9144TIP3    H151627   6.526   3.675  12.146  0.6321  0.1258 -0.7202
 9144TIP3    H251628   6.575   3.569  12.049  2.3000  0.2938 -0.0767
 9145TIP3   OH251629   4.134   5.526  10.586 -0.0757  0.4223  0.1296
 9145TIP3    H151630   4.055   5.483  10.618  0.6802 -0.8193  0.3754
 9145TIP3    H251631   4.138   5.608  10.635 -0.9561  0.2825  0.4515
 9146TIP3   OH251632   7.326   3.042  11.107  0.1582  0.1575  0.2541
 9146TIP3    H151633   7.261   3.034  11.177 -0.1881 -1.8827 -0.2223
 9146TIP3    H251634   7.357   2.952  11.094  1.1904  0.7028 -1.2997
 9147TIP3   OH251635   7.166   4.455  11.691  0.3973 -0.3754 -0.1538
 9147TIP3    H151636   7.177   4.365  11.723  1.5882  1.0099  3.8645
 9147TIP3    H251637   7.107   4.496  11.754  0.5931  1.9177 -1.3776
 9148TIP3   OH251638   5.254   7.638  12.202  0.2862 -0.0624  0.2941
 9148TIP3    H151639   5.164   7.633  12.235  0.0336  0.8577 -0.2122
 9148TIP3    H251640   5.269   7.553  12.161  0.6097 -1.2424  2.7057
 9149TIP3   OH251641   6.757   5.080  10.913 -0.1951 -0.0584  0.0329
 9149TIP3    H151642   6.714   5.060  10.996  1.2944 -1.6923  0.4928
 9149TIP3    H251643   6.843   5.039  10.921  1.5376  3.1157 -0.7936
 9150TIP3   OH251644   0.592   5.568  11.875 -0.4967  0.4594  0.8950
 9150TIP3    H151645   0.663   5.631  11.886  0.9541 -1.0296  0.6323
 9150TIP3    H251646   0.616   5.495  11.932  0.6243 -2.0093 -2.3654
 9151TIP3   OH251647   4.467   2.585  12.028 -0.5863 -1.1137  0.3762
 9151TIP3    H151648   4.488   2.541  11.946 -2.1215 -1.0994 -0.0640
 9151TIP3    H251649   4.446   2.515  12.089 -0.1271 -1.0980  0.5537
 9152TIP3   OH251650   3.609   5.850  12.771 -0.0413 -0.1659  0.0324
 9152TIP3    H151651   3.571   5.781  12.825  1.4729  0.0007  1.4078
 9152TIP3    H251652   3.553   5.926  12.786  0.1308 -0.2306  1.1223
 9153TIP3   OH251653   1.389   1.559  12.314 -0.2343  0.7621 -0.4815
 9153TIP3    H151654   1.400   1.654  12.311 -0.3525  0.7601 -1.2244
 9153TIP3    H251655   1.453   1.526  12.250  0.5022  0.2698  0.4668
 9154TIP3   OH251656   4.146   6.554  11.556 -0.0125 -0.0488  0.4509
 9154TIP3    H151657   4.061   6.598  11.552 -1.5715 -2.8775 -0.3347
 9154TIP3    H251658   4.169   6.553  11.649 -2.2481 -1.5782  1.0643
 9155TIP3   OH251659   0.188   3.584  12.503  0.0005  0.3520 -0.0798
 9155TIP3    H151660   0.262   3.552  12.453 -0.3118  1.0786 -1.0426
 9155TIP3    H251661   0.155   3.508  12.551 -0.9702 -0.9024 -2.5718
 9156TIP3   OH251662   2.319   3.186  11.439 -0.4248  0.3375 -0.2577
 9156TIP3    H151663   2.335   3.201  11.346  3.0504 -0.0188  0.1427
 9156TIP3    H251664   2.349   3.096  11.454 -0.0542  0.7161  1.3703
 9157TIP3   OH251665   3.412   4.026  11.782 -0.7254  0.2202 -0.2438
 9157TIP3    H151666   3.458   4.054  11.703  0.5531 -1.4575 -0.1382
 9157TIP3    H251667   3.481   4.003  11.843 -1.7064 -1.0154  0.4348
 9158TIP3   OH251668   7.147   4.872  11.983  0.0029  0.4554  0.6194
 9158TIP3    H151669   7.186   4.786  11.991  1.7207  1.0332 -1.0473
 9158TIP3    H251670   7.206   4.930  12.031  0.0363  1.0117 -0.0754
 9159TIP3   OH251671   5.024   4.762  11.404 -0.2914 -0.3926  0.2353
 9159TIP3    H151672   5.119   4.749  11.405 -0.2525 -0.1142  0.4004
 9159TIP3    H251673   5.010   4.835  11.344 -0.1047  1.6669  2.5372
 9160TIP3   OH251674   0.840   5.684  11.267 -0.8701 -0.0492 -0.1463
 9160TIP3    H151675   0.896   5.756  11.296 -0.5196 -0.4524  0.1868
 9160TIP3    H251676   0.756   5.726  11.248 -0.8657  0.3620  0.6575
 9161TIP3   OH251677   6.508   0.432  11.854  0.0217  0.1145 -0.2324
 9161TIP3    H151678   6.561   0.383  11.791  0.6026  0.8184 -0.3099
 9161TIP3    H251679   6.460   0.495  11.800  1.9626  2.0570  0.1161
 9162TIP3   OH251680   4.159   2.357  11.454  0.5180 -0.1841 -0.0803
 9162TIP3    H151681   4.205   2.424  11.404  0.4099 -0.4589 -0.5584
 9162TIP3    H251682   4.193   2.365  11.543  0.5912  0.4220 -0.1603
 9163TIP3   OH251683   2.313   5.821  12.378 -0.2170 -0.0053 -0.1780
 9163TIP3    H151684   2.321   5.738  12.331  0.7681  0.9228 -1.7394
 9163TIP3    H251685   2.224   5.820  12.415  0.5367 -2.7372  1.8769
 9164TIP3   OH251686   4.008   5.921  10.950 -0.2485 -0.3901  0.5851
 9164TIP3    H151687   4.046   5.877  11.027 -0.5767 -0.2490  0.8332
 9164TIP3    H251688   3.914   5.911  10.961 -0.4210  1.7077  1.4771
 9165TIP3   OH251689   3.194   5.848  11.162 -0.4263 -0.1468 -0.2552
 9165TIP3    H151690   3.134   5.793  11.111 -0.0790 -0.9304  0.1580
 9165TIP3    H251691   3.139   5.883  11.233 -0.3041 -1.2939  0.4375
 9166TIP3   OH251692   7.039   4.839  13.025 -0.5915  0.0549 -0.1114
 9166TIP3    H151693   7.085   4.799  12.951  0.0430  1.2872 -0.4178
 9166TIP3    H251694   6.965   4.884  12.985 -0.5230  0.3144  0.0532
 9167TIP3   OH251695   1.029   0.666  12.024  0.1920  0.6076 -0.2809
 9167TIP3    H151696   0.973   0.612  11.967 -0.3270  0.6362  0.1887
 9167TIP3    H251697   1.116   0.660  11.985 -0.1332  0.5414 -1.0180
 9168TIP3   OH251698   3.098   1.631  10.954 -0.3182  0.5979  0.2292
 9168TIP3    H151699   3.105   1.645  10.859  0.2206 -0.1980  0.1362
 9168TIP3    H251700   3.005   1.614  10.969 -0.5789  1.7747  0.0028
 9169TIP3   OH251701   6.640   5.618  12.771  0.0478  0.3811  0.2010
 9169TIP3    H151702   6.640   5.576  12.857 -0.8990 -2.1238 -0.9282
 9169TIP3    H251703   6.720   5.671  12.771  0.8358 -0.6799  2.1033
 9170TIP3   OH251704   5.050   1.791  12.274 -0.3391 -0.7129  0.1548
 9170TIP3    H151705   5.137   1.826  12.290 -0.2400 -0.9514  0.1440
 9170TIP3    H251706   5.029   1.817  12.184 -0.9715  0.7849  0.6994
 9171TIP3   OH251707   0.539   2.203  12.046  0.1773 -0.2764 -0.2149
 9171TIP3    H151708   0.540   2.202  12.142 -1.9741 -2.1165 -0.1357
 9171TIP3    H251709   0.622   2.162  12.021  0.9627  0.6044  0.8088
 9172TIP3   OH251710   3.203   4.886  12.541  0.4954  0.7768 -0.5987
 9172TIP3    H151711   3.280   4.878  12.597  0.0417 -1.6969 -0.2131
 9172TIP3    H251712   3.140   4.935  12.593  1.1442  1.1757 -0.1814
 9173TIP3   OH251713   7.585   6.591  12.990  0.4549  0.4787 -0.2310
 9173TIP3    H151714   7.662   6.588  12.932 -0.1839 -0.3048 -1.0586
 9173TIP3    H251715   7.608   6.656  13.056  1.9378  0.0854 -0.3180
 9174TIP3   OH251716   6.030   6.365  12.207  0.0362  0.6638  0.0677
 9174TIP3    H151717   6.057   6.370  12.115  1.0407 -0.1814  0.3020
 9174TIP3    H251718   6.012   6.455  12.232  0.4161  0.9787 -0.7732
 9175TIP3   OH251719   4.436   3.899  11.545  0.1625 -0.1457  0.0013
 9175TIP3    H151720   4.472   3.914  11.458 -0.6413 -0.0661 -0.3234
 9175TIP3    H251721   4.346   3.931  11.540 -0.3708 -1.5022  0.4306
 9176TIP3   OH251722   6.088   7.340  11.368 -0.1790 -0.0620 -0.0318
 9176TIP3    H151723   6.100   7.395  11.445 -2.6792  1.0328 -0.3309
 9176TIP3    H251724   6.135   7.386  11.298  2.3736 -1.2259  0.8022
 9177TIP3   OH251725   1.734   4.405  11.932 -0.4433  0.1300  0.0913
 9177TIP3    H151726   1.774   4.366  12.009  2.3261  1.7730 -0.3885
 9177TIP3    H251727   1.647   4.432  11.960 -0.2523 -1.1263  2.0211
 9178TIP3   OH251728   4.029   0.536  11.767  0.4260  0.0929 -0.0424
 9178TIP3    H151729   4.039   0.560  11.675  0.1324 -1.6688 -0.5755
 9178TIP3    H251730   3.949   0.580  11.795 -0.4705 -0.7579 -1.1657
 9179TIP3   OH251731   1.057   3.642  11.428 -0.3249  0.4677  0.5126
 9179TIP3    H151732   0.972   3.660  11.469 -0.4267  2.0091 -0.3210
 9179TIP3    H251733   1.081   3.724  11.386  0.0575 -0.8478 -2.0044
 9180TIP3   OH251734   4.161   3.515  11.332 -0.6270  0.4988  0.1073
 9180TIP3    H151735   4.125   3.469  11.408  0.6801  1.5202  1.3927
 9180TIP3    H251736   4.086   3.525  11.273 -1.7629  0.0115  1.3978
 9181TIP3   OH251737   2.733   7.120  12.243  0.2919  0.7829 -0.2125
 9181TIP3    H151738   2.727   7.111  12.148 -0.4332 -0.4503 -0.0630
 9181TIP3    H251739   2.693   7.041  12.277  0.9229  1.0205  1.1260
 9182TIP3   OH251740   6.182   0.629  10.830  0.2599  0.6931  0.0134
 9182TIP3    H151741   6.247   0.691  10.865 -0.6358  1.0226  1.1628
 9182TIP3    H251742   6.194   0.550  10.883 -1.8543  1.5662  1.9711
 9183TIP3   OH251743   4.637   3.905  12.290 -0.2056  0.5685  0.1018
 9183TIP3    H151744   4.574   3.948  12.233 -1.9272 -0.4052  1.1895
 9183TIP3    H251745   4.618   3.811  12.282  0.9351  0.2567  0.6553
 9184TIP3   OH251746   1.971   5.462  10.969  0.2983  0.4939 -0.0612
 9184TIP3    H151747   1.875   5.461  10.976  0.3613  1.1264  1.2880
 9184TIP3    H251748   1.988   5.458  10.876 -1.0582  0.5365 -0.3395
 9185TIP3   OH251749   5.471   6.994  12.314 -0.4264 -0.1525 -0.1113
 9185TIP3    H151750   5.437   6.936  12.383 -0.6084 -1.3549 -1.1619
 9185TIP3    H251751   5.566   6.991  12.326 -0.3433 -1.6903 -0.8924
 9186TIP3   OH251752   6.700   1.935  11.257 -0.2829  0.1666  0.1648
 9186TIP3    H151753   6.716   2.019  11.299  0.9580  0.7060 -1.3160
 9186TIP3    H251754   6.777   1.882  11.277  0.5707  0.5995 -1.7417
 9187TIP3   OH251755   1.484   1.423  10.934 -0.3014  0.0551  0.1785
 9187TIP3    H151756   1.427   1.407  11.010  0.2820 -0.6046  0.4926
 9187TIP3    H251757   1.439   1.382  10.861  0.0479 -0.9953  0.5393
 9188TIP3   OH251758  -0.016   4.183  10.920 -0.4714 -0.1228 -0.1129
 9188TIP3    H151759  -0.082   4.228  10.867  1.6846  1.6384 -1.4718
 9188TIP3    H251760   0.004   4.245  10.991 -0.7684 -0.9600  0.7245
 9189TIP3   OH251761   2.317   3.664  10.827  0.3437  0.4093 -0.1231
 9189TIP3    H151762   2.306   3.678  10.733  0.2713 -0.2961 -0.2193
 9189TIP3    H251763   2.405   3.627  10.835  0.5314  0.9003  0.1343
 9190TIP3   OH251764   1.890   5.926  10.770  0.3139  0.0605 -0.2543
 9190TIP3    H151765   1.914   5.833  10.772 -0.0289 -0.1851 -3.0270
 9190TIP3    H251766   1.795   5.926  10.771  0.2953  0.2952 -1.2778
 9191TIP3   OH251767   3.833   2.635  11.433 -0.3513 -0.1232 -0.1780
 9191TIP3    H151768   3.748   2.647  11.475 -1.8315 -1.9958 -2.3791
 9191TIP3    H251769   3.853   2.542  11.445 -0.8816 -0.7953 -3.3779
 9192TIP3   OH251770   0.815   2.146  12.017 -0.4808 -0.6098 -0.6242
 9192TIP3    H151771   0.880   2.156  11.947 -1.8415  0.6071 -1.7765
 9192TIP3    H251772   0.862   2.101  12.087  1.8209  0.8613 -1.1189
 9193TIP3   OH251773   6.765   3.234  12.076 -0.3028 -0.2183  0.5381
 9193TIP3    H151774   6.726   3.313  12.114 -0.7265 -0.7060  1.1451
 9193TIP3    H251775   6.822   3.266  12.006 -3.0263  0.4416 -1.5255
 9194TIP3   OH251776   7.330   6.752  13.152 -0.0958 -0.3811  0.1564
 9194TIP3    H151777   7.398   6.780  13.214  0.5561  0.3189 -0.8527
 9194TIP3    H251778   7.377   6.739  13.069 -1.3326  1.0509 -0.8070
 9195TIP3   OH251779   7.308   0.166  12.117 -0.0430  0.4239 -0.2774
 9195TIP3    H151780   7.360   0.190  12.040  0.0429 -1.3012 -0.7937
 9195TIP3    H251781   7.247   0.239  12.129  0.0887  0.8172 -1.8450
 9196TIP3   OH251782   2.579   6.217  11.898  0.1979  0.1461  0.3151
 9196TIP3    H151783   2.575   6.247  11.989  0.1421 -1.4362  0.8631
 9196TIP3    H251784   2.488   6.215  11.869  0.1774  0.1941  0.3768
 9197TIP3   OH251785   5.873   2.467  10.667  0.1558  0.1885 -0.0887
 9197TIP3    H151786   5.871   2.386  10.617 -1.7711  1.1727 -1.7098
 9197TIP3    H251787   5.883   2.536  10.601 -1.0404  1.4391  0.9845
 9198TIP3   OH251788   2.989   0.479  13.091  0.5329  0.4353 -0.5841
 9198TIP3    H151789   3.070   0.530  13.095  0.7050  0.1029  0.6093
 9198TIP3    H251790   3.020   0.388  13.080  0.3326  0.2988 -0.0401
 9199TIP3   OH251791   6.136   2.034  10.668 -0.3359 -0.6785  0.0124
 9199TIP3    H151792   6.166   2.034  10.759  1.4707 -1.2146 -0.5311
 9199TIP3    H251793   6.044   2.009  10.673 -0.3071 -0.5502  1.7058
 9200TIP3   OH251794   5.171   1.121  12.125  0.9002 -0.2558  0.9340
 9200TIP3    H151795   5.178   1.077  12.040  1.9066  0.1727  0.7800
 9200TIP3    H251796   5.158   1.214  12.103  0.3444 -0.2577  1.2491
 9201TIP3   OH251797   0.996   5.447  12.510  0.1491  0.5249 -0.0225
 9201TIP3    H151798   0.901   5.454  12.501 -0.0750 -1.1149  0.6635
 9201TIP3    H251799   1.019   5.515  12.573 -0.7322  0.2515  0.6094
 9202TIP3   OH251800   3.039   2.950  10.840 -0.1434  0.0019  0.2692
 9202TIP3    H151801   2.974   2.937  10.909 -1.1213 -0.1114 -0.6471
 9202TIP3    H251802   3.079   3.035  10.861 -0.2852 -0.1237  1.0784
 9203TIP3   OH251803   7.453   0.413  10.504 -0.3927  0.7035 -0.1641
 9203TIP3    H151804   7.435   0.387  10.414 -0.9369 -0.9939  0.4151
 9203TIP3    H251805   7.511   0.345  10.538 -0.1250  1.3686  0.7496
 9204TIP3   OH251806   2.932   3.781  13.181 -0.2043 -0.4297 -0.1376
 9204TIP3    H151807   2.884   3.725  13.119 -1.5232 -0.9313  1.2502
 9204TIP3    H251808   2.943   3.725  13.258  0.2407  0.5870  0.5448
 9205TIP3   OH251809   0.338   7.258  11.959  0.0519 -0.1935 -0.1950
 9205TIP3    H151810   0.414   7.242  11.903  0.3048 -0.3300  0.1829
 9205TIP3    H251811   0.366   7.228  12.045  0.9167  3.0708  0.7955
 9206TIP3   OH251812   0.728   4.013  12.548  0.2541  0.1351  0.7876
 9206TIP3    H151813   0.772   3.928  12.545 -0.3360 -0.2381 -3.0117
 9206TIP3    H251814   0.761   4.060  12.471 -1.3647  2.3120  1.3067
 9207TIP3   OH251815   6.527   5.279  11.250  0.1434  0.3531 -0.0593
 9207TIP3    H151816   6.566   5.367  11.252  0.2561  0.3025 -0.0453
 9207TIP3    H251817   6.433   5.295  11.257  0.1960  0.4471  0.5347
 9208TIP3   OH251818   0.200   7.505  12.675 -0.2954 -0.0911 -0.9265
 9208TIP3    H151819   0.110   7.509  12.642 -0.7472 -1.8986  0.0053
 9208TIP3    H251820   0.243   7.439  12.620  0.0810 -0.2028 -0.4979
 9209TIP3   OH251821   4.677   6.546  11.562 -0.5501  0.2138 -0.2424
 9209TIP3    H151822   4.740   6.618  11.573 -0.8873  0.8815 -2.3581
 9209TIP3    H251823   4.592   6.588  11.569 -0.7565 -0.1415 -0.6289
 9210TIP3   OH251824   6.025   4.064  11.853 -0.4505 -0.0320 -0.1389
 9210TIP3    H151825   6.041   4.157  11.867 -0.6431  0.2075 -1.3823
 9210TIP3    H251826   5.945   4.045  11.903 -0.4187  0.4709  0.1040
 9211TIP3   OH251827   0.124   2.554  12.328  0.1519  0.0872  0.0961
 9211TIP3    H151828   0.053   2.595  12.280  0.3068 -0.4450 -0.6036
 9211TIP3    H251829   0.191   2.622  12.334  0.2613  0.0605 -0.7364
 9212TIP3   OH251830   4.499   3.637  13.134  0.0615  0.5607  0.5538
 9212TIP3    H151831   4.517   3.546  13.158  0.0417  0.8567  1.7319
 9212TIP3    H251832   4.586   3.676  13.123  0.0788  0.6292  0.9379
 9213TIP3   OH251833   0.789   7.653  12.103 -0.0684  0.4833  0.6807
 9213TIP3    H151834   0.736   7.578  12.132  0.1811  0.2208  0.4669
 9213TIP3    H251835   0.852   7.666  12.174  1.0667 -0.6730 -0.0687
 9214TIP3   OH251836   6.158   2.306  10.609 -0.2568 -0.1901 -0.1077
 9214TIP3    H151837   6.064   2.315  10.595 -0.4783 -0.2152  1.2640
 9214TIP3    H251838   6.173   2.211  10.612  0.2993 -0.3253 -3.0897
 9215TIP3   OH251839   3.042   5.959  11.391  0.2204 -0.0434  0.2910
 9215TIP3    H151840   2.961   5.971  11.341 -0.0052 -0.8642  0.4387
 9215TIP3    H251841   3.012   5.940  11.480  0.5627 -0.5972  0.2922
 9216TIP3   OH251842   1.381   5.802  12.539 -0.1582  0.0390  0.6836
 9216TIP3    H151843   1.413   5.770  12.623  0.8232  0.4160  0.4665
 9216TIP3    H251844   1.318   5.870  12.562 -0.3695 -0.2932  1.1128
 9217TIP3   OH251845   5.454   0.200  10.643  0.5089 -0.2194 -0.3672
 9217TIP3    H151846   5.369   0.199  10.600 -0.6430  0.4152  1.7646
 9217TIP3    H251847   5.469   0.292  10.666  2.3674 -0.1095 -1.7337
 9218TIP3   OH251848   1.607   2.320  11.205  0.2450  0.1008 -0.4011
 9218TIP3    H151849   1.588   2.414  11.205  1.3016  0.3537  1.3960
 9218TIP3    H251850   1.697   2.314  11.236 -0.4644 -1.6092  1.5306
 9219TIP3   OH251851   6.341   0.419  11.583  0.4535 -0.2822 -0.1371
 9219TIP3    H151852   6.282   0.400  11.655  0.8177  0.1864  0.2911
 9219TIP3    H251853   6.325   0.511  11.561  2.0161  0.2860  0.9417
 9220TIP3   OH251854   0.851   3.077  10.915 -0.0822 -0.3033  0.3168
 9220TIP3    H151855   0.822   3.111  11.000 -1.0028 -1.2855  0.4218
 9220TIP3    H251856   0.783   3.107  10.853 -0.8624 -1.8072  0.3970
 9221TIP3   OH251857   6.510   1.683  12.730  0.1688 -0.1233 -0.1950
 9221TIP3    H151858   6.484   1.689  12.822 -0.5176  2.3019 -0.4617
 9221TIP3    H251859   6.478   1.765  12.691 -0.9378 -1.7421 -2.9540
 9222TIP3   OH251860   2.462   3.706  12.376 -0.2087  0.1365 -0.0807
 9222TIP3    H151861   2.488   3.618  12.403 -2.0125 -0.1000  1.0397
 9222TIP3    H251862   2.540   3.742  12.332  0.5166 -2.0368 -0.6788
 9223TIP3   OH251863   3.287   1.723  12.781  0.1070 -0.6517  0.0996
 9223TIP3    H151864   3.334   1.641  12.792 -1.0046 -1.4008 -0.5710
 9223TIP3    H251865   3.340   1.788  12.829  0.6944 -1.8479  1.1259
 9224TIP3   OH251866   6.353   7.374  12.460 -0.5892 -0.1443  0.4185
 9224TIP3    H151867   6.297   7.331  12.396 -0.0778 -0.0635 -0.0915
 9224TIP3    H251868   6.293   7.428  12.511 -0.6649  2.4973 -2.1695
 9225TIP3   OH251869   1.705   2.343  12.680  0.0012 -0.2481 -0.4747
 9225TIP3    H151870   1.684   2.252  12.657 -2.1980  0.5066 -1.7941
 9225TIP3    H251871   1.624   2.377  12.719 -0.3573  2.0204 -2.9502
 9226TIP3   OH251872   6.948   0.508  12.082  0.1081  0.4009 -0.1634
 9226TIP3    H151873   6.961   0.588  12.134 -1.5073  0.7621 -0.2555
 9226TIP3    H251874   6.859   0.518  12.046  1.2470  0.3681 -3.3068
 9227TIP3   OH251875   0.330   5.228  11.914  0.4709  0.6175  0.5218
 9227TIP3    H151876   0.297   5.211  12.003 -2.2108 -0.7693 -0.6320
 9227TIP3    H251877   0.337   5.141  11.875  2.4591  1.1508 -0.3951
 9228TIP3   OH251878   2.242   6.591  13.154  0.0297 -0.4520  0.0348
 9228TIP3    H151879   2.271   6.638  13.232  0.4465  0.1207 -0.4511
 9228TIP3    H251880   2.148   6.578  13.167  0.2407 -1.0894  0.9961
 9229TIP3   OH251881   2.773   3.592  13.399  0.3521 -0.2555  0.4762
 9229TIP3    H151882   2.811   3.511  13.433  0.2548 -0.4418  0.1422
 9229TIP3    H251883   2.774   3.581  13.304 -0.4589 -0.2301  0.4615
 9230TIP3   OH251884   6.327   1.861  10.501 -0.4065  0.2814 -0.3818
 9230TIP3    H151885   6.288   1.775  10.514 -0.7028  0.5625  0.6578
 9230TIP3    H251886   6.274   1.920  10.555  0.9625  0.8020  0.4362
 9231TIP3   OH251887   6.699   0.411  11.219  0.2363 -0.0568  0.3348
 9231TIP3    H151888   6.775   0.353  11.223 -0.8690 -1.7173 -1.4330
 9231TIP3    H251889   6.648   0.388  11.297  0.0511 -1.1435 -0.0901
 9232TIP3   OH251890   3.024   6.559  10.693  0.3461 -0.3106 -0.4074
 9232TIP3    H151891   3.056   6.469  10.685  1.6429  0.1751 -0.8094
 9232TIP3    H251892   3.098   6.614  10.669 -0.4375  0.8816 -0.1982
 9233TIP3   OH251893   2.368   1.776  10.728  0.0770  0.1052  0.3123
 9233TIP3    H151894   2.389   1.855  10.678  1.7100 -1.7806 -2.2305
 9233TIP3    H251895   2.299   1.733  10.678  0.3133 -0.8523  0.7791
 9234TIP3   OH251896   3.066   5.464  11.729 -0.1362  0.0066 -0.5295
 9234TIP3    H151897   3.071   5.559  11.716  0.2295  0.0721  0.0848
 9234TIP3    H251898   3.112   5.448  11.811 -1.2368 -0.5725 -0.0068
 9235TIP3   OH251899   1.563   6.310  12.176 -0.6146  0.4573 -0.1098
 9235TIP3    H151900   1.597   6.398  12.158 -0.0664 -0.0106 -1.4565
 9235TIP3    H251901   1.482   6.326  12.225 -0.0216  1.6793  0.5166
 9236TIP3   OH251902   6.089   5.584  13.127  0.1669 -0.1359  0.2508
 9236TIP3    H151903   6.170   5.551  13.088  0.4651  1.4774 -0.5967
 9236TIP3    H251904   6.072   5.526  13.200  2.3155 -0.2807  0.7073
 9237TIP3   OH251905   2.928   4.075  12.071  0.2403  0.1717 -0.5513
 9237TIP3    H151906   2.988   4.141  12.109 -0.1161  1.0997 -1.5553
 9237TIP3    H251907   2.930   4.092  11.977 -1.3577  0.0162 -0.6393
 9238TIP3   OH251908   2.901   5.399  13.536 -0.0258 -0.2247  0.3023
 9238TIP3    H151909   2.812   5.430  13.517 -0.7301  0.5429  4.0663
 9238TIP3    H251910   2.889   5.319  13.586  1.4475 -0.4718  0.3098
 9239TIP3   OH251911   3.347   2.266  12.935  0.4153  0.6615  0.0864
 9239TIP3    H151912   3.326   2.299  12.847 -0.9106  1.6212  0.7278
 9239TIP3    H251913   3.302   2.325  12.994  0.1948 -0.7409  1.3893
 9240TIP3   OH251914   5.239   6.143  12.340  0.1542 -0.1626  0.1655
 9240TIP3    H151915   5.145   6.127  12.346  0.0734  0.5426  1.1141
 9240TIP3    H251916   5.265   6.166  12.430  1.4160 -1.2730  0.1093
 9241TIP3   OH251917   7.512   5.935  12.262 -0.7628  0.2041  0.3848
 9241TIP3    H151918   7.590   5.933  12.206  0.4589 -1.7278  2.0394
 9241TIP3    H251919   7.486   6.027  12.262  1.6215  0.9622 -0.1219
 9242TIP3   OH251920   1.571   5.448  11.218  0.0422 -0.3308  0.0692
 9242TIP3    H151921   1.530   5.394  11.286  0.6792 -1.5298 -0.4651
 9242TIP3    H251922   1.505   5.514  11.196 -0.1697  0.1011  1.8555
 9243TIP3   OH251923   4.926   6.849  11.284  0.0928  0.1544  0.2318
 9243TIP3    H151924   4.867   6.834  11.211  0.9161  1.0957 -0.6602
 9243TIP3    H251925   4.968   6.933  11.264  0.7411  0.1641  1.5130
 9244TIP3   OH251926   1.646   0.385  10.668  0.4027  0.3536  0.5910
 9244TIP3    H151927   1.587   0.393  10.743 -0.7244  3.1962 -0.4629
 9244TIP3    H251928   1.692   0.469  10.664  1.4224 -0.2418 -1.0959
 9245TIP3   OH251929   4.328   3.358  11.071  0.0502  0.1572 -0.2280
 9245TIP3    H151930   4.404   3.415  11.064  0.4567  0.1178  2.4607
 9245TIP3    H251931   4.254   3.412  11.043  0.7473  1.1573 -0.1956
 9246TIP3   OH251932   7.227   6.838  10.983 -0.3146 -1.2085 -0.2268
 9246TIP3    H151933   7.157   6.900  11.006 -0.4438 -0.5406 -2.1442
 9246TIP3    H251934   7.300   6.862  11.040 -1.3306 -1.3073  1.1680
 9247TIP3   OH251935   2.251   7.371  11.369 -0.0562 -0.1914  0.2435
 9247TIP3    H151936   2.214   7.356  11.456 -1.9454 -0.9963 -0.6540
 9247TIP3    H251937   2.339   7.404  11.387 -0.7186  0.6102  2.4789
 9248TIP3   OH251938   7.479   3.793  10.524 -0.1415  0.1305 -0.1231
 9248TIP3    H151939   7.571   3.801  10.496  0.7544  1.5651  2.7946
 9248TIP3    H251940   7.442   3.880  10.510  0.1508  0.7043  2.2035
 9249TIP3   OH251941   4.678   1.219  11.180  0.5077 -0.4554 -0.3457
 9249TIP3    H151942   4.738   1.196  11.252 -1.5456 -0.9419  1.2951
 9249TIP3    H251943   4.631   1.138  11.162 -1.1313  0.4183 -0.1275
 9250TIP3   OH251944   4.055   7.463  11.342  0.1801 -0.1931  0.0963
 9250TIP3    H151945   3.976   7.437  11.389  0.1974 -0.1499  0.1500
 9250TIP3    H251946   4.098   7.526  11.400  1.5594 -2.0780  1.2696
 9251TIP3   OH251947   1.818   2.075  11.904  0.3096 -0.0087 -0.3115
 9251TIP3    H151948   1.766   2.078  11.984  0.1560  1.7457 -0.4372
 9251TIP3    H251949   1.903   2.041  11.931 -0.3901 -1.4206  0.1814
 9252TIP3   OH251950   3.012   2.678  10.887 -0.1133  0.3048  0.1891
 9252TIP3    H151951   3.077   2.746  10.869  2.7535 -2.1242  0.6019
 9252TIP3    H251952   3.056   2.619  10.948 -2.2340 -2.1847 -0.5460
 9253TIP3   OH251953   6.333   1.333  10.444 -0.2610  0.0152 -0.4635
 9253TIP3    H151954   6.369   1.328  10.355  0.1122  0.3961 -0.3320
 9253TIP3    H251955   6.307   1.424  10.454  1.6684  0.5031  0.5872
 9254TIP3   OH251956   4.767   5.792  13.123 -0.7724  0.2031 -0.2605
 9254TIP3    H151957   4.758   5.697  13.133 -0.5561  0.3170  1.4681
 9254TIP3    H251958   4.679   5.823  13.100 -0.7047 -0.4719 -1.4489
 9255TIP3   OH251959   6.119   5.679  11.892  0.0312 -0.0978 -0.1732
 9255TIP3    H151960   6.083   5.767  11.887  0.2118  0.2026  2.4173
 9255TIP3    H251961   6.213   5.693  11.905 -0.0309 -0.6131  0.9546
 9256TIP3   OH251962   2.057   2.888  10.942 -0.1334 -0.0430 -0.4395
 9256TIP3    H151963   2.061   2.982  10.962 -0.4192 -0.1297  0.0600
 9256TIP3    H251964   2.102   2.846  11.015  0.5822 -0.2578 -1.0009
 9257TIP3   OH251965   3.716   2.868  12.465  0.1400 -0.2900  0.4103
 9257TIP3    H151966   3.632   2.909  12.487  0.9168  1.2260  0.7355
 9257TIP3    H251967   3.697   2.810  12.392 -0.9649  1.0343 -0.3864
 9258TIP3   OH251968   4.423   4.636  12.758  0.1374  0.5993  0.0464
 9258TIP3    H151969   4.481   4.560  12.754  0.4126  0.8204 -0.2212
 9258TIP3    H251970   4.383   4.641  12.672 -2.0640 -0.9167  0.8969
 9259TIP3   OH251971   3.691   0.558  11.280 -0.3178 -0.3421  0.1483
 9259TIP3    H151972   3.787   0.566  11.278 -0.3278 -0.3080 -0.4053
 9259TIP3    H251973   3.674   0.465  11.265 -0.3419 -0.6270  1.7258
 9260TIP3   OH251974   7.306   4.639  11.945  0.3858  0.3216 -0.0657
 9260TIP3    H151975   7.348   4.689  11.875 -0.6460  2.1835  0.5886
 9260TIP3    H251976   7.366   4.566  11.961  2.1108  1.4933 -0.8721
 9261TIP3   OH251977   0.231   5.695  12.522 -0.1103 -0.2414 -0.7247
 9261TIP3    H151978   0.253   5.602  12.533  0.1306 -0.2962 -1.5557
 9261TIP3    H251979   0.306   5.742  12.558 -0.3924 -0.3549  0.0314
 9262TIP3   OH251980   1.912   0.381  10.898  0.1692  0.3395  0.5754
 9262TIP3    H151981   1.889   0.374  10.806  0.6070  0.5066  0.4538
 9262TIP3    H251982   1.942   0.471  10.909 -0.1557  0.4077  0.9471
 9263TIP3   OH251983   2.318   0.118  12.594 -0.1118  0.5262 -0.2034
 9263TIP3    H151984   2.249   0.124  12.660  0.3243  1.5330  0.1854
 9263TIP3    H251985   2.400   0.123  12.645  0.2408  0.2532 -0.7334
 9264TIP3   OH251986   0.402   2.064  12.563 -0.5174  0.0350  1.0372
 9264TIP3    H151987   0.399   1.978  12.605 -2.7723 -1.2588 -1.4507
 9264TIP3    H251988   0.315   2.076  12.526  0.1314  2.8246  0.1450
 9265TIP3   OH251989   3.519   0.659  11.890  0.6248 -0.1422 -0.1127
 9265TIP3    H151990   3.442   0.699  11.932  1.3304  0.1852  0.8925
 9265TIP3    H251991   3.512   0.684  11.798 -0.2248  0.2722  0.0582
 9266TIP3   OH251992   7.530   5.209  12.132 -0.0156  0.8660 -0.0946
 9266TIP3    H151993   7.589   5.235  12.203  1.2389  2.2625 -1.5729
 9266TIP3    H251994   7.587   5.177  12.063 -1.2189 -0.4526 -0.5255
 9267TIP3   OH251995   2.507   4.287  10.600  0.1740  0.0013 -0.1784
 9267TIP3    H151996   2.535   4.369  10.559  0.8029 -0.2465 -0.2430
 9267TIP3    H251997   2.412   4.298  10.610 -0.1874 -0.3512 -2.6386
 9268TIP3   OH251998   0.501   0.278  12.658 -0.1940 -0.2060  0.1632
 9268TIP3    H151999   0.413   0.310  12.635 -0.7250 -0.5093  1.6455
 9268TIP3    H252000   0.486   0.189  12.689  0.5455 -0.0005  1.1274
 9269TIP3   OH252001   0.515   5.795  13.494  0.1863  0.2930  0.3339
 9269TIP3    H152002   0.457   5.783  13.419 -0.8346  0.0218  1.1422
 9269TIP3    H252003   0.464   5.847  13.556  1.2207  0.9961  0.6242
 9270TIP3   OH252004   0.915   3.545  11.875  0.1334 -0.1627  0.0781
 9270TIP3    H152005   0.853   3.535  11.804 -0.7823 -0.2392  0.8729
 9270TIP3    H252006   0.997   3.572  11.833 -0.9129  1.7626 -0.8077
 9271TIP3   OH252007   1.051   1.470  13.060  0.1352  0.0508 -0.4046
 9271TIP3    H152008   1.043   1.380  13.092  1.6533  0.8494  2.5927
 9271TIP3    H252009   0.961   1.502  13.056 -0.2791 -0.5120  2.2365
 9272TIP3   OH252010   3.829   7.488  11.663 -0.4108 -0.1857  0.5884
 9272TIP3    H152011   3.918   7.502  11.693 -0.4947 -1.6771  1.6160
 9272TIP3    H252012   3.779   7.560  11.702  0.0882 -0.1554  1.1893
 9273TIP3   OH252013   3.056   4.755  11.599  0.4997 -0.1073  0.2354
 9273TIP3    H152014   3.074   4.765  11.692 -0.0496  0.7493  0.2601
 9273TIP3    H252015   3.143   4.754  11.558  0.7952  4.0634  0.3409
 9274TIP3   OH252016   1.640   4.735  12.530 -0.5336  0.1733  0.3174
 9274TIP3    H152017   1.683   4.698  12.452  0.5583 -0.4836  1.1921
 9274TIP3    H252018   1.548   4.712  12.520 -0.2411 -0.8103 -0.2952
 9275TIP3   OH252019   0.976   1.477  11.317  0.0935  0.2646  0.5534
 9275TIP3    H152020   0.920   1.408  11.281  0.3505 -0.0561  0.7596
 9275TIP3    H252021   0.978   1.460  11.411  1.1199 -0.1713  0.4624
 9276TIP3   OH252022   7.106   7.485  12.954  0.0621  0.4251  0.3637
 9276TIP3    H152023   7.105   7.401  13.000 -3.6244 -0.6122 -1.2864
 9276TIP3    H252024   7.092   7.550  13.023  2.2817 -0.2547  1.5616
 9277TIP3   OH252025   7.088   6.175  12.769 -0.4036 -0.1735  1.4041
 9277TIP3    H152026   7.098   6.088  12.732 -0.5504  0.6427 -0.6521
 9277TIP3    H252027   6.995   6.193  12.763 -0.1998  0.6539  0.4967
 9278TIP3   OH252028   5.227   5.221  11.883 -0.0414  0.4015  0.0976
 9278TIP3    H152029   5.188   5.192  11.801 -0.1075 -2.6226  1.0827
 9278TIP3    H252030   5.319   5.233  11.862  0.1605 -1.4141 -0.2526
 9279TIP3   OH252031   2.682   5.728  11.054  0.2237  0.4463 -0.0160
 9279TIP3    H152032   2.762   5.734  11.106  1.3062 -0.2615 -1.5257
 9279TIP3    H252033   2.658   5.819  11.036  0.3808  0.6696  0.8763
 9280TIP3   OH252034   6.019   3.594  10.841 -0.0326 -0.7531 -0.6418
 9280TIP3    H152035   6.060   3.511  10.864 -0.0598 -0.9448 -1.2837
 9280TIP3    H252036   6.089   3.659  10.855 -0.0602 -0.8545  0.0129
 9281TIP3   OH252037   4.233   3.710  13.044  0.5240  0.1625 -0.1530
 9281TIP3    H152038   4.227   3.799  13.078 -1.5295 -0.6127  1.7431
 9281TIP3    H252039   4.317   3.677  13.077  0.4798  0.8193  0.6521
 9282TIP3   OH252040   1.857   6.835  10.934 -0.2815 -0.4591 -0.4288
 9282TIP3    H152041   1.819   6.921  10.919  0.7310  0.1717  0.4568
 9282TIP3    H252042   1.918   6.823  10.861  0.6014  0.2054  0.1763
 9283TIP3   OH252043   3.405   1.606  11.381 -0.1335 -0.1340 -0.0323
 9283TIP3    H152044   3.495   1.591  11.352 -0.3569 -1.1144 -0.2536
 9283TIP3    H252045   3.351   1.558  11.318 -0.8474  0.8123 -0.1681
 9284TIP3   OH252046   1.868   5.466  12.527  0.2669  0.0548  0.2711
 9284TIP3    H152047   1.961   5.484  12.509  0.8558 -0.6073  2.4191
 9284TIP3    H252048   1.824   5.546  12.498  1.6533  0.8779  0.2847
 9285TIP3   OH252049   7.194   3.176  13.141 -0.0979 -0.2503  0.9675
 9285TIP3    H152050   7.223   3.161  13.231 -2.1619  0.9162  1.8905
 9285TIP3    H252051   7.149   3.095  13.117  0.6272 -0.6401  0.8792
 9286TIP3   OH252052   4.059   2.863  10.923 -0.3775  0.4324  0.6223
 9286TIP3    H152053   4.033   2.954  10.910 -1.2694 -0.0391 -1.3283
 9286TIP3    H252054   4.039   2.845  11.015  0.4940  2.3802  1.2404
 9287TIP3   OH252055   0.286   6.433  11.385  0.1089  0.2092  0.3227
 9287TIP3    H152056   0.194   6.407  11.376 -0.3903  2.0262 -0.4045
 9287TIP3    H252057   0.287   6.525  11.357  2.1595  0.2225  0.3105
 9288TIP3   OH252058   1.778   2.553  10.951  0.4571  0.2629  0.1814
 9288TIP3    H152059   1.858   2.503  10.965  0.6639  0.2298 -1.0333
 9288TIP3    H252060   1.756   2.588  11.037  0.9104 -1.0151  0.8343
 9289TIP3   OH252061   7.283   2.619  12.397 -0.0526 -0.3320 -0.2363
 9289TIP3    H152062   7.254   2.596  12.308  0.9245  0.0789 -0.6722
 9289TIP3    H252063   7.213   2.586  12.454 -0.6666 -0.6532 -1.1491
 9290TIP3   OH252064   5.532   1.706  11.644  0.4400 -0.4831 -0.1916
 9290TIP3    H152065   5.602   1.759  11.608 -2.3996  3.9213  0.0631
 9290TIP3    H252066   5.542   1.713  11.739 -0.8630  1.2283 -0.1230
 9291TIP3   OH252067   7.113   1.012  11.762  0.2646 -0.4046 -0.1622
 9291TIP3    H152068   7.080   0.968  11.840  1.2714  1.1187  1.1964
 9291TIP3    H252069   7.045   0.998  11.696 -1.4220 -0.3820  1.4701
 9292TIP3   OH252070   5.397   2.645  10.517 -0.1939 -0.0466 -0.0409
 9292TIP3    H152071   5.469   2.697  10.482  0.7135 -0.8519  0.5814
 9292TIP3    H252072   5.366   2.694  10.592  0.2897 -0.1173  0.2104
 9293TIP3   OH252073   5.483   2.393  10.607 -0.3930 -0.4928  0.3741
 9293TIP3    H152074   5.441   2.477  10.627 -1.1583 -0.9249  0.6413
 9293TIP3    H252075   5.413   2.340  10.567  0.6900 -0.1997 -2.0656
 9294TIP3   OH252076   5.194   5.138  10.940  0.4571 -0.1668  0.1616
 9294TIP3    H152077   5.156   5.221  10.911  1.5236  0.3124  0.0622
 9294TIP3    H252078   5.122   5.076  10.938 -0.4845  0.8740  0.7272
 9295TIP3   OH252079   2.143   1.119  10.320  0.1785  0.5836 -0.1665
 9295TIP3    H152080   2.116   1.028  10.337  0.4369  0.3229 -1.0974
 9295TIP3    H252081   2.062   1.164  10.296  0.4406 -0.1495 -2.7610
 9296TIP3   OH252082   1.768   6.537  13.938  0.3962  0.2374 -0.0545
 9296TIP3    H152083   1.729   6.499  13.860 -1.2019 -0.1797  0.8948
 9296TIP3    H252084   1.850   6.490  13.949 -0.1456 -0.8580 -0.5674
 9297TIP3   OH252085   6.827   5.233  11.513  0.6722 -0.0240  0.6185
 9297TIP3    H152086   6.922   5.232  11.501  0.6279 -0.4462  0.2742
 9297TIP3    H252087   6.794   5.275  11.433  0.6442  1.4662  1.3743
 9298TIP3   OH252088   3.689   6.698  12.569  0.1435  0.7806  0.5645
 9298TIP3    H152089   3.720   6.697  12.478  0.0081  1.6275  0.5010
 9298TIP3    H252090   3.638   6.779  12.576  1.6051  1.6494  1.8669
 9299TIP3   OH252091   5.889   1.694  12.578  0.4831 -0.1878  0.0409
 9299TIP3    H152092   5.833   1.660  12.648  1.3709  0.1331  0.9200
 9299TIP3    H252093   5.863   1.643  12.501 -0.3238 -0.7365  0.6550
 9300TIP3   OH252094   6.130   2.903  11.704  0.0911 -0.1918 -0.0963
 9300TIP3    H152095   6.061   2.845  11.673  0.9832  0.5196 -3.9666
 9300TIP3    H252096   6.100   2.991  11.681  0.6361  0.5453  1.7899
 9301TIP3   OH252097   3.347   1.509  11.628 -0.0672  0.5620  0.0112
 9301TIP3    H152098   3.378   1.530  11.540  0.8948 -1.5579 -0.2248
 9301TIP3    H252099   3.335   1.414  11.628  0.8015  0.3640  2.4040
 9302TIP3   OH252100   2.085   3.092  12.425  0.4784  0.1031 -0.3329
 9302TIP3    H152101   2.003   3.116  12.381  1.4705 -1.2865 -3.1344
 9302TIP3    H252102   2.111   3.010  12.384  3.0424  0.2535  0.8311
 9303TIP3   OH252103   1.199   1.855  10.516  0.2125 -0.1434  0.5332
 9303TIP3    H152104   1.165   1.928  10.568 -0.9726 -2.0084  2.5880
 9303TIP3    H252105   1.122   1.800  10.500  0.5597  0.2632 -3.2377
 9304TIP3   OH252106   7.361   5.204  11.611 -0.0882  0.2599  0.5061
 9304TIP3    H152107   7.400   5.254  11.683  0.1583  0.7687  0.0291
 9304TIP3    H252108   7.378   5.113  11.633  2.4714  0.4704 -0.2756
 9305TIP3   OH252109   3.304   3.500  10.973 -0.0950 -1.0251 -0.1845
 9305TIP3    H152110   3.242   3.443  10.928  0.8807 -1.4938 -0.9633
 9305TIP3    H252111   3.386   3.452  10.971  1.0438  0.8435 -1.8827
 9306TIP3   OH252112   6.758   6.435  11.960  0.0997 -0.1175  0.4388
 9306TIP3    H152113   6.687   6.371  11.971  1.1958 -1.2452  1.3139
 9306TIP3    H252114   6.773   6.469  12.049 -0.6329  1.5962 -0.0499
 9307TIP3   OH252115   3.853   6.231  10.949 -0.5686  0.5221  0.1906
 9307TIP3    H152116   3.918   6.225  10.878 -0.3980 -2.4050  0.4995
 9307TIP3    H252117   3.906   6.245  11.028 -0.1033 -2.4863  0.5354
 9308TIP3   OH252118   4.240   2.109  11.588 -0.4499  0.4917  0.4417
 9308TIP3    H152119   4.265   2.181  11.530 -0.9778  0.0110 -0.3992
 9308TIP3    H252120   4.323   2.078  11.624  0.1479 -0.5054 -1.6195
 9309TIP3   OH252121   0.444   4.300  11.547  0.4149 -0.0668 -0.1576
 9309TIP3    H152122   0.511   4.309  11.615  0.6840 -0.4477 -0.3700
 9309TIP3    H252123   0.363   4.329  11.589  0.4394 -0.9951  0.5600
 9310TIP3   OH252124   5.589   5.319  11.885 -0.1853 -0.3227 -0.5801
 9310TIP3    H152125   5.515   5.276  11.843 -0.7342 -0.3008  0.3324
 9310TIP3    H252126   5.617   5.258  11.953  1.0401 -0.6056 -1.3065
 9311TIP3   OH252127   6.817   1.137  11.973 -0.1173 -0.1807 -0.4268
 9311TIP3    H152128   6.822   1.080  12.049  0.2763  1.3924  0.7771
 9311TIP3    H252129   6.768   1.213  12.003  1.8886  1.4609 -1.0705
 9312TIP3   OH252130   1.799   5.596  11.932  0.0399 -0.0290 -0.6703
 9312TIP3    H152131   1.726   5.656  11.946 -1.6238 -1.3609 -3.0679
 9312TIP3    H252132   1.758   5.511  11.914  2.1650 -0.8553 -2.0001
 9313TIP3   OH252133   1.098   1.747  13.105  0.0023  0.2340  0.2894
 9313TIP3    H152134   1.015   1.774  13.146 -0.5045  0.4025 -0.8045
 9313TIP3    H252135   1.087   1.653  13.089  0.4945  0.0135  1.1917
 9314TIP3   OH252136   1.251   2.363  13.124 -0.0119 -0.0105 -0.2011
 9314TIP3    H152137   1.271   2.453  13.098  0.3387 -0.1639 -0.4757
 9314TIP3    H252138   1.180   2.372  13.188  1.1164  0.5792  1.0110
 9315TIP3   OH252139   5.099   6.744  11.480 -0.1290  0.3483  0.2742
 9315TIP3    H152140   5.134   6.828  11.507 -0.6794  0.5107  0.4921
 9315TIP3    H252141   5.028   6.766  11.419 -0.1977  0.0454  0.2424
 9316TIP3   OH252142   0.467   3.150  11.106  0.4347  0.1503 -0.1464
 9316TIP3    H152143   0.470   3.058  11.081  0.9869  0.4938 -1.4445
 9316TIP3    H252144   0.392   3.186  11.059 -0.5374  0.1265  1.3219
 9317TIP3   OH252145   7.555   2.267  11.022  0.0353  0.5635 -0.3140
 9317TIP3    H152146   7.509   2.321  10.958 -0.2745 -0.3849 -0.9138
 9317TIP3    H252147   7.500   2.270  11.100  0.5749  1.9860  0.0282
 9318TIP3   OH252148   3.966   4.661  11.967  0.3773 -0.4198 -0.2495
 9318TIP3    H152149   3.979   4.650  12.061 -0.7609  1.3465  0.1618
 9318TIP3    H252150   4.022   4.594  11.927  2.6832  0.2642  1.6066
 9319TIP3   OH252151   7.286   0.025  13.123 -0.3066  0.0772 -0.2917
 9319TIP3    H152152   7.300  -0.064  13.156  1.8532  0.7396  0.7374
 9319TIP3    H252153   7.371   0.052  13.089 -1.1528  1.4476 -1.4286
 9320TIP3   OH252154   1.257   7.692  10.777 -0.3162  0.1052  0.2635
 9320TIP3    H152155   1.225   7.756  10.839  0.5510  0.6712  0.1422
 9320TIP3    H252156   1.344   7.724  10.750  0.0635 -1.0100  0.0666
 9321TIP3   OH252157   6.649   6.490  12.523 -0.2082 -0.2518 -0.3559
 9321TIP3    H152158   6.568   6.458  12.485  0.1011 -2.2695  0.5478
 9321TIP3    H252159   6.717   6.434  12.485  0.3944 -0.5436  1.1019
 9322TIP3   OH252160   4.703   4.351  10.922 -0.1167 -0.0390  0.0733
 9322TIP3    H152161   4.741   4.361  10.834 -1.4468  0.6753 -0.4398
 9322TIP3    H252162   4.774   4.312  10.974  0.9950  0.3707 -1.0820
 9323TIP3   OH252163   3.020   1.869  11.075  0.1119 -0.1505 -0.0880
 9323TIP3    H152164   2.928   1.884  11.094  0.4753  1.4422  0.5440
 9323TIP3    H252165   3.019   1.816  10.995 -1.3369  0.6421 -0.6377
 9324TIP3   OH252166   1.555   1.318  11.857 -0.2033 -0.1717 -0.6827
 9324TIP3    H152167   1.496   1.243  11.847 -2.4727  1.6592 -2.1562
 9324TIP3    H252168   1.600   1.325  11.773 -0.0854  0.1960 -0.5921
 9325TIP3   OH252169   7.044   6.223  11.224 -0.2302 -0.2665 -0.5551
 9325TIP3    H152170   6.993   6.292  11.180 -1.1926 -1.1957 -0.9323
 9325TIP3    H252171   7.133   6.259  11.230 -0.4512  0.5286 -1.7968
 9326TIP3   OH252172   5.522   1.986  12.968  0.0474 -0.3753 -0.0872
 9326TIP3    H152173   5.544   2.064  13.019  1.5259  0.0097 -1.2459
 9326TIP3    H252174   5.491   1.923  13.033 -0.1689  0.8093  1.0003
 9327TIP3   OH252175   0.329   5.247  10.915  0.6274 -0.0235 -0.5971
 9327TIP3    H152176   0.400   5.257  10.977 -0.3054 -1.6710  0.8293
 9327TIP3    H252177   0.341   5.159  10.879 -0.1981  0.0045 -0.9627
 9328TIP3   OH252178   4.424   5.355  11.942  0.2263  0.0270  0.4355
 9328TIP3    H152179   4.389   5.299  11.873  2.1452  1.9317 -2.3226
 9328TIP3    H252180   4.466   5.295  12.003  0.1557 -1.6720 -1.1094
 9329TIP3   OH252181   0.928   1.178  10.593  0.1750  0.1179  0.2828
 9329TIP3    H152182   0.998   1.138  10.645 -0.3659  0.9347  1.7015
 9329TIP3    H252183   0.970   1.202  10.511  1.1896 -0.7513  0.5262
 9330TIP3   OH252184   7.277   4.993  11.243 -0.4102  0.3494  0.9777
 9330TIP3    H152185   7.207   4.968  11.303 -0.7375 -1.1637  0.0157
 9330TIP3    H252186   7.321   4.911  11.221  1.7242  1.2551  1.5757
 9331TIP3   OH252187   0.535   4.341  12.451  0.1348  0.2048  0.3006
 9331TIP3    H152188   0.519   4.435  12.439  0.1446 -0.0738 -2.5775
 9331TIP3    H252189   0.629   4.336  12.470  0.4397  0.7368 -0.9303
 9332TIP3   OH252190   2.486   4.006  10.631 -0.0127 -0.0496 -0.0829
 9332TIP3    H152191   2.513   4.098  10.629 -1.6429  0.4736  0.2387
 9332TIP3    H252192   2.458   3.992  10.721 -2.9561  0.1676 -0.8635
 9333TIP3   OH252193   4.829   7.254  10.452 -0.1547 -0.7251  0.4987
 9333TIP3    H152194   4.821   7.342  10.487  0.1352 -0.6711  0.4253
 9333TIP3    H252195   4.757   7.247  10.389  0.4258 -0.1940 -0.2393
 9334TIP3   OH252196   6.422   1.006  11.257  0.1484 -0.8900 -0.0427
 9334TIP3    H152197   6.480   0.957  11.316  2.2509  0.3240 -0.9579
 9334TIP3    H252198   6.473   1.015  11.177 -1.8948 -0.8788 -1.4051
 9335TIP3   OH252199   5.847   1.309  12.433 -0.3033 -0.1693  0.0298
 9335TIP3    H152200   5.774   1.359  12.469 -0.1201 -0.1564  0.3849
 9335TIP3    H252201   5.894   1.275  12.509  0.1496 -0.0526 -0.1882
 9336TIP3   OH252202   2.372   1.522  11.409  0.4743  0.4988 -0.4711
 9336TIP3    H152203   2.295   1.555  11.454  0.1715  1.5869 -1.7184
 9336TIP3    H252204   2.337   1.458  11.346  0.5580  1.0729 -1.1142
 9337TIP3   OH252205   2.555   3.689  11.973  0.4273 -0.3419 -0.3812
 9337TIP3    H152206   2.587   3.676  12.063 -1.2320 -2.4184 -0.0085
 9337TIP3    H252207   2.624   3.739  11.930  2.5859 -1.7135  1.2615
 9338TIP3   OH252208   1.139   2.749  11.024  0.2014 -0.2293  0.1885
 9338TIP3    H152209   1.156   2.655  11.022  0.0144 -0.2563 -0.5432
 9338TIP3    H252210   1.166   2.777  11.111  0.4781 -0.9204  0.3292
 9339TIP3   OH252211   0.965   3.498  11.062 -0.0168  0.8375 -0.0562
 9339TIP3    H152212   0.921   3.435  11.120 -0.7377  1.3506 -0.0258
 9339TIP3    H252213   0.983   3.448  10.982 -1.1483  0.7383 -0.2747
 9340TIP3   OH252214   1.562   2.382  12.984 -0.1776 -0.2084  0.2513
 9340TIP3    H152215   1.515   2.459  13.015  0.2628 -0.6614  2.1623
 9340TIP3    H252216   1.513   2.352  12.908 -1.2893  1.0088  0.4690
 9341TIP3   OH252217   4.644   2.214  11.352  0.5903 -0.4460  0.1561
 9341TIP3    H152218   4.671   2.242  11.265 -3.3410  0.2072 -1.0458
 9341TIP3    H252219   4.647   2.119  11.349  0.2144 -0.4371 -0.7945
 9342TIP3   OH252220   1.101   6.797  13.685  0.4881  0.1076  0.1916
 9342TIP3    H152221   1.170   6.742  13.647  0.9837  0.8805 -0.0499
 9342TIP3    H252222   1.147   6.873  13.718 -0.2338  0.5491  0.1892
 9343TIP3   OH252223   3.876   7.215  12.240  0.1057 -0.6176  0.6503
 9343TIP3    H152224   3.917   7.285  12.188 -2.8307  1.8005  1.3336
 9343TIP3    H252225   3.926   7.215  12.322 -0.8489  2.0091  1.3411
 9344TIP3   OH252226   0.243   1.163  12.027  0.1007  0.8156  0.0487
 9344TIP3    H152227   0.311   1.119  11.977  0.3873  2.6493 -1.2694
 9344TIP3    H252228   0.224   1.103  12.100  2.2783 -0.2465 -0.1834
 9345TIP3   OH252229   4.035   1.311  12.265  0.1043 -0.8013 -0.2221
 9345TIP3    H152230   4.121   1.269  12.254  0.4577 -0.0114 -0.5534
 9345TIP3    H252231   3.981   1.274  12.196 -0.1987 -2.2112  0.7268
 9346TIP3   OH252232   3.246   5.988  13.264  0.2625 -0.0269  0.4088
 9346TIP3    H152233   3.259   5.919  13.329 -2.3192  0.3695  1.4741
 9346TIP3    H252234   3.221   6.065  13.316  0.6868  1.0378 -0.9079
 9347TIP3   OH252235   6.701   5.187  12.221 -0.1121  0.3961 -0.0252
 9347TIP3    H152236   6.726   5.246  12.149 -1.5672 -0.3429 -1.1973
 9347TIP3    H252237   6.608   5.204  12.234 -0.0963 -0.2282  1.0052
 9348TIP3   OH252238   2.279   3.053  10.724  0.0429  0.0872  0.1650
 9348TIP3    H152239   2.200   3.066  10.776 -1.0342 -0.8430 -1.1616
 9348TIP3    H252240   2.340   3.010  10.783 -0.4304  0.8064  1.2095
 9349TIP3   OH252241   3.147   1.679  11.703 -0.0816  0.0040  0.0194
 9349TIP3    H152242   3.218   1.616  11.706 -0.8904 -0.9237  0.1376
 9349TIP3    H252243   3.093   1.651  11.628  0.2784  1.3723 -0.7981
 9350TIP3   OH252244   2.029   1.673  11.859  0.0364  0.1948  0.2665
 9350TIP3    H152245   2.041   1.712  11.946 -0.2326  0.9899 -0.0414
 9350TIP3    H252246   2.117   1.677  11.820  0.0247  0.4434  0.2606
 9351TIP3   OH252247   2.697   4.920  12.754 -0.0042 -0.7595 -0.6080
 9351TIP3    H152248   2.677   4.827  12.768 -0.5910 -0.8867 -2.1030
 9351TIP3    H252249   2.620   4.954  12.708 -0.0923  0.6530  0.5043
 9352TIP3   OH252250   3.309   7.436  10.960 -0.1617  0.3426  0.4890
 9352TIP3    H152251   3.294   7.413  11.051 -0.9697  0.1102  0.3053
 9352TIP3    H252252   3.386   7.385  10.935 -1.7364 -2.0415  0.1723
 9353TIP3   OH252253   4.090   3.215  11.209  0.3215  0.0519  0.2913
 9353TIP3    H152254   4.132   3.133  11.235  0.3371 -0.1353 -0.3091
 9353TIP3    H252255   4.163   3.275  11.195  0.4684 -0.4630 -1.4124
 9354TIP3   OH252256   0.720   7.184  12.337 -0.2150  0.1170 -0.3624
 9354TIP3    H152257   0.737   7.092  12.317  0.3238  0.2882 -0.7139
 9354TIP3    H252258   0.634   7.183  12.380  0.4208 -0.7126  0.9674
 9355TIP3   OH252259   2.979   5.677  12.469 -0.3523 -0.0986 -0.0829
 9355TIP3    H152260   3.064   5.720  12.462 -0.9591  1.2849  0.5539
 9355TIP3    H252261   2.989   5.615  12.541 -0.2630  1.1083  0.9898
 9356TIP3   OH252262   4.885   7.536  11.220  0.1887 -0.0545  0.0795
 9356TIP3    H152263   4.946   7.548  11.294  1.1686  0.7826 -0.8291
 9356TIP3    H252264   4.815   7.599  11.237 -0.1090 -0.5646  0.7981
 9357TIP3   OH252265   1.045   2.848  12.378 -0.8934  0.2940  0.5123
 9357TIP3    H152266   1.009   2.762  12.400  1.3382 -0.3950  1.8139
 9357TIP3    H252267   0.995   2.909  12.432 -1.6120 -0.3485  0.5889
 9358TIP3   OH252268   2.750   3.848  11.866  0.4366  0.2893  0.4778
 9358TIP3    H152269   2.840   3.835  11.836  0.2689  0.3718 -0.0728
 9358TIP3    H252270   2.730   3.939  11.843  0.9599  0.9776  2.5928
 9359TIP3   OH252271   0.479   6.379  12.693 -1.0789  0.3129  0.3661
 9359TIP3    H152272   0.510   6.371  12.783 -1.9993  0.1146  0.6789
 9359TIP3    H252273   0.417   6.307  12.682  1.1761 -1.5088 -1.3853
 9360TIP3   OH252274   6.548   1.441  11.837 -0.2428 -0.2009 -0.1705
 9360TIP3    H152275   6.556   1.535  11.852  0.2547 -0.3551  0.5396
 9360TIP3    H252276   6.592   1.401  11.912 -0.5131 -0.9995 -0.4378
 9361TIP3   OH252277   2.564   5.242  10.669 -0.0250  0.1111  0.4399
 9361TIP3    H152278   2.615   5.285  10.600  0.6546  0.0559  0.8989
 9361TIP3    H252279   2.521   5.314  10.716  0.8473  0.2825  0.9978
 9362TIP3   OH252280   2.399   2.479  12.189 -0.4813 -0.4843  0.4620
 9362TIP3    H152281   2.462   2.444  12.127  2.1408  2.5646  1.1553
 9362TIP3    H252282   2.404   2.419  12.264  0.1338 -1.3491 -0.2455
 9363TIP3   OH252283   0.036   4.131  11.526 -0.5461  0.1049 -0.4077
 9363TIP3    H152284   0.055   4.042  11.555 -0.1426  0.1553 -0.5092
 9363TIP3    H252285  -0.059   4.134  11.517 -0.5501 -0.3500 -0.5212
 9364TIP3   OH252286   6.356   1.233  12.326  0.0533 -0.4933  0.3613
 9364TIP3    H152287   6.353   1.288  12.248 -0.4204  0.5667  1.1064
 9364TIP3    H252288   6.409   1.158  12.300 -0.3952 -0.3394 -1.0881
 9365TIP3   OH252289   3.600   5.993  10.816 -0.2420 -0.4128 -0.8579
 9365TIP3    H152290   3.574   6.085  10.805  1.0109 -0.1720 -2.1097
 9365TIP3    H252291   3.539   5.958  10.881 -0.6644  1.3344 -0.2713
 9366TIP3   OH252292   2.040   1.221  12.614  0.0570 -0.3513 -0.0603
 9366TIP3    H152293   2.000   1.135  12.611  1.9874 -1.3079  0.1387
 9366TIP3    H252294   2.049   1.240  12.708 -0.8874  0.3340 -0.1015
 9367TIP3   OH252295   5.111   5.199  12.860 -0.0294  0.5577 -0.6584
 9367TIP3    H152296   5.136   5.272  12.915 -0.6902 -0.9013  1.7377
 9367TIP3    H252297   5.037   5.158  12.906  1.4071 -2.6260 -0.8908
 9368TIP3   OH252298   0.223   1.586  11.311 -0.2644  0.6209  0.1527
 9368TIP3    H152299   0.136   1.545  11.306 -0.2834  0.5644  0.8050
 9368TIP3    H252300   0.258   1.580  11.222 -1.7412  2.4737 -0.6235
 9369TIP3   OH252301   6.557   5.957  13.331 -0.2893  0.0953 -0.1716
 9369TIP3    H152302   6.597   5.939  13.246  1.2628  0.5043  0.4487
 9369TIP3    H252303   6.610   5.908  13.393 -1.5019 -0.3229  0.5717
 9370TIP3   OH252304   6.641   0.972  10.639  0.1542 -0.2402  0.1070
 9370TIP3    H152305   6.596   1.050  10.605  0.4864  0.0255  0.2716
 9370TIP3    H252306   6.724   1.006  10.673  1.1898 -0.9374 -1.6067
 9371TIP3   OH252307   6.564   4.920  11.799 -0.2796 -0.2425  0.2308
 9371TIP3    H152308   6.477   4.878  11.803 -0.3780 -0.8240 -3.8608
 9371TIP3    H252309   6.602   4.887  11.718  2.8955  1.7618  0.7602
 9372TIP3   OH252310   5.633   1.647  10.795  0.2210 -0.2152 -0.1784
 9372TIP3    H152311   5.689   1.721  10.817 -0.8349  0.8368 -0.9202
 9372TIP3    H252312   5.649   1.583  10.864  1.1961  0.6836  0.4432
 9373TIP3   OH252313   3.054   5.085  12.686 -0.8306 -0.4052  0.0886
 9373TIP3    H152314   3.141   5.114  12.657 -1.2930  0.1573 -0.7850
 9373TIP3    H252315   3.012   5.164  12.719 -0.6202 -0.8892  1.5808
 9374TIP3   OH252316   6.721   6.187  12.141 -0.1396 -0.0033 -0.3220
 9374TIP3    H152317   6.653   6.167  12.205 -1.1894  0.4979 -1.2501
 9374TIP3    H252318   6.803   6.180  12.190 -0.8493 -0.6840  0.8000
 9375TIP3   OH252319   6.650   0.614  11.073 -0.3292 -0.4258 -0.4530
 9375TIP3    H152320   6.618   0.580  10.990  0.8448 -0.2276 -1.0013
 9375TIP3    H252321   6.669   0.535  11.125 -0.4363 -0.5542 -0.6062
 9376TIP3   OH252322   1.075   1.650  12.150 -0.1579 -0.0407  0.2245
 9376TIP3    H152323   1.028   1.573  12.182  1.5434 -0.6685  1.4017
 9376TIP3    H252324   1.015   1.723  12.165 -1.1025 -0.9019  0.7906
 9377TIP3   OH252325   1.375   3.016  12.417 -0.0911  0.0051  0.1280
 9377TIP3    H152326   1.321   3.089  12.388  2.3104  1.7124 -0.3676
 9377TIP3    H252327   1.406   2.976  12.335 -0.0772 -0.5303  0.3929
 9378TIP3   OH252328   4.724   4.572  10.476  0.4934  0.2401  0.7526
 9378TIP3    H152329   4.724   4.567  10.380 -3.2093 -2.0585  0.6857
 9378TIP3    H252330   4.691   4.660  10.495  0.0680  0.2848 -0.1351
 9379TIP3   OH252331   0.097   6.083  10.822  0.0427 -0.1012 -0.4076
 9379TIP3    H152332   0.126   6.127  10.742  0.8914  0.6651  0.2975
 9379TIP3    H252333   0.076   5.994  10.795 -0.8710  0.4821 -1.7128
 9380TIP3   OH252334   3.131   4.803  12.126  0.7127 -0.3943  0.5836
 9380TIP3    H152335   3.091   4.740  12.186 -0.5190  0.3550  0.5641
 9380TIP3    H252336   3.172   4.868  12.184  0.3918 -0.2176  0.6143
 9381TIP3   OH252337   6.258   4.361  11.211 -0.1130  0.2121  0.1816
 9381TIP3    H152338   6.241   4.414  11.134  0.1807 -2.0747 -1.5602
 9381TIP3    H252339   6.185   4.379  11.270 -1.5457  0.3994 -1.5657
 9382TIP3   OH252340   1.035   3.785  11.055  0.2151  0.9205  0.2232
 9382TIP3    H152341   1.043   3.690  11.043 -0.6407  0.9729 -0.9590
 9382TIP3    H252342   1.122   3.814  11.082  0.2092 -0.3503  1.7546
 9383TIP3   OH252343   4.375   6.961  10.629  0.1914  0.0436 -0.4869
 9383TIP3    H152344   4.360   7.055  10.617  0.1603  0.1909  0.5576
 9383TIP3    H252345   4.470   6.951  10.628  0.3053  0.4257  1.4034
 9384TIP3   OH252346   4.289   4.653  10.587  0.1271 -0.1927 -0.2717
 9384TIP3    H152347   4.342   4.733  10.579  1.0670 -0.6950  0.6307
 9384TIP3    H252348   4.351   4.587  10.618 -1.1818 -0.6502  1.4646
 9385TIP3   OH252349   5.008   1.714  12.627  0.2585 -0.3652  0.3634
 9385TIP3    H152350   5.038   1.805  12.625  1.4811 -0.7472  0.4202
 9385TIP3    H252351   5.085   1.664  12.653  0.3532 -1.6937 -2.1925
 9386TIP3   OH252352   5.295   4.353  12.867  0.3056 -0.1186 -0.0097
 9386TIP3    H152353   5.366   4.360  12.930  0.5059 -1.6634 -0.0153
 9386TIP3    H252354   5.219   4.326  12.918 -0.2844  1.4906 -0.0087
 9387TIP3   OH252355   0.384   1.289  13.058 -0.4565  0.2443 -0.5841
 9387TIP3    H152356   0.435   1.353  13.008 -0.2076 -0.4712 -1.2678
 9387TIP3    H252357   0.367   1.218  12.996  0.7162 -1.1340  0.5858
 9388TIP3   OH252358   5.945   0.849  11.207  0.0401  0.0876  0.4067
 9388TIP3    H152359   6.022   0.901  11.184  1.0542 -0.9489  1.3221
 9388TIP3    H252360   5.942   0.779  11.142  2.4106 -2.3412  2.6657
 9389TIP3   OH252361   3.024   2.576  12.189 -0.9210 -0.0766 -0.9930
 9389TIP3    H152362   2.936   2.608  12.170 -1.6985 -2.4993 -1.9839
 9389TIP3    H252363   3.039   2.509  12.122  1.5718  0.0613 -0.6522
 9390TIP3   OH252364   3.309   5.172  11.600 -0.3596 -0.2077 -0.3020
 9390TIP3    H152365   3.305   5.260  11.562 -0.3280 -0.1126 -0.0860
 9390TIP3    H252366   3.217   5.146  11.610 -0.3679 -0.5045 -1.0633
 9391TIP3   OH252367   5.604   1.559  12.893  0.5708 -0.5135  0.0531
 9391TIP3    H152368   5.637   1.530  12.978  1.1582  0.9408  0.3611
 9391TIP3    H252369   5.516   1.524  12.888 -0.5204  1.5582  2.5040
 9392TIP3   OH252370   3.419   5.744  11.051 -0.3889 -0.3126  0.2687
 9392TIP3    H152371   3.439   5.785  11.135  1.1877  0.9120 -0.6467
 9392TIP3    H252372   3.339   5.788  11.022 -0.1733  0.2495  0.5052
 9393TIP3   OH252373   0.434   7.628  12.382  0.0823  0.0269  0.3459
 9393TIP3    H152374   0.341   7.604  12.386  0.2797 -0.7889  0.2385
 9393TIP3    H252375   0.477   7.562  12.437  0.7617 -0.4569 -0.7490
 9394TIP3   OH252376   6.768   0.748  11.316 -0.4675  0.0900  0.4014
 9394TIP3    H152377   6.855   0.714  11.296 -0.4479  0.7469 -0.7241
 9394TIP3    H252378   6.717   0.731  11.237 -0.1002  3.7958 -0.8209
 9395TIP3   OH252379   5.604   0.312  11.083 -0.4071  0.6763 -0.0897
 9395TIP3    H152380   5.657   0.269  11.017 -0.7666 -0.4822  0.3492
 9395TIP3    H252381   5.666   0.364  11.134  0.7026 -1.9817  1.5146
 9396TIP3   OH252382   7.259   1.722  10.379  0.1630 -0.1182  0.1663
 9396TIP3    H152383   7.168   1.726  10.350  0.3196  0.2570 -0.2901
 9396TIP3    H252384   7.274   1.631  10.401 -0.0846 -0.3389 -0.5527
 9397TIP3   OH252385   2.018   3.074  11.915 -0.0699  0.3371  0.1992
 9397TIP3    H152386   2.006   3.159  11.872  0.1586  0.0600 -0.4102
 9397TIP3    H252387   1.929   3.045  11.936 -0.3072 -0.2467 -1.4898
 9398TIP3   OH252388   4.553   7.690  11.910  0.5535  0.2856  0.5724
 9398TIP3    H152389   4.570   7.718  12.000  0.8851  2.7249 -0.1784
 9398TIP3    H252390   4.620   7.624  11.893  0.4162 -0.3109  2.1245
 9399TIP3   OH252391   3.802   0.125  11.588 -0.4491 -0.3535 -0.7587
 9399TIP3    H152392   3.713   0.139  11.556 -0.2130 -0.5086 -1.5078
 9399TIP3    H252393   3.795   0.134  11.683 -1.4085 -1.1566 -0.7364
 9400TIP3   OH252394   2.532   5.771  11.424 -0.5423  0.0388 -0.5114
 9400TIP3    H152395   2.483   5.847  11.395  0.4665  0.4954 -1.0787
 9400TIP3    H252396   2.495   5.698  11.374 -1.3245  0.1908 -0.1673
 9401TIP3   OH252397   1.072   3.696  12.679  0.2261  0.4894 -0.5642
 9401TIP3    H152398   1.131   3.712  12.753  0.1384  0.6420 -0.5262
 9401TIP3    H252399   1.034   3.611  12.697  2.3686 -0.8438 -1.8771
 9402TIP3   OH252400   0.055   7.106  12.829 -0.0186  0.3205 -0.5534
 9402TIP3    H152401   0.140   7.121  12.872  0.3667 -1.2593 -0.7091
 9402TIP3    H252402  -0.009   7.133  12.894  0.5857 -0.4424  0.3886
 9403TIP3   OH252403   3.087   5.866  12.724  0.1828 -0.1717 -0.5463
 9403TIP3    H152404   3.032   5.912  12.788  0.9817  0.4915 -0.3112
 9403TIP3    H252405   3.105   5.781  12.764  0.9126  0.3450  0.2642
 9404TIP3   OH252406   1.632   4.337  12.190  0.4847  0.3021 -0.1444
 9404TIP3    H152407   1.583   4.269  12.236 -0.5995  0.4827 -0.9890
 9404TIP3    H252408   1.565   4.392  12.149  1.3910  0.1646 -1.9153
 9405TIP3   OH252409   7.560   7.347  11.660  0.1229 -0.0177 -0.1276
 9405TIP3    H152410   7.487   7.286  11.673 -0.6196  0.7623 -0.5613
 9405TIP3    H252411   7.584   7.374  11.748 -0.5297  0.2063 -0.0165
 9406TIP3   OH252412   1.198   1.060  11.908  0.6612 -0.5274  0.0225
 9406TIP3    H152413   1.207   1.131  11.972  2.1950  0.8076 -1.5723
 9406TIP3    H252414   1.107   1.032  11.917 -0.0069  1.6329  0.7488
 9407TIP3   OH252415   1.066   2.002  12.469  0.0197  0.0327  0.2361
 9407TIP3    H152416   1.025   2.050  12.541 -1.7996 -0.5173 -0.3764
 9407TIP3    H252417   1.152   1.978  12.503 -0.2463  0.9874  1.7062
 9408TIP3   OH252418   5.368   7.679  12.455 -0.0702  0.0897 -0.0001
 9408TIP3    H152419   5.342   7.663  12.364  0.9570  1.6021 -0.5932
 9408TIP3    H252420   5.289   7.662  12.506 -1.0382  0.5167 -1.3086
 9409TIP3   OH252421   6.221   6.311  10.700 -0.4245  0.3993  0.2878
 9409TIP3    H152422   6.165   6.253  10.751  1.8960 -0.1406  2.4488
 9409TIP3    H252423   6.227   6.391  10.752  0.1568  0.7605 -0.3059
 9410TIP3   OH252424   1.722   0.731  12.435 -0.7974 -0.4484 -0.1709
 9410TIP3    H152425   1.789   0.713  12.502 -0.6391  0.8805  0.0485
 9410TIP3    H252426   1.748   0.677  12.360  0.1335 -0.4712  0.1565
 9411TIP3   OH252427   2.849   7.592  11.631 -0.3736 -0.1457 -0.5618
 9411TIP3    H152428   2.839   7.499  11.613 -0.1333 -0.2687 -0.0595
 9411TIP3    H252429   2.903   7.596  11.710 -1.4157  0.3833  0.1474
 9412TIP3   OH252430   0.738   0.736  11.545 -0.5257 -0.1717 -0.1216
 9412TIP3    H152431   0.784   0.692  11.615 -0.5530 -0.9376 -0.5799
 9412TIP3    H252432   0.685   0.803  11.589 -1.3722 -1.3415  0.6980
 9413TIP3   OH252433   1.635   4.549  12.752  0.0938  0.0731 -0.6623
 9413TIP3    H152434   1.643   4.534  12.657  0.3797  1.7268 -0.9263
 9413TIP3    H252435   1.707   4.499  12.790  0.0002 -0.5814 -1.3092
 9414TIP3   OH252436   0.694   3.599  11.240 -0.5506 -0.3642 -0.5166
 9414TIP3    H152437   0.761   3.531  11.231 -1.5417 -1.2945 -1.3356
 9414TIP3    H252438   0.739   3.674  11.278  0.9239 -0.9784 -0.9953
 9415TIP3   OH252439   0.399   1.480  12.638 -0.3727  0.0435 -0.0894
 9415TIP3    H152440   0.424   1.390  12.661  0.7539  0.2496 -0.4283
 9415TIP3    H252441   0.426   1.532  12.713  2.4845  0.5887 -1.3302
 9416TIP3   OH252442   1.845   3.178  12.346 -0.0202 -0.3355  0.3142
 9416TIP3    H152443   1.806   3.195  12.260  0.9498  1.3623  0.1726
 9416TIP3    H252444   1.859   3.265  12.384  2.7787 -0.8701  0.7270
 9417TIP3   OH252445   0.172   3.913  11.875 -0.3075 -0.9245  0.2320
 9417TIP3    H152446   0.255   3.910  11.922  0.7113 -1.2935 -1.5034
 9417TIP3    H252447   0.120   3.842  11.914  0.7044 -1.5761  0.4255
 9418TIP3   OH252448   3.467   2.958  12.540  0.4251 -0.2312  0.2036
 9418TIP3    H152449   3.389   2.956  12.483  0.3746  1.5445  0.1644
 9418TIP3    H252450   3.439   2.914  12.620 -0.8238  0.8322  0.3937
 9419TIP3   OH252451   0.180   5.885  12.326 -0.2049  0.2655 -0.8282
 9419TIP3    H152452   0.228   5.836  12.393 -1.0899  0.6404  0.0978
 9419TIP3    H252453   0.093   5.846  12.326 -1.1036  2.1365  0.3162
 9420TIP3   OH252454   0.816   2.050  13.554 -0.7434 -0.2919 -0.2029
 9420TIP3    H152455   0.764   2.001  13.618 -0.6519  0.0941  0.1738
 9420TIP3    H252456   0.905   2.017  13.565 -0.8354 -0.6747 -0.5766
 9421TIP3   OH252457   3.899   0.306  11.354  0.4707  0.0532 -0.0658
 9421TIP3    H152458   3.853   0.239  11.404  1.5462  0.1436  1.0808
 9421TIP3    H252459   3.934   0.259  11.278 -1.8119  0.0686 -1.1866
 9422TIP3   OH252460   7.486   5.167  12.620 -0.6540 -0.1250 -0.1484
 9422TIP3    H152461   7.545   5.184  12.694 -0.1690  1.0252 -0.7797
 9422TIP3    H252462   7.544   5.153  12.545 -1.1613 -0.1560 -0.5412
 9423TIP3   OH252463   5.001   6.254  11.692  0.1962  0.2163 -0.2253
 9423TIP3    H152464   5.023   6.310  11.618 -2.3141  2.1774  0.3807
 9423TIP3    H252465   5.069   6.186  11.691  1.6050  1.4873 -2.8552
 9424TIP3   OH252466   6.650   6.166  13.496 -0.2599 -0.0845  0.2572
 9424TIP3    H152467   6.595   6.100  13.455  0.6768 -1.0876  0.5784
 9424TIP3    H252468   6.740   6.136  13.481  0.2116  1.2800  0.1317
 9425TIP3   OH252469   1.604   7.285  12.260  0.0470 -0.7382 -0.1678
 9425TIP3    H152470   1.584   7.227  12.187  1.3658 -1.0697 -0.2912
 9425TIP3    H252471   1.539   7.356  12.253  0.6870 -0.2822 -2.2127
 9426TIP3   OH252472   5.624   4.520  12.150 -0.0100 -0.4313 -0.5418
 9426TIP3    H152473   5.580   4.586  12.204  0.6377  0.7157 -1.4011
 9426TIP3    H252474   5.610   4.438  12.198 -0.7690  0.3216  0.5775
 9427TIP3   OH252475   4.330   2.966  12.973 -0.2561 -0.6945 -0.2160
 9427TIP3    H152476   4.411   2.916  12.972 -0.0996 -0.4405 -0.3511
 9427TIP3    H252477   4.294   2.954  12.885  0.2263  0.1447 -0.5389
 9428TIP3   OH252478   0.318   0.384  10.681 -0.6405 -0.1848 -0.5548
 9428TIP3    H152479   0.240   0.409  10.730 -2.3517  0.8582 -3.5728
 9428TIP3    H252480   0.368   0.465  10.671 -1.6843  0.2469 -2.7334
 9429TIP3   OH252481   0.297   0.350  11.066  0.0419  0.5176 -0.0992
 9429TIP3    H152482   0.220   0.344  11.009  0.5189  1.9435 -0.9597
 9429TIP3    H252483   0.274   0.298  11.143 -1.7982  0.9265 -0.3152
 9430TIP3   OH252484   6.590   5.892  11.959 -0.1090 -0.0480  0.5346
 9430TIP3    H152485   6.543   5.829  12.014  0.1263 -0.9268 -0.2478
 9430TIP3    H252486   6.582   5.975  12.006  0.3104 -0.8120  2.0216
 9431TIP3   OH252487   2.145   4.050  11.778  0.1166 -1.0176  0.4021
 9431TIP3    H152488   2.054   4.028  11.757  0.0478 -1.4552  1.1237
 9431TIP3    H252489   2.140   4.097  11.861  0.5352 -0.9255  0.3787
 9432TIP3   OH252490   6.521   4.475  10.581  0.0076  0.0859 -0.3015
 9432TIP3    H152491   6.488   4.506  10.497 -0.3944  2.5944  0.6858
 9432TIP3    H252492   6.584   4.542  10.609  1.8547 -1.8293  0.4058
 9433TIP3   OH252493   3.380   4.474  11.461  0.4377  0.1753 -0.7448
 9433TIP3    H152494   3.391   4.532  11.536 -1.3300  0.9815 -1.0705
 9433TIP3    H252495   3.323   4.405  11.492  0.0624  0.2676 -1.2177
 9434TIP3   OH252496   4.370   2.133  12.441  0.3195 -0.3712  0.1560
 9434TIP3    H152497   4.453   2.116  12.398  0.2507 -0.1660 -0.0642
 9434TIP3    H252498   4.380   2.221  12.478 -0.2876  0.2492 -1.0851
 9435TIP3   OH252499   1.335   0.700  11.092  0.0589 -0.2051 -0.1931
 9435TIP3    H152500   1.384   0.771  11.134  0.8203 -1.1936  0.6404
 9435TIP3    H252501   1.282   0.744  11.026 -2.1005  1.6188  2.4966
 9436TIP3   OH252502   1.323   3.809  11.039 -0.2676 -0.1695  0.1472
 9436TIP3    H152503   1.407   3.842  11.070 -0.5185  0.2610  0.3606
 9436TIP3    H252504   1.330   3.714  11.049  0.7470 -0.2753 -1.1801
 9437TIP3   OH252505   4.914   3.538  11.308 -0.2608  0.0813 -0.5338
 9437TIP3    H152506   4.929   3.547  11.214 -1.8318  0.4189 -0.7755
 9437TIP3    H252507   4.821   3.557  11.319  0.0077  0.5302  1.1512
 9438TIP3   OH252508   1.515   2.080  13.014 -0.2620 -0.1179 -0.1143
 9438TIP3    H152509   1.533   2.174  13.001 -0.4663  0.0931  1.0438
 9438TIP3    H252510   1.527   2.042  12.927  2.4312  0.5535 -0.1242
 9439TIP3   OH252511   4.102   3.223  11.649 -0.2998 -0.1862  0.1075
 9439TIP3    H152512   4.179   3.175  11.618  1.0006  1.3193  0.8829
 9439TIP3    H252513   4.055   3.248  11.569  0.1206 -0.9246 -0.3844
 9440TIP3   OH252514   7.605   1.664  12.467 -0.0686  0.0902  0.0732
 9440TIP3    H152515   7.554   1.587  12.490 -0.7156  0.1138 -1.2284
 9440TIP3    H252516   7.541   1.734  12.454  0.5428  1.0483  1.8533
 9441TIP3   OH252517   3.151   1.686  13.310  0.5377 -0.5884  0.1050
 9441TIP3    H152518   3.195   1.753  13.258 -0.8003  0.8622  0.7578
 9441TIP3    H252519   3.204   1.677  13.389 -0.6941  1.8297  1.3195
 9442TIP3   OH252520   3.246   0.793  11.961 -0.4600 -0.1575  0.2826
 9442TIP3    H152521   3.175   0.740  11.926 -1.8642  0.1291  2.5147
 9442TIP3    H252522   3.237   0.877  11.916 -1.3008 -0.2379  0.2850
 9443TIP3   OH252523   3.224   5.499  11.957  0.0806 -0.3847 -0.2451
 9443TIP3    H152524   3.295   5.562  11.956  1.8694 -2.2523 -2.2812
 9443TIP3    H252525   3.259   5.423  12.004 -2.0405  0.0208  2.2147
 9444TIP3   OH252526   4.971   2.513  12.151 -0.0723 -0.2761 -0.2805
 9444TIP3    H152527   4.923   2.596  12.149  1.7429  0.8083 -2.4499
 9444TIP3    H252528   4.946   2.468  12.070  0.8951 -0.6952 -0.3552
 9445TIP3   OH252529   6.369   0.700  12.837  0.0788  0.0533  0.3406
 9445TIP3    H152530   6.393   0.762  12.906  1.6472  0.2698 -0.3493
 9445TIP3    H252531   6.443   0.702  12.777 -0.4672 -1.4559 -0.4328
 9446TIP3   OH252532   5.877   4.632  11.954  0.4910 -0.9888  0.2075
 9446TIP3    H152533   5.797   4.627  12.005 -1.5373  1.3844 -2.3779
 9446TIP3    H252534   5.920   4.713  11.983 -0.0744 -0.2497 -0.9272
 9447TIP3   OH252535   4.422   7.394  11.345 -0.1138  0.1674 -0.1003
 9447TIP3    H152536   4.465   7.327  11.291  0.3093  1.0037 -0.8125
 9447TIP3    H252537   4.448   7.477  11.306  0.5618  0.8316  1.6580
 9448TIP3   OH252538   2.805   2.207  13.253  0.0015  0.4707  0.8086
 9448TIP3    H152539   2.808   2.123  13.209  0.6930  0.7530  0.2843
 9448TIP3    H252540   2.856   2.194  13.333 -1.3485 -0.0724  1.6102
 9449TIP3   OH252541   4.303   0.938  12.438  0.4847  0.1252  0.1749
 9449TIP3    H152542   4.395   0.921  12.459  0.3258  2.0849  3.0113
 9449TIP3    H252543   4.254   0.877  12.493  0.0875  0.9535  0.7578
 9450TIP3   OH252544   0.712   2.952  11.231  0.1988 -0.0072 -0.0669
 9450TIP3    H152545   0.756   2.909  11.157  0.1442 -1.2560  0.6046
 9450TIP3    H252546   0.779   2.954  11.300 -0.4252 -0.8843  0.5795
 9451TIP3   OH252547   4.134   5.004  12.557  0.4978 -0.2304  0.5956
 9451TIP3    H152548   4.212   5.057  12.542 -0.5567  1.1358 -0.2642
 9451TIP3    H252549   4.111   5.019  12.648  1.3541 -0.8185  0.9182
 9452TIP3   OH252550   2.591   3.199  11.929 -0.3441  0.0144 -0.1762
 9452TIP3    H152551   2.599   3.220  11.836  0.2919  0.8919  0.0685
 9452TIP3    H252552   2.517   3.139  11.933 -2.2322  2.1555 -0.9142
 9453TIP3   OH252553   5.467   0.438  12.088 -0.2774  0.7816 -0.2084
 9453TIP3    H152554   5.552   0.439  12.132 -0.9192  1.0024  1.0469
 9453TIP3    H252555   5.431   0.351  12.106  0.5878 -0.1526 -2.5829
 9454TIP3   OH252556   2.838   5.875  12.353  0.4682 -0.3999 -0.3296
 9454TIP3    H152557   2.899   5.825  12.407  0.1922  1.6304  2.0145
 9454TIP3    H252558   2.758   5.821  12.351  0.9383 -1.1207  0.1466
 9455TIP3   OH252559   4.413   3.996  12.150 -0.4799  0.1886 -0.4163
 9455TIP3    H152560   4.385   3.908  12.124  0.2324 -0.5102  1.0383
 9455TIP3    H252561   4.334   4.037  12.186 -0.5759 -0.2795 -0.0826
 9456TIP3   OH252562   4.276   3.341  10.758  0.4763 -0.2091 -0.4333
 9456TIP3    H152563   4.226   3.268  10.721  0.3914 -0.5462  0.3274
 9456TIP3    H252564   4.213   3.387  10.813  1.0432 -0.7639  0.7069
 9457TIP3   OH252565   0.718   2.080  12.819  0.2618 -0.4707 -0.3337
 9457TIP3    H152566   0.707   1.987  12.801  1.8898 -0.7660  0.0019
 9457TIP3    H252567   0.648   2.102  12.880  0.5181 -1.7440  0.4362
 9458TIP3   OH252568   6.354   5.700  12.360 -0.3547  0.3374  0.4305
 9458TIP3    H152569   6.415   5.633  12.392 -1.2853 -0.1663  1.2236
 9458TIP3    H252570   6.272   5.652  12.346 -0.7025  1.0888 -0.1573
 9459TIP3   OH252571   7.605   6.377  11.899 -0.3585 -0.2436  0.0515
 9459TIP3    H152572   7.682   6.420  11.861 -0.7063 -0.1732 -0.5831
 9459TIP3    H252573   7.549   6.356  11.824 -1.9631  1.6153  0.6334
 9460TIP3   OH252574   5.044   3.719  10.825 -0.7306 -0.3602 -0.0359
 9460TIP3    H152575   4.987   3.720  10.748 -1.6273 -0.6520  0.6067
 9460TIP3    H252576   4.996   3.667  10.890  1.4766 -3.0735 -0.3658
 9461TIP3   OH252577   5.401   0.334  12.705  0.3737  0.4529 -0.7093
 9461TIP3    H152578   5.307   0.314  12.705  0.2351  1.0495  0.5235
 9461TIP3    H252579   5.406   0.429  12.712  1.0689  0.3587  0.3275
 9462TIP3   OH252580   5.744   0.785  10.614  0.4637 -0.2352  0.1705
 9462TIP3    H152581   5.826   0.829  10.591 -0.4201  0.6411 -1.3854
 9462TIP3    H252582   5.763   0.692  10.601  0.8917  0.0336 -1.2899
 9463TIP3   OH252583   5.313   4.338  10.978  0.4713 -0.1454  0.6099
 9463TIP3    H152584   5.388   4.375  10.932  2.0817 -1.6583  1.9154
 9463TIP3    H252585   5.317   4.244  10.958 -2.1036 -0.0723 -0.6721
 9464TIP3   OH252586   2.567   7.089  12.850  0.1461 -0.1571 -0.4450
 9464TIP3    H152587   2.647   7.075  12.901  0.3405 -0.4112 -0.8197
 9464TIP3    H252588   2.504   7.121  12.914  0.7671  0.7927 -0.2868
 9465TIP3   OH252589   1.170   7.515  11.801  0.0754  0.1867  0.3039
 9465TIP3    H152590   1.174   7.461  11.722 -0.5095  0.7396 -0.1133
 9465TIP3    H252591   1.129   7.597  11.773  2.1481  1.4216  0.6090
 9466TIP3   OH252592   5.032   6.325  11.438 -0.3936 -0.2337  0.2540
 9466TIP3    H152593   4.999   6.409  11.406  0.2597  0.1755  0.6252
 9466TIP3    H252594   5.101   6.300  11.376  0.2398  0.1078  0.8058
 9467TIP3   OH252595   3.347   1.034  11.278  0.1104 -0.0843 -0.0863
 9467TIP3    H152596   3.349   1.107  11.339  0.1590  0.3437 -0.5968
 9467TIP3    H252597   3.435   1.031  11.242  0.5901 -1.3968  1.0934
 9468TIP3   OH252598   7.695   3.662  12.723  0.2372  0.2727 -0.0305
 9468TIP3    H152599   7.774   3.669  12.670  0.3307  0.2310  0.1001
 9468TIP3    H252600   7.716   3.709  12.804  1.4281 -2.6516  1.5012
 9469TIP3   OH252601   2.827   2.745  11.092  0.5353  0.1366 -0.6014
 9469TIP3    H152602   2.858   2.671  11.145  1.0432  0.6327 -0.1871
 9469TIP3    H252603   2.871   2.734  11.008  1.3752  0.4915 -0.2208
 9470TIP3   OH252604   1.441   6.091  11.548  1.0265  0.3767 -0.0746
 9470TIP3    H152605   1.460   6.171  11.597 -0.0697  1.1286 -0.8268
 9470TIP3    H252606   1.454   6.115  11.456 -2.0296  0.6037 -0.5599
 9471TIP3   OH252607   6.774   6.827  11.186  0.2670  0.2346  0.1168
 9471TIP3    H152608   6.780   6.747  11.133 -0.1110  0.0464  0.3478
 9471TIP3    H252609   6.861   6.865  11.183  0.7442 -0.7460  0.8619
 9472TIP3   OH252610   1.459   4.268  12.551 -0.2026 -0.2080  0.7669
 9472TIP3    H152611   1.428   4.180  12.529 -0.3014 -0.1632  0.7261
 9472TIP3    H252612   1.428   4.283  12.640 -1.2253  0.2536  0.3525
 9473TIP3   OH252613   4.183   6.368  10.916 -0.5731  0.4814  0.1818
 9473TIP3    H152614   4.136   6.451  10.918  0.5602  1.2852 -2.4662
 9473TIP3    H252615   4.142   6.318  10.846  0.5077 -0.0501 -0.0997
 9474TIP3   OH252616   2.929   1.083  11.696  0.0678 -0.3023 -0.6310
 9474TIP3    H152617   2.903   1.174  11.682 -1.0284 -0.5238 -0.1739
 9474TIP3    H252618   2.932   1.073  11.791  1.3477 -0.4483 -0.6665
 9475TIP3   OH252619   1.581   2.784  11.839 -0.5955 -0.4511 -0.1698
 9475TIP3    H152620   1.618   2.787  11.927  1.2087 -1.2206 -0.8720
 9475TIP3    H252621   1.591   2.873  11.806 -1.1540 -0.1926  0.3342
 9476TIP3   OH252622   6.013   5.184  12.666 -0.1911  0.0556  0.2796
 9476TIP3    H152623   5.918   5.183  12.654  0.0125  1.3163 -1.9750
 9476TIP3    H252624   6.032   5.269  12.706  0.1938  1.1389 -2.0750
 9477TIP3   OH252625   5.823   0.043  10.931 -0.2044 -0.4799 -0.0832
 9477TIP3    H152626   5.731   0.062  10.913 -1.0301 -1.7108  2.3050
 9477TIP3    H252627   5.853   0.119  10.982 -1.0047 -1.5358  2.1169
 9478TIP3   OH252628   2.502   4.365  10.997 -0.0800  0.0234 -0.5809
 9478TIP3    H152629   2.522   4.458  10.995  1.6125 -0.2967 -0.1105
 9478TIP3    H252630   2.555   4.327  10.927  0.4152 -0.7611  0.1934
 9479TIP3   OH252631   5.135   4.402  11.605  0.2746  0.2065 -0.1467
 9479TIP3    H152632   5.192   4.449  11.666 -0.1149  1.7853 -0.9451
 9479TIP3    H252633   5.194   4.345  11.556  0.7066 -0.4848  1.1253
 9480TIP3   OH252634   7.591   3.614  11.656 -0.5171  0.5328  0.4362
 9480TIP3    H152635   7.520   3.561  11.619  0.5045 -1.8335  1.6163
 9480TIP3    H252636   7.658   3.617  11.587 -1.0390  1.2939 -0.0487
 9481TIP3   OH252637   2.850   3.214  11.001 -0.0763 -0.4868 -0.0561
 9481TIP3    H152638   2.901   3.292  10.981 -0.5728  0.2625  1.4674
 9481TIP3    H252639   2.773   3.220  10.945 -0.5529  0.6121  0.6890
 9482TIP3   OH252640   3.888   2.356  10.785 -0.2391 -0.0309 -0.3900
 9482TIP3    H152641   3.796   2.329  10.789 -0.2802  0.0873 -0.5012
 9482TIP3    H252642   3.899   2.388  10.696 -0.2044  0.3534 -0.2517
 9483TIP3   OH252643   7.516   0.035  11.619  0.1557  0.2058  0.1281
 9483TIP3    H152644   7.570   0.096  11.570 -1.7745  0.7675 -1.4100
 9483TIP3    H252645   7.504  -0.039  11.560  0.4445 -0.5801  1.0287
 9484TIP3   OH252646   2.727   3.525  12.120 -0.2723 -0.2627 -0.1576
 9484TIP3    H152647   2.688   3.494  12.201  0.5922  0.8821  0.7304
 9484TIP3    H252648   2.773   3.606  12.144 -0.6128  0.5226 -1.9243
 9485TIP3   OH252649   3.013   5.168  11.407 -0.2179 -0.3151  0.2324
 9485TIP3    H152650   3.064   5.110  11.350  3.3041  0.9995  1.7330
 9485TIP3    H252651   3.029   5.135  11.496  1.1682  2.2615  1.0563
 9486TIP3   OH252652   4.881   5.315  10.906  0.0005  0.1931 -0.1313
 9486TIP3    H152653   4.840   5.304  10.992 -0.2913  0.0741 -0.2826
 9486TIP3    H252654   4.853   5.402  10.877 -1.0276 -0.2923 -0.6899
 9487TIP3   OH252655   7.162   3.950  10.499  0.2266  0.5448 -0.4015
 9487TIP3    H152656   7.246   3.988  10.475  2.1390 -2.4596  0.9630
 9487TIP3    H252657   7.137   3.996  10.580  0.3832  1.6527 -0.9661
 9488TIP3   OH252658   0.115   3.167  10.959  0.2339 -0.3276  0.0961
 9488TIP3    H152659   0.181   3.115  10.912 -0.1333  0.1455 -0.9735
 9488TIP3    H252660   0.151   3.256  10.960 -0.2829 -0.1140 -0.2819
 9489TIP3   OH252661   7.033   0.680  11.101 -0.7959 -0.5057 -0.1689
 9489TIP3    H152662   7.044   0.773  11.120  4.7375 -0.6492 -1.0212
 9489TIP3    H252663   7.039   0.637  11.186 -1.7858 -0.2123  0.0643
 9490TIP3   OH252664   1.184   0.718  10.671  0.2909  0.0848  0.0710
 9490TIP3    H152665   1.107   0.768  10.699 -0.7601 -2.3999  1.9556
 9490TIP3    H252666   1.149   0.632  10.646  2.2711 -0.5070 -0.8624
 9491TIP3   OH252667   6.235   6.953  12.924  0.1523 -0.2429  0.1930
 9491TIP3    H152668   6.206   6.922  13.010 -0.6599 -1.9185 -0.6577
 9491TIP3    H252669   6.160   6.940  12.867  1.0462 -0.1851 -1.0352
 9492TIP3   OH252670   6.027   1.308  11.823  0.6369 -0.2975  0.7024
 9492TIP3    H152671   5.995   1.396  11.841  0.8091 -0.4054  1.6037
 9492TIP3    H252672   6.012   1.295  11.729 -1.6475 -0.2424  1.0243
 9493TIP3   OH252673   0.758   6.332  10.645  0.1083  0.1927 -0.6413
 9493TIP3    H152674   0.753   6.304  10.736 -3.2998  0.8413 -0.4727
 9493TIP3    H252675   0.839   6.294  10.612  0.7827 -1.1660  2.2908
 9494TIP3   OH252676   3.098   4.253  12.161  0.3587 -0.2675  0.4643
 9494TIP3    H152677   3.073   4.345  12.166 -0.8827 -0.4878 -0.9331
 9494TIP3    H252678   3.161   4.248  12.090  1.2849 -0.3518  1.2687
 9495TIP3   OH252679   6.808   0.154  10.483  0.4389  0.0385  0.2253
 9495TIP3    H152680   6.719   0.119  10.477 -0.9533  2.9988  1.6150
 9495TIP3    H252681   6.825   0.159  10.577  1.1249  1.6572  0.0436
 9496TIP3   OH252682   6.125   3.081  12.191 -0.3935 -0.4620 -0.0601
 9496TIP3    H152683   6.188   3.099  12.261 -1.9921  0.4468  1.2335
 9496TIP3    H252684   6.136   3.154  12.130  0.0873 -0.5220 -0.0457
 9497TIP3   OH252685   5.873   4.795  11.482  0.0332 -0.2242 -0.8030
 9497TIP3    H152686   5.926   4.761  11.554 -2.1132  0.6127  1.3160
 9497TIP3    H252687   5.783   4.788  11.514 -0.9499  0.9430 -3.1189
 9498TIP3   OH252688   3.010   4.491  12.195 -0.2036 -0.2856 -0.8535
 9498TIP3    H152689   2.972   4.550  12.130  1.9879  1.6702 -0.5111
 9498TIP3    H252690   3.007   4.541  12.277 -1.1731 -1.9617  0.1943
 9499TIP3   OH252691   3.235   7.635  12.116  0.4587 -0.1515 -0.0701
 9499TIP3    H152692   3.262   7.725  12.136  0.2763 -0.1356  0.1052
 9499TIP3    H252693   3.238   7.630  12.020  3.7795 -0.9716 -0.0500
 9500TIP3   OH252694   0.861   4.176  11.884  0.5583  0.3991 -0.0222
 9500TIP3    H152695   0.858   4.218  11.970 -1.2500  0.4170 -0.0572
 9500TIP3    H252696   0.928   4.224  11.836  1.3989  0.5663  1.2809
 9501TIP3   OH252697   2.049   5.839  12.452 -0.0731 -0.3039 -0.6824
 9501TIP3    H152698   1.980   5.778  12.424 -0.6825  0.2956 -0.5105
 9501TIP3    H252699   2.011   5.926  12.439  0.4532  0.0227 -0.0695
 9502TIP3   OH252700   1.210   0.453  11.116 -0.1691 -0.6319  0.3968
 9502TIP3    H152701   1.233   0.442  11.209 -1.3371 -3.0430  0.4757
 9502TIP3    H252702   1.258   0.531  11.089 -1.8269  1.7986  3.7030
 9503TIP3   OH252703   7.128   1.255  11.303  0.0988  0.2817  0.0662
 9503TIP3    H152704   7.098   1.310  11.230  0.0426  1.0173  0.6276
 9503TIP3    H252705   7.069   1.276  11.375  0.9481  0.5548  0.7105
 9504TIP3   OH252706   5.388   4.956  12.549  0.1630  0.3641  0.2052
 9504TIP3    H152707   5.346   5.038  12.576 -0.3530 -0.3074  1.5681
 9504TIP3    H252708   5.331   4.887  12.585 -0.0754 -0.6399 -1.8931
 9505TIP3   OH252709   2.733   5.335  11.366  0.3600  0.5394 -0.0664
 9505TIP3    H152710   2.722   5.278  11.290  2.1934 -0.0180  0.0371
 9505TIP3    H252711   2.826   5.353  11.369  0.0080  2.5016  0.6950
 9506TIP3   OH252712   2.336   5.409  12.099  0.6736  0.1790 -0.3467
 9506TIP3    H152713   2.419   5.361  12.100  0.3992 -0.3274 -0.7987
 9506TIP3    H252714   2.270   5.341  12.112  0.3369  0.5965  0.1332
 9507TIP3   OH252715   2.626   2.160  11.205  0.3115  0.2009 -0.3702
 9507TIP3    H152716   2.711   2.135  11.241  0.5136  0.5719 -0.5839
 9507TIP3    H252717   2.565   2.146  11.277  0.7038  0.8762  0.1051
 9508TIP3   OH252718   4.534   1.077  11.976  0.3424  0.2153  0.4557
 9508TIP3    H152719   4.522   0.997  11.925  2.5357  0.2946 -0.2570
 9508TIP3    H252720   4.486   1.144  11.927  1.2650  0.0032 -0.7864
 9509TIP3   OH252721   4.080   4.878  12.243  0.8326 -0.2792  0.0896
 9509TIP3    H152722   4.167   4.915  12.226  0.3005  0.4179 -1.2363
 9509TIP3    H252723   4.096   4.784  12.255  1.8720 -0.0256  0.8748
 9510TIP3   OH252724   2.019   5.671  11.356  0.2412  0.2060 -0.0759
 9510TIP3    H152725   2.094   5.722  11.386 -1.5384  2.7122  0.3718
 9510TIP3    H252726   1.996   5.708  11.271  1.1744 -2.4878 -1.6568
 9511TIP3   OH252727   6.127   1.160  13.188 -0.4773  0.0372 -0.5276
 9511TIP3    H152728   6.143   1.196  13.275 -0.4405  1.5263 -1.1152
 9511TIP3    H252729   6.206   1.112  13.166 -0.3736 -0.0991  0.1378
 9512TIP3   OH252730   1.993   3.944  11.368  0.4402  0.4814  0.1455
 9512TIP3    H152731   1.991   3.874  11.433 -1.7710 -1.8787 -2.2006
 9512TIP3    H252732   2.084   3.945  11.337  0.9520  0.0090  1.5703
 9513TIP3   OH252733   7.361   4.615  10.485  0.1742 -0.2827 -0.8363
 9513TIP3    H152734   7.373   4.587  10.576  0.9669  0.9260 -0.5477
 9513TIP3    H252735   7.270   4.644  10.481  0.2134 -0.0896 -0.3590
 9514TIP3   OH252736   2.858   1.125  11.069 -0.5139 -0.5898  0.1480
 9514TIP3    H152737   2.850   1.030  11.070 -0.0911 -0.6228  0.3992
 9514TIP3    H252738   2.775   1.157  11.104 -1.3798 -0.8172 -1.5976
 9515TIP3   OH252739   5.037   6.964  11.955 -0.3956 -0.0266 -0.2686
 9515TIP3    H152740   4.971   7.009  12.008  1.3887 -0.7274  2.7824
 9515TIP3    H252741   5.006   6.874  11.950  0.1963 -0.3352  1.0862
 9516TIP3   OH252742   3.500   0.050  11.333  0.1232  0.3123  0.3645
 9516TIP3    H152743   3.417   0.004  11.338  0.5572 -0.4050  3.9710
 9516TIP3    H252744   3.563  -0.017  11.307  0.1100 -0.2085  1.5664
 9517TIP3   OH252745   2.224   5.005  11.114 -0.1380  0.1889  0.2768
 9517TIP3    H152746   2.224   5.050  11.029 -1.7028 -0.3357 -0.0437
 9517TIP3    H252747   2.149   5.043  11.160 -0.3980 -0.8152  0.6975
 9518TIP3   OH252748   6.939   0.940  10.561 -0.5091  0.7118 -0.0676
 9518TIP3    H152749   6.854   0.906  10.536 -0.9562  1.9433 -0.3009
 9518TIP3    H252750   7.001   0.871  10.538 -1.3998 -0.0108 -0.3124
 9519TIP3   OH252751   2.694   1.453  10.648  0.2888 -0.0144  0.0221
 9519TIP3    H152752   2.616   1.400  10.630 -0.7584  1.3574  0.4089
 9519TIP3    H252753   2.750   1.395  10.699 -0.6666 -0.8847  0.1201
 9520TIP3   OH252754   7.452   6.641  11.289  0.6639  0.3340 -0.1465
 9520TIP3    H152755   7.537   6.616  11.254  0.6820 -0.1003  0.2004
 9520TIP3    H252756   7.441   6.733  11.264  1.7153  0.7215  0.7540
 9521TIP3   OH252757   0.971   7.184  12.681 -0.5779 -0.1859 -0.5165
 9521TIP3    H152758   0.883   7.148  12.689 -1.3135  1.1811 -1.9068
 9521TIP3    H252759   1.015   7.160  12.763 -2.4434 -0.3457  0.4779
 9522TIP3   OH252760   0.479   6.983  10.728 -0.3989 -0.5372  0.1636
 9522TIP3    H152761   0.389   6.955  10.715 -0.7570  0.3036  0.7273
 9522TIP3    H252762   0.492   7.055  10.666 -1.0420  1.2110  1.9206
 9523TIP3   OH252763   4.569   6.195  12.023  0.3144 -0.2838  0.0514
 9523TIP3    H152764   4.507   6.258  12.060 -0.3919 -0.9410  0.0222
 9523TIP3    H252765   4.532   6.109  12.045  0.6440 -0.6912 -0.8991
 9524TIP3   OH252766   2.663   0.966  10.470 -0.2400 -0.5560 -0.0460
 9524TIP3    H152767   2.684   1.056  10.445  1.3790 -1.0531 -0.5624
 9524TIP3    H252768   2.685   0.962  10.563 -2.4059  0.1437  0.5775
 9525TIP3   OH252769   4.123   6.543  11.820  0.5543  0.1326 -0.5090
 9525TIP3    H152770   4.053   6.492  11.860 -1.3326 -0.2290 -3.8829
 9525TIP3    H252771   4.115   6.630  11.859 -0.8209 -0.2990  0.2239
 9526TIP3   OH252772   3.793   0.678  11.857 -0.0467 -0.1532  0.4802
 9526TIP3    H152773   3.761   0.595  11.893 -1.5144  0.4359  0.5765
 9526TIP3    H252774   3.762   0.744  11.918  4.4558  0.2971  2.7034
 9527TIP3   OH252775   7.378   1.212  11.405  0.4760 -0.1509  0.0817
 9527TIP3    H152776   7.346   1.215  11.495  0.8852  2.2071  0.2026
 9527TIP3    H252777   7.301   1.227  11.351  0.5203  0.1966  0.1168
 9528TIP3   OH252778   7.386   1.630  12.899 -0.1119  0.5429  0.1009
 9528TIP3    H152779   7.470   1.671  12.878 -0.4558  2.0069  1.3214
 9528TIP3    H252780   7.396   1.602  12.990 -1.0469  1.0465  0.3682
 9529TIP3   OH252781   5.282   2.658  12.654 -0.4986  0.1728  0.1825
 9529TIP3    H152782   5.284   2.617  12.568 -0.2178  0.5861 -0.0132
 9529TIP3    H252783   5.196   2.637  12.689  0.1245 -1.7250  0.6663
 9530TIP3   OH252784   0.476   2.149  10.643 -0.1386 -0.0071 -0.3506
 9530TIP3    H152785   0.471   2.089  10.569  1.9760  1.1440 -1.5302
 9530TIP3    H252786   0.540   2.214  10.616  0.7847  0.4153  2.5429
 9531TIP3   OH252787   7.270   5.893  11.386  0.2504  0.2468 -0.4583
 9531TIP3    H152788   7.316   5.977  11.380  0.2016  0.1655 -2.1893
 9531TIP3    H252789   7.242   5.874  11.297 -1.2765 -0.7642  0.1924
 9532TIP3   OH252790   5.872   6.423  12.539 -0.0428 -0.4785  0.2273
 9532TIP3    H152791   5.824   6.381  12.467  0.5366  0.1131 -0.5260
 9532TIP3    H252792   5.841   6.379  12.618  0.0230 -1.8133 -0.4666
 9533TIP3   OH252793   4.926   0.488  11.880  0.7251 -0.8037  0.6278
 9533TIP3    H152794   4.867   0.415  11.859 -0.0138 -0.1590  0.3953
 9533TIP3    H252795   4.959   0.517  11.795  0.9221 -0.7953  0.7077
 9534TIP3   OH252796   2.530   3.430  11.411  0.5072  0.1865 -0.1371
 9534TIP3    H152797   2.582   3.366  11.365 -0.2706 -0.8200  0.3413
 9534TIP3    H252798   2.446   3.432  11.364  0.3850  0.5571  0.0860
 9535TIP3   OH252799   5.092   4.164  10.918 -0.1360 -0.6082  0.2797
 9535TIP3    H152800   5.041   4.175  10.998 -1.7527 -1.2842 -0.6296
 9535TIP3    H252801   5.173   4.122  10.948 -1.6265 -2.9365  1.3197
 9536TIP3   OH252802   2.919   4.639  11.959 -0.1296 -0.1487 -0.4041
 9536TIP3    H152803   2.999   4.631  11.908 -1.3797 -2.6950 -2.2015
 9536TIP3    H252804   2.868   4.706  11.913  0.3150  0.3165 -0.2180
 9537TIP3   OH252805   3.463   0.921  12.240  0.1122  0.5567  0.0791
 9537TIP3    H152806   3.500   0.855  12.298  2.3349  0.9231 -0.8374
 9537TIP3    H252807   3.448   0.875  12.157  0.5123  0.9110 -0.1921
 9538TIP3   OH252808   2.334   0.419  11.078 -0.2206  0.4159 -0.0681
 9538TIP3    H152809   2.260   0.389  11.130  0.0991  1.5675  1.0951
 9538TIP3    H252810   2.400   0.351  11.089 -0.8208 -0.2489 -0.5010
 9539TIP3   OH252811   2.811   7.318  11.625  0.5635 -0.0595 -0.4531
 9539TIP3    H152812   2.755   7.262  11.571  0.6560 -0.4327 -0.1692
 9539TIP3    H252813   2.784   7.299  11.715 -0.7544  1.7861 -0.4043
 9540TIP3   OH252814   4.513   7.291  11.107  0.2056 -0.0215 -0.1875
 9540TIP3    H152815   4.521   7.224  11.039 -0.3991  1.1374 -1.4700
 9540TIP3    H252816   4.436   7.342  11.081  1.1617  1.7191  0.1904
 9541TIP3   OH252817   2.577   3.709  12.688  0.2521 -0.2844  0.1928
 9541TIP3    H152818   2.647   3.772  12.674 -0.1251 -0.0710 -0.7974
 9541TIP3    H252819   2.501   3.747  12.644 -0.7439 -0.0684  2.0086
 9542TIP3   OH252820   7.527   3.440  10.846  0.2501 -0.6160 -0.0553
 9542TIP3    H152821   7.529   3.356  10.893 -1.1745 -0.9585 -0.5491
 9542TIP3    H252822   7.454   3.488  10.886 -0.8408 -0.8194 -1.6850
 9543TIP3   OH252823   5.614   4.720  11.601 -0.3189  0.0605  0.1224
 9543TIP3    H152824   5.539   4.754  11.649  0.1327  2.3022 -0.6104
 9543TIP3    H252825   5.592   4.734  11.509  0.5406 -0.2442 -0.1452
 9544TIP3   OH252826   0.811   4.604  10.988  0.0644 -0.7054  0.0378
 9544TIP3    H152827   0.759   4.642  11.059 -0.9904 -0.3636 -0.8814
 9544TIP3    H252828   0.809   4.670  10.919  0.6474 -1.2355 -0.5017
 9545TIP3   OH252829  -0.039   7.125  11.956 -0.5053 -0.0541  0.0989
 9545TIP3    H152830  -0.067   7.216  11.955  0.4926  0.2825  0.8768
 9545TIP3    H252831   0.056   7.129  11.941 -0.3963 -0.9275  0.4832
 9546TIP3   OH252832   1.080   2.387  10.754 -0.0575 -0.3703 -0.1400
 9546TIP3    H152833   1.172   2.407  10.735 -0.4421 -1.5742 -4.2278
 9546TIP3    H252834   1.078   2.292  10.764 -0.9256 -0.4757 -1.0942
 9547TIP3   OH252835   3.196   4.610  12.611  0.3654  0.1184  0.4870
 9547TIP3    H152836   3.268   4.659  12.650 -0.0204 -0.9113  2.6696
 9547TIP3    H252837   3.237   4.558  12.542  0.9109  2.7956 -1.3383
 9548TIP3   OH252838   3.757   4.874  11.396 -0.2056 -0.6488  0.0138
 9548TIP3    H152839   3.697   4.877  11.470 -0.9520 -0.4172 -0.5838
 9548TIP3    H252840   3.714   4.926  11.328  1.4402  0.9276  0.1081
 9549TIP3   OH252841   7.484   4.124  11.182 -0.2447  0.4005 -0.2325
 9549TIP3    H152842   7.525   4.202  11.218  2.0637 -0.4375 -0.9306
 9549TIP3    H252843   7.463   4.146  11.092 -2.2469  1.1161  0.3559
 9550TIP3   OH252844   0.701   1.846  12.698  0.7292 -0.2458  0.5508
 9550TIP3    H152845   0.605   1.841  12.695  0.6772  0.6156  0.4070
 9550TIP3    H252846   0.729   1.758  12.723 -0.1126 -0.4253  0.9069
 9551TIP3   OH252847   6.946   1.901  12.145 -0.6221  0.0326  0.3982
 9551TIP3    H152848   6.990   1.962  12.086 -0.3314  0.3680  0.9565
 9551TIP3    H252849   6.965   1.933  12.233 -2.1518  0.3084  0.6646
 9552TIP3   OH252850   6.652   2.217  11.225  0.1957 -0.2652  0.0712
 9552TIP3    H152851   6.682   2.302  11.256 -1.3652  0.3146  0.0693
 9552TIP3    H252852   6.594   2.185  11.294  0.7979 -1.3606  0.0898
 9553TIP3   OH252853   4.960   1.268  10.587  0.0481  0.5232 -0.2167
 9553TIP3    H152854   4.989   1.359  10.573 -1.0452  0.9546  0.2168
 9553TIP3    H252855   4.866   1.275  10.600  0.0895 -0.5801  0.8079
 9554TIP3   OH252856   5.649   3.211  12.469 -0.2643 -0.1636  0.6562
 9554TIP3    H152857   5.718   3.225  12.404 -0.1628 -0.2116  0.7527
 9554TIP3    H252858   5.681   3.256  12.547 -0.5214  0.1494  0.5864
 9555TIP3   OH252859   2.973   5.366  11.219  0.7098 -0.5918 -0.3012
 9555TIP3    H152860   2.991   5.305  11.290  0.0416 -0.9521 -0.4385
 9555TIP3    H252861   2.924   5.315  11.154  0.8188 -0.1199 -0.7674
 9556TIP3   OH252862   2.991   0.121  12.786 -0.1565 -0.1909  1.1392
 9556TIP3    H152863   2.903   0.144  12.816 -0.6120  1.2259 -1.0055
 9556TIP3    H252864   2.977   0.080  12.701  1.2578  1.2045  0.1659
 9557TIP3   OH252865   2.645   1.462  12.104  0.0753  0.1323 -0.4810
 9557TIP3    H152866   2.710   1.398  12.075  0.9549  0.7485  0.0707
 9557TIP3    H252867   2.634   1.443  12.198 -1.1264 -0.4571 -0.7287
 9558TIP3   OH252868   6.391   7.075  11.261 -0.0094 -0.4495  0.1114
 9558TIP3    H152869   6.412   7.124  11.181  0.0531 -1.3444 -0.4268
 9558TIP3    H252870   6.468   7.085  11.316 -1.1298  2.6208  1.3303
 9559TIP3   OH252871   6.260   4.258  11.918 -0.1058 -0.1928 -0.4565
 9559TIP3    H152872   6.215   4.277  11.835  0.0059 -0.7610 -0.6552
 9559TIP3    H252873   6.314   4.335  11.934  0.5911 -0.4595 -1.4080
 9560TIP3   OH252874   4.190   2.806  11.957  0.2019 -0.2693 -0.3430
 9560TIP3    H152875   4.280   2.836  11.945 -0.3020  0.3943 -2.8927
 9560TIP3    H252876   4.136   2.879  11.927 -1.1207 -1.7830 -1.8338
 9561TIP3   OH252877   4.305   1.496  11.807 -0.0644  0.2244  0.1420
 9561TIP3    H152878   4.287   1.525  11.896 -0.6602 -2.0876  0.8497
 9561TIP3    H252879   4.231   1.530  11.755 -0.7430 -0.0161  0.9273
 9562TIP3   OH252880   2.137   4.474  12.860 -0.3609  0.2540  0.0359
 9562TIP3    H152881   2.192   4.405  12.899  0.1191 -0.0576 -1.1532
 9562TIP3    H252882   2.088   4.509  12.934  1.1184  0.2375  1.0866
 9563TIP3   OH252883   5.053   2.075  13.523  0.1857  0.1766  0.1603
 9563TIP3    H152884   5.067   2.098  13.431 -0.1384 -2.8941 -0.7464
 9563TIP3    H252885   5.141   2.058  13.556  0.1812 -0.3506 -0.0839
 9564TIP3   OH252886   7.117   0.243  10.854 -0.6904 -0.6470  0.1306
 9564TIP3    H152887   7.201   0.221  10.894  1.9007  1.5961 -3.3934
 9564TIP3    H252888   7.092   0.326  10.895 -0.0753 -0.2982 -0.1861
 9565TIP3   OH252889   7.369   0.356  10.031  0.0978  0.3544  0.4030
 9565TIP3    H152890   7.281   0.326  10.006  0.7338 -1.4490  0.1654
 9565TIP3    H252891   7.384   0.317  10.117  0.4583  1.1223  0.6926
 9566TIP3   OH252892   2.738   0.565  11.076  0.1330  0.4669 -0.3101
 9566TIP3    H152893   2.724   0.630  11.145 -1.0258 -0.3115  0.2239
 9566TIP3    H252894   2.719   0.481  11.118  2.6503 -0.3585 -0.6987
 9567TIP3   OH252895   3.136   3.359  12.681  0.1972 -0.0890 -0.2213
 9567TIP3    H152896   3.184   3.377  12.762  0.9200 -0.3320 -0.5846
 9567TIP3    H252897   3.200   3.315  12.624 -0.8243 -1.7057 -0.2072
 9568TIP3   OH252898   3.062   5.369  13.211  0.0266 -0.0129  1.1254
 9568TIP3    H152899   3.060   5.349  13.305 -2.2728  0.1754  1.1772
 9568TIP3    H252900   2.981   5.418  13.196  1.4252  1.9061 -0.5794
 9569TIP3   OH252901   6.586   7.000  10.422  0.3208 -0.6847 -0.1841
 9569TIP3    H152902   6.551   6.913  10.400  0.4270 -0.9293  0.5764
 9569TIP3    H252903   6.673   7.001  10.383  0.1919 -0.7972 -0.4761
 9570TIP3   OH252904   5.137   5.682  11.687  0.3663  0.6241 -0.3424
 9570TIP3    H152905   5.232   5.693  11.694  0.4010 -0.5641  2.1782
 9570TIP3    H252906   5.126   5.593  11.653  0.2129 -0.0161  1.2984
 9571TIP3   OH252907   5.470   2.637  13.086  0.3849  0.1923  0.8534
 9571TIP3    H152908   5.545   2.696  13.088  0.5678 -0.0082  0.2087
 9571TIP3    H252909   5.508   2.550  13.087  0.1347  0.0836  1.1438
 9572TIP3   OH252910   2.851   4.351  11.947  0.1803 -0.4293 -0.5401
 9572TIP3    H152911   2.888   4.438  11.958 -1.1582  0.0574  0.2600
 9572TIP3    H252912   2.771   4.365  11.895 -0.6559 -1.0003  0.5353
 9573TIP3   OH252913   0.632   6.756  10.592 -0.0686 -0.5089  0.2359
 9573TIP3    H152914   0.630   6.807  10.511 -2.2704 -1.2947 -0.2923
 9573TIP3    H252915   0.567   6.797  10.649 -0.9117 -1.8590  0.3075
 9574TIP3   OH252916   1.188   6.015  13.595  0.2954 -0.3495  0.4159
 9574TIP3    H152917   1.137   5.934  13.599  2.5409 -2.1011 -2.5725
 9574TIP3    H252918   1.138   6.073  13.538  0.3733 -1.0140 -0.3306
 9575TIP3   OH252919   7.082   0.384  11.557  0.3294  0.2076  0.2777
 9575TIP3    H152920   7.093   0.296  11.520 -1.3958  0.8878 -2.0860
 9575TIP3    H252921   7.023   0.371  11.632 -0.0777 -0.6379 -0.1701
 9576TIP3   OH252922   0.612   0.419  10.651  0.4562 -0.1169  0.1163
 9576TIP3    H152923   0.575   0.445  10.736  2.0885  0.0770  0.8069
 9576TIP3    H252924   0.623   0.501  10.603 -2.3411 -0.3663 -1.1767
 9577TIP3   OH252925   0.311   5.306  11.266 -0.2859 -0.7459 -0.0426
 9577TIP3    H152926   0.252   5.350  11.326 -0.6498  0.9136 -1.5076
 9577TIP3    H252927   0.354   5.377  11.218  3.2344 -1.8371  1.1932
 9578TIP3   OH252928   6.923   6.086  12.422  0.2105  0.0060 -0.4711
 9578TIP3    H152929   6.968   6.114  12.342 -0.9477  1.1977 -0.7417
 9578TIP3    H252930   6.894   5.996  12.404 -3.0294  1.3208 -2.8497
 9579TIP3   OH252931   5.609   6.954  12.757 -0.0849  0.2230  0.2627
 9579TIP3    H152932   5.677   7.018  12.778  0.5546  1.1028 -3.7236
 9579TIP3    H252933   5.653   6.869  12.765  0.2840  0.5111  1.5184
 9580TIP3   OH252934   4.004   1.828  10.844 -0.1548  0.5496 -0.4225
 9580TIP3    H152935   3.985   1.810  10.936  1.2349  0.6179 -0.1078
 9580TIP3    H252936   4.009   1.923  10.838  0.2496  0.5266 -0.4664
 9581TIP3   OH252937   2.525   6.784  12.026  0.2189  0.5966  0.4499
 9581TIP3    H152938   2.542   6.809  12.117  0.4053  2.1759  0.0265
 9581TIP3    H252939   2.612   6.766  11.991  0.1568  0.0853  0.5611
 9582TIP3   OH252940   5.237   1.611  11.697 -0.7638 -0.6003  0.0197
 9582TIP3    H152941   5.304   1.590  11.762 -0.4511 -1.1227 -0.4586
 9582TIP3    H252942   5.158   1.627  11.749 -0.1351  0.6742  0.6400
 9583TIP3   OH252943   3.327   1.530  12.109  0.2286  0.2839 -0.5162
 9583TIP3    H152944   3.258   1.596  12.108  1.1148  1.2547  0.1816
 9583TIP3    H252945   3.286   1.452  12.070 -1.3323  0.7409  0.1113
 9584TIP3   OH252946   5.931   1.086  12.667  0.0693 -0.5014  0.0314
 9584TIP3    H152947   6.009   1.078  12.721  1.3771 -0.3896 -1.7541
 9584TIP3    H252948   5.914   0.997  12.636 -0.1529 -0.4304 -0.0535
 9585TIP3   OH252949   5.001   1.153  11.209  0.4185 -0.0704  0.3288
 9585TIP3    H152950   5.034   1.243  11.213  0.5147 -0.1526  1.5766
 9585TIP3    H252951   4.964   1.146  11.121 -1.2774  1.7814  0.8124
 9586TIP3   OH252952   2.832   7.280  11.225 -0.2467  0.0191  0.0136
 9586TIP3    H152953   2.858   7.223  11.298 -0.7829  0.6804  0.7399
 9586TIP3    H252954   2.771   7.226  11.174  1.0865 -0.8983 -0.6925
 9587TIP3   OH252955   1.640   5.568  12.262 -0.0884 -0.4799  0.3666
 9587TIP3    H152956   1.630   5.473  12.255 -0.4135 -0.6950  2.9542
 9587TIP3    H252957   1.554   5.598  12.290  0.0871  0.5745 -0.1961
 9588TIP3   OH252958   3.396   4.746  12.726  0.6713 -0.1578  0.7096
 9588TIP3    H152959   3.460   4.817  12.729  0.4456  0.0071  3.2200
 9588TIP3    H252960   3.363   4.739  12.815 -2.6629 -0.4072 -0.4177
 9589TIP3   OH252961   5.121   0.471  11.317 -0.5170 -0.1309 -0.7672
 9589TIP3    H152962   5.126   0.564  11.339 -1.3848 -0.3771  0.6049
 9589TIP3    H252963   5.204   0.434  11.349  0.2973  0.3266 -2.2771
 9590TIP3   OH252964   4.717   6.259  11.580  0.1209  0.4620 -0.1984
 9590TIP3    H152965   4.673   6.341  11.559  0.1133  0.1222 -1.6024
 9590TIP3    H252966   4.805   6.269  11.543 -0.2524 -0.5894 -1.4418
 9591TIP3   OH252967   2.704   1.920  12.105  0.0002 -0.2010 -0.1313
 9591TIP3    H152968   2.653   1.842  12.083  0.0774 -0.6936  1.3099
 9591TIP3    H252969   2.795   1.894  12.090  0.0490 -0.5175  0.6485
 9592TIP3   OH252970   7.171   7.529  12.692 -0.6381 -0.0803 -0.0837
 9592TIP3    H152971   7.166   7.528  12.788  0.8923  0.7970  0.0461
 9592TIP3    H252972   7.265   7.535  12.674 -0.9754  1.3126 -1.5996
 9593TIP3   OH252973   5.258   5.206  12.183  0.3535  0.0825  0.4871
 9593TIP3    H152974   5.314   5.158  12.122  0.1209  1.2919 -0.7258
 9593TIP3    H252975   5.175   5.216  12.137  0.5170  1.9629  0.5135
 9594TIP3   OH252976   5.220   1.454  11.475 -0.4750  1.4326  0.2670
 9594TIP3    H152977   5.202   1.517  11.546  1.0034  1.5348  0.5813
 9594TIP3    H252978   5.315   1.455  11.466 -0.3303 -1.3364  0.8002
 9595TIP3   OH252979   2.591   0.278  11.136  0.3597 -0.2399  0.6388
 9595TIP3    H152980   2.558   0.190  11.115 -0.8236  0.0039  1.4045
 9595TIP3    H252981   2.585   0.284  11.231 -0.8071  1.1245  0.5137
 9596TIP3   OH252982   6.240   7.004  12.030 -0.1573 -0.0620 -0.3005
 9596TIP3    H152983   6.311   6.962  11.980  1.7553  1.1655  1.2040
 9596TIP3    H252984   6.286   7.054  12.098 -2.5124  0.8425  0.7210
 9597TIP3   OH252985   7.358   6.908  12.361 -0.4026  0.3945  0.1383
 9597TIP3    H152986   7.273   6.949  12.344 -1.5145 -1.5836  0.5951
 9597TIP3    H252987   7.375   6.856  12.283  0.4400  0.8304  0.0237
 9598TIP3   OH252988   3.599   1.664  12.623  0.0664 -0.3987 -0.4899
 9598TIP3    H152989   3.615   1.753  12.655 -0.0510 -0.2200 -0.9268
 9598TIP3    H252990   3.537   1.674  12.552  0.5065 -0.7693 -0.9402
 9599TIP3   OH252991   1.471   3.296  11.528 -0.1581 -0.0549 -0.4126
 9599TIP3    H152992   1.513   3.253  11.453  1.7671  1.6617 -0.4278
 9599TIP3    H252993   1.378   3.298  11.506  0.2487 -0.4214 -2.3350
 9600TIP3   OH252994   5.128   7.363  10.748  0.1210  0.3934 -0.0769
 9600TIP3    H152995   5.048   7.415  10.760 -1.0184 -0.6222 -2.7002
 9600TIP3    H252996   5.187   7.421  10.700 -0.4427 -0.0365 -1.3316
 9601TIP3   OH252997   1.043   0.024  11.641 -0.1695  0.2013  0.7225
 9601TIP3    H152998   1.038   0.119  11.630 -0.9792  0.1137  0.2145
 9601TIP3    H252999   1.042  -0.011  11.552 -0.7142 -0.3083  0.9195
 9602TIP3   OH253000   1.606   3.162  13.371  0.2842 -0.3682 -0.0707
 9602TIP3    H153001   1.568   3.204  13.449  0.9039 -2.1301  1.2472
 9602TIP3    H253002   1.533   3.114  13.332  0.4408 -1.2724  0.7145
 9603TIP3   OH253003   5.850   0.114  12.217 -0.4178 -0.0478  0.2144
 9603TIP3    H153004   5.885   0.192  12.260 -1.0224  1.5860 -2.0726
 9603TIP3    H253005   5.755   0.124  12.222 -0.4986 -0.1742 -0.8159
 9604TIP3   OH253006   7.637   0.044  12.215 -0.2678 -0.5367  0.4764
 9604TIP3    H153007   7.594  -0.003  12.143  1.3831 -0.0169 -0.9469
 9604TIP3    H253008   7.650   0.132  12.180  2.2139 -0.7699  0.6447
 9605TIP3   OH253009   3.097   0.053  12.397  0.1097 -0.0694 -0.2822
 9605TIP3    H153010   3.129   0.123  12.454  1.2300  0.1852 -1.1885
 9605TIP3    H253011   3.061   0.099  12.321  1.1017 -0.4610 -1.0105
 9606TIP3   OH253012   0.121   4.739  12.460  0.3792  0.7241  0.0802
 9606TIP3    H153013   0.122   4.782  12.375  0.8000 -1.4342 -1.0936
 9606TIP3    H253014   0.073   4.799  12.517  0.3629  2.3840 -1.5774
 9607TIP3   OH253015   6.647   4.357  12.183 -0.0063 -0.1829 -0.0012
 9607TIP3    H153016   6.559   4.323  12.199  0.1912 -0.6186  0.1665
 9607TIP3    H253017   6.679   4.383  12.269 -0.9141  2.3537 -0.3367
 9608TIP3   OH253018   0.657   0.118  10.467  0.2125  0.5204 -0.6509
 9608TIP3    H153019   0.746   0.138  10.494  0.2097  2.5324 -1.9055
 9608TIP3    H253020   0.664   0.093  10.375 -0.3660 -0.8065 -0.3575
 9609TIP3   OH253021   2.706   0.354  12.328  0.3206  0.0118  0.2516
 9609TIP3    H153022   2.728   0.262  12.342  0.3680 -0.3046 -1.6858
 9609TIP3    H253023   2.610   0.357  12.337  0.0045 -0.7715 -2.1749
 9610TIP3   OH253024   2.017   2.209  11.677  0.5688  0.5065 -0.2570
 9610TIP3    H153025   2.092   2.213  11.736 -0.4465 -0.6692  1.1842
 9610TIP3    H253026   1.968   2.289  11.695 -0.8175 -0.7475  2.1203
 9611TIP3   OH253027   2.363   4.501  11.294 -0.0305 -0.1226 -0.1649
 9611TIP3    H153028   2.444   4.527  11.338 -0.6515  1.1590  0.2933
 9611TIP3    H253029   2.349   4.569  11.228 -1.2878  0.2921  0.4987
 9612TIP3   OH253030   3.173   6.770  11.282  0.5971  0.2184  0.0973
 9612TIP3    H153031   3.250   6.714  11.296  1.0864  0.9931  0.5050
 9612TIP3    H253032   3.142   6.744  11.195  1.8848  0.5561 -0.4929
 9613TIP3   OH253033   0.360   7.679  12.021 -0.1552  0.1258  0.0742
 9613TIP3    H153034   0.440   7.629  12.036 -2.3103 -3.1690  1.7150
 9613TIP3    H253035   0.369   7.757  12.076  1.6423 -0.4863  0.7137
 9614TIP3   OH253036   3.682   7.701  11.812 -0.0709 -0.7262  0.0704
 9614TIP3    H153037   3.625   7.701  11.888  1.9588 -1.6343  1.7090
 9614TIP3    H253038   3.762   7.746  11.842  0.7264 -0.9559 -1.5796
 9615TIP3   OH253039   3.065   3.263  11.825 -0.0450 -0.2968  0.3365
 9615TIP3    H153040   3.136   3.209  11.860  1.4442  0.2317 -1.6557
 9615TIP3    H253041   3.067   3.343  11.878  2.0540  0.4297 -0.7234
 9616TIP3   OH253042   0.395   3.635  10.875 -0.1305 -0.0538 -0.2588
 9616TIP3    H153043   0.371   3.704  10.935  0.4059 -0.8641  0.9375
 9616TIP3    H253044   0.468   3.589  10.919  0.3062 -0.6439 -1.5352
 9617TIP3   OH253045   0.068   5.161  11.416 -0.4267 -0.2580  0.3458
 9617TIP3    H153046   0.104   5.133  11.332 -0.4682  0.8268 -0.0555
 9617TIP3    H253047  -0.006   5.102  11.432 -1.8039  0.8363 -1.4748
 9618TIP3   OH253048   4.915   4.078  12.615  0.4108 -0.7654  0.5251
 9618TIP3    H153049   4.954   3.999  12.577  1.8082  1.3146 -2.7891
 9618TIP3    H253050   4.845   4.101  12.555  0.9358  1.2473  0.6211
 9619TIP3   OH253051   6.010   0.250  10.717  0.0830 -0.5161 -0.3262
 9619TIP3    H153052   5.959   0.268  10.796 -1.3011  0.6792 -1.4114
 9619TIP3    H253053   5.977   0.314  10.653  0.4007 -2.1214 -2.1791
 9620TIP3   OH253054   6.299   1.454  11.734  0.0256 -0.5489  0.0904
 9620TIP3    H153055   6.246   1.490  11.805 -1.8065 -1.9507 -0.4535
 9620TIP3    H253056   6.389   1.461  11.764 -0.4694  1.6766  1.2174
 9621TIP3   OH253057   5.029   7.138  10.615  0.7604  0.4061 -0.2777
 9621TIP3    H153058   5.078   7.202  10.666 -2.8900  3.0114  0.4067
 9621TIP3    H253059   4.971   7.191  10.560 -2.5073 -2.2488  0.2877
 9622TIP3   OH253060   1.639   3.798  12.002  0.6256  0.8949  0.6584
 9622TIP3    H153061   1.565   3.760  12.049  1.8918  0.4582  2.4003
 9622TIP3    H253062   1.711   3.736  12.017  0.9829  0.4355 -2.3790
 9623TIP3   OH253063   2.482   2.732  12.267  0.0824 -0.3712 -0.4055
 9623TIP3    H153064   2.507   2.698  12.352  2.2054  1.4767 -0.1951
 9623TIP3    H253065   2.464   2.654  12.214 -1.7654 -1.5549  1.7863
 9624TIP3   OH253066   0.415   0.002  10.549  0.0960  0.1684 -0.6846
 9624TIP3    H153067   0.325  -0.028  10.560 -0.3235  2.0303  1.6184
 9624TIP3    H253068   0.468  -0.077  10.557 -1.2054 -0.6289  0.4515
 9625TIP3   OH253069   4.015   6.066  11.996  0.4374  0.2059 -0.6704
 9625TIP3    H153070   3.966   6.054  12.078  0.4711  1.5055 -0.4367
 9625TIP3    H253071   4.092   6.116  12.022  0.6121  0.3487 -1.4430
 9626TIP3   OH253072   1.065   1.909  11.736 -0.0677  0.2450  0.3722
 9626TIP3    H153073   1.005   1.848  11.693  0.4019  0.6277 -0.8688
 9626TIP3    H253074   1.149   1.862  11.737  0.0782  0.5051  0.2586
 9627TIP3   OH253075   7.308   0.452  12.903  0.2442 -0.3170  0.0282
 9627TIP3    H153076   7.238   0.517  12.901  0.6813  0.1663 -2.0791
 9627TIP3    H253077   7.362   0.472  12.826  2.5148 -0.8978  1.3890
 9628TIP3   OH253078   1.122   3.214  13.128 -0.0359  0.1365  0.7125
 9628TIP3    H153079   1.034   3.178  13.141  0.0449 -0.2333  0.2668
 9628TIP3    H253080   1.148   3.248  13.214 -0.5333  0.0705  0.8906
 9629TIP3   OH253081   2.059   6.818  11.264 -0.5366 -0.4780 -0.0503
 9629TIP3    H153082   2.029   6.761  11.194 -0.2115  1.3165 -1.7199
 9629TIP3    H253083   1.983   6.830  11.320 -1.5301 -0.0074 -1.4524
 9630TIP3   OH253084   7.125   3.476  12.669 -0.2511 -0.0113 -0.4656
 9630TIP3    H153085   7.169   3.413  12.612  0.3952 -0.4901  0.5299
 9630TIP3    H253086   7.033   3.471  12.643 -0.2072 -1.3512 -0.4372
 9631TIP3   OH253087   2.270   5.937  11.853 -0.0762  0.0509 -0.5499
 9631TIP3    H153088   2.254   5.883  11.930  1.1815  0.5240  0.0675
 9631TIP3    H253089   2.348   5.898  11.813 -0.3854  0.1577 -1.2686
 9632TIP3   OH253090   2.531   3.122  12.675 -0.4796  0.0610  0.2116
 9632TIP3    H153091   2.521   3.029  12.697 -0.0268  0.5133  2.6541
 9632TIP3    H253092   2.443   3.150  12.649 -0.7119 -0.9403 -0.1280
 9633TIP3   OH253093   4.732   4.584  11.086  0.1147 -0.4353  0.0704
 9633TIP3    H153094   4.745   4.492  11.063 -3.7213 -1.0070 -0.3762
 9633TIP3    H253095   4.679   4.583  11.165  0.4859  1.4445  0.3997
 9634TIP3   OH253096   4.402   5.673  13.255  0.0700  0.2008  0.0312
 9634TIP3    H153097   4.356   5.672  13.340  1.1885 -0.8972  0.6559
 9634TIP3    H253098   4.342   5.626  13.196  0.3333 -1.2451  0.8431
 9635TIP3   OH253099   7.114   3.128  11.700 -0.1187 -0.1634  0.0967
 9635TIP3    H153100   7.060   3.112  11.623  0.6398 -2.0067 -0.1057
 9635TIP3    H253101   7.138   3.041  11.731  0.4079  0.5608  1.8480
 9636TIP3   OH253102   5.599   5.152  13.035  0.4099  0.0409  0.6080
 9636TIP3    H153103   5.661   5.106  12.978 -0.2716  1.1282 -1.1172
 9636TIP3    H253104   5.604   5.243  13.006 -2.0079  0.1623  0.3778
 9637TIP3   OH253105   7.443   1.500  12.264 -0.1905 -0.4208  0.7867
 9637TIP3    H153106   7.494   1.539  12.193 -1.4183 -0.0804  0.0448
 9637TIP3    H253107   7.352   1.513  12.237 -0.6626 -2.2208  1.4034
 9638TIP3   OH253108   3.541   7.651  12.035  0.5021  0.4548  0.0399
 9638TIP3    H153109   3.453   7.662  12.071  0.1493  2.1199 -1.2373
 9638TIP3    H253110   3.566   7.563  12.061 -1.9416 -0.4490 -0.4393
 9639TIP3   OH253111   2.401   7.251  12.081 -0.1038 -0.6037 -0.0843
 9639TIP3    H153112   2.462   7.325  12.091 -1.4437  0.6977 -0.9990
 9639TIP3    H253113   2.322   7.291  12.044 -0.7812 -2.5627 -0.8669
 9640TIP3   OH253114   6.755   4.875  12.189 -0.0491  0.7625 -0.1057
 9640TIP3    H153115   6.779   4.968  12.192 -1.4141  1.1530 -0.4824
 9640TIP3    H253116   6.747   4.856  12.096  0.2788  0.2414 -0.0294
 9641TIP3   OH253117   0.589   1.369  11.570  0.1296  0.5855  0.2552
 9641TIP3    H153118   0.551   1.345  11.485 -2.0312 -1.4383  1.6484
 9641TIP3    H253119   0.667   1.420  11.548  0.1997 -0.6522 -2.9520
 9642TIP3   OH253120   7.186   3.816  12.237  0.1325 -0.3451 -0.8309
 9642TIP3    H153121   7.146   3.801  12.323  1.7375 -2.4460 -0.3698
 9642TIP3    H253122   7.121   3.867  12.189 -1.2020  0.0802  1.3088
 9643TIP3   OH253123   6.067   4.916  12.331 -0.3653 -0.3400 -0.2688
 9643TIP3    H153124   6.050   4.886  12.420  0.9882  0.4278  0.2825
 9643TIP3    H253125   6.095   5.007  12.341  1.0721 -0.6263 -1.3387
 9644TIP3   OH253126   2.532   3.259  11.023 -0.0870  0.7097 -0.0321
 9644TIP3    H153127   2.540   3.242  10.929 -1.5565  0.2489 -0.0911
 9644TIP3    H253128   2.497   3.348  11.029  1.9272  1.5587  0.1646
 9645TIP3   OH253129   2.751   1.872  11.075 -0.0792  0.2950  0.2456
 9645TIP3    H153130   2.742   1.964  11.097  0.9399  0.3182  0.6271
 9645TIP3    H253131   2.690   1.858  11.003 -1.0354  1.0062  0.8937
 9646TIP3   OH253132   4.890   0.997  12.488  0.0483 -0.4473  0.2871
 9646TIP3    H153133   4.957   0.986  12.555 -1.7899 -0.7404  2.1808
 9646TIP3    H253134   4.859   0.909  12.469  0.6827 -0.3924 -1.1575
 9647TIP3   OH253135   6.195   3.382  12.216  0.6527  0.0758  0.4370
 9647TIP3    H153136   6.233   3.341  12.294 -0.1795 -1.3189  0.1413
 9647TIP3    H253137   6.113   3.421  12.247 -0.2036 -1.3898  0.0825
 9648TIP3   OH253138   1.938   1.262  11.814  0.0980  0.4151  0.4970
 9648TIP3    H153139   1.879   1.333  11.839 -0.3707 -0.2382  1.3176
 9648TIP3    H253140   1.993   1.299  11.746 -1.2236  1.0612 -0.2508
 9649TIP3   OH253141   4.392   0.631  12.336  0.0787  0.1588  0.3567
 9649TIP3    H153142   4.483   0.642  12.363  0.5684  0.0391 -1.1402
 9649TIP3    H253143   4.388   0.544  12.296 -0.6973  0.1534  0.4208
 9650TIP3   OH253144   7.315   0.071  10.946 -0.1078 -0.4627 -0.4133
 9650TIP3    H153145   7.254   0.053  11.017 -0.1347  0.6692 -0.1260
 9650TIP3    H253146   7.398   0.090  10.990 -0.2548  0.7772 -0.6223
 9651TIP3   OH253147   3.395   3.360  10.634 -0.2096  0.0054  0.0836
 9651TIP3    H153148   3.448   3.302  10.688 -0.1583  0.2212  0.2672
 9651TIP3    H253149   3.418   3.337  10.544 -0.1224 -0.1941  0.1562
 9652TIP3   OH253150   2.015   1.041  11.162 -0.2279 -0.7410 -0.2286
 9652TIP3    H153151   2.101   1.059  11.199 -0.4039 -1.1862  0.4160
 9652TIP3    H253152   1.964   1.006  11.235 -1.6493  1.5784 -0.0251
 9653TIP3   OH253153   1.455   6.030  13.529 -0.0849 -0.0407  0.1503
 9653TIP3    H153154   1.466   6.123  13.510  1.1240 -0.2163 -0.0453
 9653TIP3    H253155   1.368   6.025  13.570  0.0248  1.2301  0.5850
 9654TIP3   OH253156   0.311   1.443  11.590  0.2012 -0.4506 -0.3163
 9654TIP3    H153157   0.315   1.497  11.511 -0.4566 -0.3480 -0.2860
 9654TIP3    H253158   0.401   1.444  11.624  0.3799 -0.0749 -0.7795
 9655TIP3   OH253159   7.312   5.864  11.715  0.2052 -0.5632 -0.2427
 9655TIP3    H153160   7.396   5.852  11.759  0.1641 -1.3877 -0.3595
 9655TIP3    H253161   7.329   5.929  11.647  0.4377  0.2004  0.5351
 9656TIP3   OH253162   1.375   4.019  12.027 -1.1708  0.1624  0.1310
 9656TIP3    H153163   1.412   3.950  11.971  0.1953 -0.2830  1.5047
 9656TIP3    H253164   1.395   4.100  11.981  0.2242 -0.1701  0.0990
 9657TIP3   OH253165   1.232   3.423  11.711  0.1247 -0.1583  0.1313
 9657TIP3    H153166   1.193   3.511  11.716  0.7735  0.1687 -0.4450
 9657TIP3    H253167   1.290   3.419  11.786  0.6882  0.2088 -0.2752
 9658TIP3   OH253168   4.850   6.193  10.936 -0.1528  0.3835 -0.3541
 9658TIP3    H153169   4.911   6.126  10.904 -1.6866 -1.7241  0.8648
 9658TIP3    H253170   4.907   6.261  10.972  1.5994 -1.8703  1.5295
 9659TIP3   OH253171   4.707   7.485  11.843 -0.2719  0.3639  0.0632
 9659TIP3    H153172   4.802   7.493  11.852 -0.2872  1.2555 -0.4469
 9659TIP3    H253173   4.689   7.393  11.861  0.8405 -0.1173 -1.1269
 9660TIP3   OH253174   2.145   7.012  11.928 -0.1396 -0.1132 -0.2329
 9660TIP3    H153175   2.073   6.978  11.875  1.2131  0.9717 -2.9260
 9660TIP3    H253176   2.104   7.033  12.013 -2.7081 -0.6800 -1.2384
 9661TIP3   OH253177   6.698   4.324  11.238  0.0589  0.2844 -0.2787
 9661TIP3    H153178   6.686   4.289  11.150  0.3896  1.1610 -0.6841
 9661TIP3    H253179   6.688   4.248  11.296 -1.4225 -0.0915 -0.9753
 9662TIP3   OH253180   7.605   7.384  11.942 -0.1662  0.2493  0.2124
 9662TIP3    H153181   7.532   7.444  11.959  0.5281  1.0113  0.5617
 9662TIP3    H253182   7.680   7.425  11.985  0.9503  0.6067 -1.9298
 9663TIP3   OH253183   4.615   7.590  11.583 -0.0862  0.6059 -0.2394
 9663TIP3    H153184   4.640   7.582  11.675 -0.8278  2.2124  0.1577
 9663TIP3    H253185   4.695   7.618  11.539  0.0274  0.8655  0.1202
 9664TIP3   OH253186   3.414   6.405  10.988 -0.2437  0.1174 -0.3592
 9664TIP3    H153187   3.476   6.337  11.014 -1.6009 -0.0365  2.8840
 9664TIP3    H253188   3.344   6.358  10.943 -1.2531 -0.7513  2.0007
 9665TIP3   OH253189   0.441   1.590  12.097 -0.9761 -0.3224 -0.0156
 9665TIP3    H153190   0.483   1.591  12.183 -0.3200 -1.6687 -0.2928
 9665TIP3    H253191   0.513   1.592  12.034 -1.4163 -0.2772 -0.5277
 9666TIP3   OH253192   3.902   6.671  10.599 -0.3574 -0.0386 -0.0531
 9666TIP3    H153193   3.876   6.691  10.509 -1.1361  0.0729  0.1917
 9666TIP3    H253194   3.984   6.719  10.612 -1.2390  1.5132 -0.0796
 9667TIP3   OH253195   2.952   1.614  11.475 -0.0915  0.1585  0.2716
 9667TIP3    H153196   2.872   1.662  11.457 -1.1920 -0.2361  3.4105
 9667TIP3    H253197   3.004   1.622  11.395 -2.6427  1.6012 -1.3712
 9668TIP3   OH253198   3.390   5.768  13.126  0.3188 -0.2465 -0.1892
 9668TIP3    H153199   3.323   5.707  13.157  0.8354 -0.2392  1.0003
 9668TIP3    H253200   3.358   5.854  13.151 -0.0318 -0.0874 -1.1579
 9669TIP3   OH253201   2.710   0.746  11.285  0.3608  0.4680 -0.2807
 9669TIP3    H153202   2.635   0.798  11.255 -0.6160  0.6757  2.2289
 9669TIP3    H253203   2.784   0.807  11.283  0.3181  0.4964 -2.0226
 9670TIP3   OH253204   1.615   2.912  11.227  0.2819 -0.1053  0.0812
 9670TIP3    H153205   1.710   2.904  11.214  0.8392  0.6475  3.0004
 9670TIP3    H253206   1.596   2.857  11.303 -2.0740 -1.9230 -1.6831
 9671TIP3   OH253207   6.085   2.127  12.374 -0.0133 -0.0858  0.2456
 9671TIP3    H153208   6.082   2.054  12.312  0.3213  0.8601 -0.9161
 9671TIP3    H253209   6.169   2.118  12.418 -0.2039 -0.7028  0.4973
 9672TIP3   OH253210   2.324   5.237  11.303 -0.2043  0.5760 -0.1530
 9672TIP3    H153211   2.405   5.197  11.335 -0.4873  0.0555 -0.0748
 9672TIP3    H253212   2.269   5.246  11.381 -0.3456  0.6314 -0.2573
 9673TIP3   OH253213   4.193   7.347  12.639  0.3772  0.1065  0.2916
 9673TIP3    H153214   4.195   7.435  12.676  1.6425  0.2864 -0.1607
 9673TIP3    H253215   4.271   7.304  12.673  0.8355 -0.1781 -1.0557
 9674TIP3   OH253216   1.442   3.663  12.146  0.0881 -0.0441 -0.5892
 9674TIP3    H153217   1.476   3.611  12.219 -2.8162 -0.7059  0.4530
 9674TIP3    H253218   1.390   3.600  12.095 -0.5368  1.0801 -1.3769
 9675TIP3   OH253219   2.816   6.801  11.307 -0.4506  0.1170 -0.5882
 9675TIP3    H153220   2.882   6.732  11.305 -1.2774 -0.7340 -3.6871
 9675TIP3    H253221   2.863   6.879  11.337  1.6422 -0.7587 -1.4371
 9676TIP3   OH253222   1.499   0.467  11.426 -0.2092  0.0124 -0.1789
 9676TIP3    H153223   1.405   0.472  11.445  0.0774 -0.1789  1.4580
 9676TIP3    H253224   1.541   0.481  11.511  1.1779 -3.5153 -0.0961
 9677TIP3   OH253225   0.464   3.163  11.488  0.2821  0.2688  0.3848
 9677TIP3    H153226   0.509   3.080  11.473 -1.6375 -1.2177  2.1477
 9677TIP3    H253227   0.531   3.230  11.477  2.3868 -1.6642  0.8312
 9678TIP3   OH253228   5.452   6.578  13.337 -0.6086  0.4198 -0.4510
 9678TIP3    H153229   5.402   6.515  13.390  0.2411  0.2957  0.2313
 9678TIP3    H253230   5.543   6.567  13.366 -0.5819  2.9113  0.7222
 9679TIP3   OH253231   7.165   2.763  10.971 -0.2400  0.4585  0.4780
 9679TIP3    H153232   7.130   2.800  11.052 -1.4182  1.8243 -0.6005
 9679TIP3    H253233   7.106   2.690  10.951  0.0004  0.1740  0.8050
 9680TIP3   OH253234   6.859   6.740  13.381 -0.1392 -0.3939  0.5677
 9680TIP3    H153235   6.922   6.809  13.361 -0.1913 -0.1021  1.3520
 9680TIP3    H253236   6.786   6.785  13.423 -0.7817 -0.7590 -0.1380
 9681TIP3   OH253237   3.803   0.017  12.310  0.6181  0.0403 -0.5332
 9681TIP3    H153238   3.745  -0.049  12.347 -0.1432  1.4579  0.9406
 9681TIP3    H253239   3.745   0.078  12.265  0.7619  1.9857  1.7341
 9682TIP3   OH253240   2.673   4.256  10.818 -0.2871  0.3195  0.1406
 9682TIP3    H153241   2.637   4.276  10.732 -3.3127 -3.0535  0.3848
 9682TIP3    H253242   2.686   4.161  10.818  1.0503  0.3848  2.9189
 9683TIP3   OH253243   5.155   5.580  11.328  0.3209 -0.3618  0.3671
 9683TIP3    H153244   5.197   5.663  11.306  3.6101 -1.8302  0.5470
 9683TIP3    H253245   5.104   5.558  11.250  2.8791 -0.1870 -1.4802
 9684TIP3   OH253246   6.310   0.847  12.210 -0.2182  0.5911 -0.1083
 9684TIP3    H153247   6.342   0.889  12.130 -1.2388  1.9181  0.1430
 9684TIP3    H253248   6.243   0.907  12.243  1.1341  0.8116  2.5118
 9685TIP3   OH253249   2.559   7.576  11.755 -0.5321 -0.1259  0.2149
 9685TIP3    H153250   2.647   7.578  11.793 -1.0584  1.3181  1.4674
 9685TIP3    H253251   2.526   7.488  11.773  1.4669 -1.5555 -2.3675
 9686TIP3   OH253252   1.519   6.046  12.682 -0.2135  0.0668 -0.2968
 9686TIP3    H153253   1.469   6.050  12.601  0.5779  0.4034 -0.7808
 9686TIP3    H253254   1.603   6.008  12.657 -1.2042 -3.3788  1.0250
 9687TIP3   OH253255   0.907   3.430  11.323  0.1835 -0.4365 -0.0285
 9687TIP3    H153256   0.889   3.390  11.408  4.8568 -1.4618  0.7279
 9687TIP3    H253257   0.946   3.515  11.344 -1.1994  0.5927 -1.3554
 9688TIP3   OH253258   2.285   6.288  12.086  0.0228 -0.4090  0.1359
 9688TIP3    H153259   2.324   6.208  12.121 -0.1265 -0.6046 -0.1453
 9688TIP3    H253260   2.355   6.353  12.091  0.5553 -0.8881 -0.8565
 9689TIP3   OH253261   6.699   1.901  10.338  0.3138  0.6657 -0.1854
 9689TIP3    H153262   6.713   1.970  10.274 -0.7025  0.5439 -0.5598
 9689TIP3    H253263   6.786   1.864  10.353  0.6223  0.9429 -1.2103
 9690TIP3   OH253264   0.281   0.695  11.757 -1.3525 -0.0374 -0.0113
 9690TIP3    H153265   0.362   0.746  11.762 -1.3248 -0.1612  0.8253
 9690TIP3    H253266   0.306   0.617  11.708 -0.8166 -0.3559  0.7595
 9691TIP3   OH253267   7.268   6.801  11.707 -0.0205  0.2069 -0.0584
 9691TIP3    H153268   7.269   6.729  11.769  1.0439 -0.1643 -0.4788
 9691TIP3    H253269   7.175   6.825  11.699 -0.3575 -0.9023  0.3281
 9692TIP3   OH253270   4.627   1.136  13.189  0.5148  0.1091  0.3374
 9692TIP3    H153271   4.651   1.089  13.269 -1.2025 -0.6198  0.4831
 9692TIP3    H253272   4.710   1.152  13.144  1.4271 -0.2667  1.8268
 9693TIP3   OH253273   3.365   3.148  13.377 -0.1662 -0.1244  0.0753
 9693TIP3    H153274   3.291   3.204  13.400  0.6959  0.2307  2.2680
 9693TIP3    H253275   3.436   3.210  13.358  0.3066 -0.4561  0.7432
 9694TIP3   OH253276   5.183   3.586  10.599  0.1052  0.1093 -0.2309
 9694TIP3    H153277   5.120   3.557  10.533 -1.6210  1.7462  0.5997
 9694TIP3    H253278   5.143   3.664  10.637  3.0762  1.7760 -0.2742
 9695TIP3   OH253279   5.676   5.483  12.153 -0.4036 -0.3328 -0.0967
 9695TIP3    H153280   5.699   5.440  12.071 -0.3446  1.8305 -1.3061
 9695TIP3    H253281   5.581   5.478  12.158 -0.5034  0.4497 -0.8952
 9696TIP3   OH253282   5.082   6.064  13.423  0.3357  0.2072 -0.1385
 9696TIP3    H153283   5.058   6.156  13.414  0.7841  0.3229 -0.1907
 9696TIP3    H253284   4.999   6.017  13.428  0.0984  0.5307 -0.9789
 9697TIP3   OH253285   0.417   3.727  11.594  0.0644  0.4469  0.6066
 9697TIP3    H153286   0.364   3.673  11.653  3.0947 -0.5136  2.7125
 9697TIP3    H253287   0.383   3.816  11.605 -0.2775  0.0892  2.9440
 9698TIP3   OH253288   1.951   2.901  13.326 -0.2631 -0.0726  0.5716
 9698TIP3    H153289   1.949   2.809  13.300  1.2457  0.9093 -3.8672
 9698TIP3    H253290   2.035   2.912  13.370 -0.6835 -0.8701  1.6057
 9699TIP3   OH253291   2.380   6.353  12.769 -0.0262 -0.4011 -0.4238
 9699TIP3    H153292   2.367   6.336  12.675  0.5616  1.1912 -0.8294
 9699TIP3    H253293   2.318   6.422  12.790  1.6014  1.0987 -0.3041
 9700TIP3   OH253294   4.639  -0.015  10.662  0.1043 -0.5234 -0.3758
 9700TIP3    H153295   4.586  -0.095  10.659 -2.4085  0.7560  3.0939
 9700TIP3    H253296   4.717  -0.039  10.713 -0.0464 -1.0475 -0.3919
 9701TIP3   OH253297   5.838   1.138  13.073 -0.2646  0.5729 -0.2039
 9701TIP3    H153298   5.882   1.058  13.042 -0.2835  1.1197 -1.7614
 9701TIP3    H253299   5.876   1.155  13.159  1.1710 -0.0407 -0.6866
 9702TIP3   OH253300   0.863   7.043  10.994  0.1826  0.0825  0.7760
 9702TIP3    H153301   0.931   7.087  10.943  0.1789 -0.8760 -0.1008
 9702TIP3    H253302   0.885   6.950  10.989 -0.9162 -0.2036  0.8803
 9703TIP3   OH253303   5.070   3.785  11.190  0.6691 -0.6913 -0.0705
 9703TIP3    H153304   5.035   3.698  11.171  0.9548 -1.0226  0.8517
 9703TIP3    H253305   5.161   3.782  11.160  0.6770 -0.7068 -0.0452
 9704TIP3   OH253306   2.215   1.496  10.928 -0.5006 -0.0762 -0.3017
 9704TIP3    H153307   2.213   1.467  10.837 -1.0903 -0.2817 -0.2268
 9704TIP3    H253308   2.147   1.562  10.934  1.6544  2.3378 -0.7773
 9705TIP3   OH253309   6.700   1.315  10.967  0.7562  0.4797 -0.2010
 9705TIP3    H153310   6.733   1.334  10.879  0.7850 -0.0553 -0.3080
 9705TIP3    H253311   6.659   1.397  10.995  1.5453  0.9405 -0.3516
 9706TIP3   OH253312   2.708   0.342  11.641 -0.8470  0.6369  0.1226
 9706TIP3    H153313   2.619   0.352  11.673 -1.6523 -2.5577 -0.8407
 9706TIP3    H253314   2.704   0.369  11.549 -0.2256  2.5930  0.6056
 9707TIP3   OH253315   5.160   3.448  11.749  0.6121 -0.8217 -0.2292
 9707TIP3    H153316   5.222   3.514  11.779  1.3054 -0.2364 -2.7088
 9707TIP3    H253317   5.214   3.381  11.707 -0.3431 -0.9459 -1.2991
 9708TIP3   OH253318   5.835   1.449  11.562 -0.0014  0.1957  0.0844
 9708TIP3    H153319   5.755   1.439  11.510 -0.2344 -0.5554  0.5706
 9708TIP3    H253320   5.805   1.477  11.648  0.2882  0.2645  0.1655
 9709TIP3   OH253321   6.631   4.743  11.522 -0.3024  0.2003  0.0002
 9709TIP3    H153322   6.724   4.734  11.541 -0.6738 -0.0791  1.8303
 9709TIP3    H253323   6.619   4.697  11.439  1.3810  1.2710 -0.8903
 9710TIP3   OH253324   1.498   5.492  11.740  0.2886 -0.0246  0.4556
 9710TIP3    H153325   1.523   5.585  11.742 -0.5643  0.2043  0.8987
 9710TIP3    H253326   1.412   5.491  11.698 -0.4879 -0.4076  1.9691
 9711TIP3   OH253327   1.034   6.079  12.863 -0.3201 -0.3038 -0.4156
 9711TIP3    H153328   1.078   6.160  12.887  0.1231  0.2397 -2.8010
 9711TIP3    H253329   0.959   6.074  12.922 -0.5826  2.0432 -0.4630
 9712TIP3   OH253330   2.858   3.512  12.748  0.1705 -0.0459 -0.6191
 9712TIP3    H153331   2.766   3.488  12.739 -0.5066  2.2036 -0.1860
 9712TIP3    H253332   2.888   3.462  12.824 -1.0945  0.2330  0.0978
 9713TIP3   OH253333   4.171   6.894  11.419  0.1456  0.0952 -0.1923
 9713TIP3    H153334   4.166   6.988  11.436  0.4969 -0.0158  0.5608
 9713TIP3    H253335   4.109   6.880  11.347 -0.3714  0.7976  0.0995
 9714TIP3   OH253336   2.029   0.852  11.740 -0.0588  0.0622  0.4364
 9714TIP3    H153337   1.954   0.909  11.756 -1.1855 -0.8572 -1.2272
 9714TIP3    H253338   1.994   0.781  11.686  1.3775 -1.9849  2.0372
 9715TIP3   OH253339   3.888   1.530  12.285  0.0589 -0.2224  0.3797
 9715TIP3    H153340   3.939   1.604  12.319 -0.0688  1.3139 -2.4571
 9715TIP3    H253341   3.954   1.466  12.257  0.4096  0.8442 -1.3430
 9716TIP3   OH253342   6.485   6.176  10.895 -0.3229  0.0949  0.0427
 9716TIP3    H153343   6.429   6.252  10.913 -0.4697  0.9251 -3.1988
 9716TIP3    H253344   6.561   6.213  10.851 -0.0259 -1.5611 -0.9074
 9717TIP3   OH253345   0.846   7.436  12.283  0.2270  0.5578 -0.0389
 9717TIP3    H153346   0.818   7.347  12.303  1.7598 -0.0283 -0.3680
 9717TIP3    H253347   0.917   7.453  12.345  0.6586  1.1547 -0.6777
 9718TIP3   OH253348   7.175   3.907  11.126  0.3415  0.1355 -0.3825
 9718TIP3    H153349   7.116   3.882  11.055 -1.6397  0.7453  0.9646
 9718TIP3    H253350   7.130   3.978  11.171  0.7086 -1.2950  2.4619
 9719TIP3   OH253351   5.272   6.014  11.051 -0.5038 -0.4397 -0.5132
 9719TIP3    H153352   5.302   5.927  11.076 -0.0641  0.3097  1.9235
 9719TIP3    H253353   5.180   6.002  11.027 -0.4698 -1.5758 -0.1543
 9720TIP3   OH253354   7.528   0.858  11.435 -0.2427 -0.2536 -0.0056
 9720TIP3    H153355   7.508   0.820  11.521  1.0949 -1.0740 -0.0299
 9720TIP3    H253356   7.513   0.952  11.446 -1.2399 -0.4796  0.7653
 9721TIP3   OH253357   2.582   7.060  11.996  0.1227  0.2053 -0.1346
 9721TIP3    H153358   2.551   6.970  11.988  1.4358 -0.2221 -0.6779
 9721TIP3    H253359   2.511   7.106  12.040 -0.7960 -0.9683 -0.3500
 9722TIP3   OH253360   6.852   5.954  11.856  0.5501 -0.0632 -0.4376
 9722TIP3    H153361   6.780   5.914  11.904 -0.8703  0.7489 -1.8233
 9722TIP3    H253362   6.887   5.884  11.802  0.2765 -0.2495 -0.3729
 9723TIP3   OH253363   6.183   0.923  11.706 -0.0936  0.3069  0.6742
 9723TIP3    H153364   6.173   1.014  11.677  0.5743  1.0043  2.4639
 9723TIP3    H253365   6.128   0.916  11.784 -3.0432 -1.9336 -1.3841
 9724TIP3   OH253366   3.143   5.772  10.844 -0.2962  0.4897  0.4303
 9724TIP3    H153367   3.158   5.683  10.810  1.4508  0.9855 -0.2110
 9724TIP3    H253368   3.072   5.762  10.907 -0.5827 -1.2486 -0.1082
 9725TIP3   OH253369   7.553   0.799  10.296  0.3520 -0.4610 -0.3378
 9725TIP3    H153370   7.500   0.766  10.223  0.4006  0.4696 -0.7976
 9725TIP3    H253371   7.516   0.756  10.373 -0.1994 -0.8603 -0.8162
 9726TIP3   OH253372   5.633   7.482  11.169 -0.7674 -0.7833  0.4078
 9726TIP3    H153373   5.680   7.565  11.159 -0.7977 -0.7069  0.8892
 9726TIP3    H253374   5.671   7.441  11.247 -1.4816 -0.7272  0.7957
 9727TIP3   OH253375   2.806   5.120  12.305  0.4794 -0.0991 -0.3436
 9727TIP3    H153376   2.743   5.095  12.371  1.1642  0.6126  0.6073
 9727TIP3    H253377   2.851   5.196  12.341  0.8091  0.3737 -1.6659
 9728TIP3   OH253378   6.967   7.302  12.088  0.3266  0.0238 -0.4077
 9728TIP3    H153379   6.921   7.284  12.170  0.7670 -0.7489 -0.3158
 9728TIP3    H253380   6.935   7.236  12.027  1.6720 -0.8699 -0.1872
 9729TIP3   OH253381   0.356   3.103  10.854 -0.3986 -0.7095 -0.3962
 9729TIP3    H153382   0.326   3.115  10.763  0.2360 -0.4392 -0.5693
 9729TIP3    H253383   0.439   3.057  10.846 -0.7805 -1.5040  0.0915
 9730TIP3   OH253384   7.119   3.718  10.904 -0.1167 -0.2028  0.3589
 9730TIP3    H153385   7.095   3.790  10.847 -0.7049 -1.3484 -0.8869
 9730TIP3    H253386   7.053   3.650  10.887  2.0826 -2.2155 -0.7766
 9731TIP3   OH253387   4.985   0.501  10.633  0.2528  0.1203 -0.1034
 9731TIP3    H153388   5.020   0.510  10.722 -0.4736  0.7599  0.1361
 9731TIP3    H253389   5.016   0.580  10.588  1.0802 -0.4718 -0.5924
 9732TIP3   OH253390   5.184   5.368  10.766  0.2975 -0.2859  0.2654
 9732TIP3    H153391   5.276   5.382  10.784  0.1113  0.7676  0.4427
 9732TIP3    H253392   5.145   5.455  10.768 -1.1066 -0.8543  2.4756
 9733TIP3   OH253393   2.339   3.437  11.190 -0.0498 -0.2986  0.3209
 9733TIP3    H153394   2.334   3.531  11.177  0.1889 -0.1773  1.0576
 9733TIP3    H253395   2.259   3.415  11.239  0.2936 -0.3482  0.8661
 9734TIP3   OH253396   0.239   5.838  11.726  0.8247 -0.5511  0.1479
 9734TIP3    H153397   0.203   5.804  11.807 -0.1312  1.0892  0.4668
 9734TIP3    H253398   0.162   5.856  11.671  1.2563  0.9504 -0.0131
 9735TIP3   OH253399   4.997   2.934  10.606  0.1627  0.2849  0.1725
 9735TIP3    H153400   5.029   2.888  10.683  0.3492  1.9241  1.1400
 9735TIP3    H253401   5.019   2.878  10.532  2.4531 -0.0941  1.0714
 9736TIP3   OH253402   4.275   0.804  12.682  0.8979  0.0779  0.5441
 9736TIP3    H153403   4.308   0.714  12.673  0.8951  0.0054  1.2177
 9736TIP3    H253404   4.229   0.804  12.766 -1.6382 -0.0816 -0.7662
 9737TIP3   OH253405   5.975   5.193  13.079  0.5059 -0.6131 -0.0447
 9737TIP3    H153406   5.913   5.120  13.073 -1.0061  0.4340  1.6098
 9737TIP3    H253407   6.000   5.195  13.171  1.2540  0.3875 -0.2561
 9738TIP3   OH253408   2.117   3.350  12.286 -0.0126 -0.1466  0.3975
 9738TIP3    H153409   2.059   3.364  12.211 -0.9632  1.0624  1.2900
 9738TIP3    H253410   2.057   3.338  12.360  0.8612  0.7042  1.2792
 9739TIP3   OH253411   5.935   0.974  11.909  0.4211 -0.3539  0.2829
 9739TIP3    H153412   5.875   0.991  11.837  1.5292  1.9525 -0.1721
 9739TIP3    H253413   5.886   0.996  11.988  0.0241 -0.4691  0.0669
 9740TIP3   OH253414   6.208   6.718  13.518 -0.7528  0.3280 -0.0385
 9740TIP3    H153415   6.286   6.763  13.486 -1.1220  1.2027  0.2631
 9740TIP3    H253416   6.212   6.631  13.478  0.3024  0.4113 -0.1239
 9741TIP3   OH253417   0.340   6.390  10.359  0.0482  0.2136  0.0766
 9741TIP3    H153418   0.294   6.473  10.366  0.3879  0.3133  1.4006
 9741TIP3    H253419   0.426   6.406  10.399  0.5898 -0.4393 -0.7739
 9742TIP3   OH253420   4.619   4.803  10.550 -0.0688 -0.0969  0.0563
 9742TIP3    H153421   4.534   4.846  10.536 -0.2005 -0.5718 -0.6998
 9742TIP3    H253422   4.680   4.874  10.567 -0.6303  0.2460  0.6920
 9743TIP3   OH253423   6.393   2.873  12.502  0.6063 -0.5503 -0.3045
 9743TIP3    H153424   6.377   2.930  12.578 -1.0753 -0.9696 -0.2996
 9743TIP3    H253425   6.461   2.812  12.531  0.4569 -0.2819  0.6382
 9744TIP3   OH253426   2.251   5.486  11.835  1.4343  0.4082 -0.0777
 9744TIP3    H153427   2.262   5.458  11.926  2.6086  0.5271 -0.1742
 9744TIP3    H253428   2.291   5.416  11.783 -0.7974 -0.5528 -0.6286
 9745TIP3   OH253429   4.353   6.739  10.907 -0.3170 -0.4689  0.0350
 9745TIP3    H153430   4.336   6.774  10.819 -0.7528  1.8716  0.9594
 9745TIP3    H253431   4.266   6.714  10.940 -0.9016  2.7852  1.3290
 9746TIP3   OH253432   3.258   4.680  12.939  0.7433  0.7890  0.0176
 9746TIP3    H153433   3.173   4.663  12.899  0.6894  1.5286 -0.2095
 9746TIP3    H253434   3.249   4.648  13.029  0.7802 -0.6400 -0.4761
 9747TIP3   OH253435   3.985   4.316  10.763 -0.0889  0.1830  0.4903
 9747TIP3    H153436   4.022   4.402  10.742  0.5817  0.0352  1.0149
 9747TIP3    H253437   4.035   4.255  10.708  0.4006 -0.0090  1.1365
 9748TIP3   OH253438   6.727   1.902  10.914  0.1590 -0.1248  0.2024
 9748TIP3    H153439   6.745   1.857  10.997  0.4345  0.2807  0.3661
 9748TIP3    H253440   6.683   1.983  10.940  1.0451  0.4195  0.0083
 9749TIP3   OH253441   2.961   6.732  12.065 -0.1482  0.2447  0.2529
 9749TIP3    H153442   2.982   6.817  12.105 -0.9718  1.1272 -1.1327
 9749TIP3    H253443   3.015   6.729  11.986 -0.5155 -0.2984  0.0207
 9750TIP3   OH253444   2.307   2.074  11.888  0.1045  0.1074  0.7889
 9750TIP3    H153445   2.402   2.067  11.886  0.1222 -0.1316  1.7399
 9750TIP3    H253446   2.285   2.132  11.815  0.9200 -0.3485  0.1669
 9751TIP3   OH253447   1.051   0.705  12.307  0.1404 -0.6639  0.3351
 9751TIP3    H153448   1.001   0.786  12.298  0.6969 -0.1064  1.9358
 9751TIP3    H253449   1.105   0.701  12.228 -0.0331  0.4218  0.1435
 9752TIP3   OH253450   7.533   1.688  10.675  0.4017  0.0253  0.4299
 9752TIP3    H153451   7.545   1.661  10.584  1.1597  0.1486  0.4849
 9752TIP3    H253452   7.455   1.743  10.674  1.3909  1.4916 -0.4672
 9753TIP3   OH253453   6.335   6.803  11.254 -0.6813 -0.1897 -0.5009
 9753TIP3    H153454   6.405   6.864  11.231 -0.7689 -0.3011 -1.0620
 9753TIP3    H253455   6.303   6.835  11.339 -2.2324  1.9129 -1.7516
 9754TIP3   OH253456   0.705   0.169  11.040 -0.9665  0.3672 -0.0461
 9754TIP3    H153457   0.722   0.254  11.080 -0.4265  0.1070  0.2877
 9754TIP3    H253458   0.718   0.106  11.110  0.2870 -0.1220 -0.6919
 9755TIP3   OH253459   4.889   0.765  12.380 -0.1593  0.1680 -0.1107
 9755TIP3    H153460   4.824   0.697  12.397  0.2210 -0.2252 -0.2111
 9755TIP3    H253461   4.874   0.791  12.289  0.2567 -0.4095 -0.3573
 9756TIP3   OH253462   3.371   6.532  11.908 -0.0093 -0.7232 -0.1525
 9756TIP3    H153463   3.291   6.563  11.950  0.7230  1.7163 -0.4397
 9756TIP3    H253464   3.342   6.503  11.821 -0.4150  1.6336 -0.8655
 9757TIP3   OH253465   0.086   4.396  12.222  0.0166 -0.1641 -0.8577
 9757TIP3    H153466   0.149   4.467  12.207  1.5249 -0.6527  2.3160
 9757TIP3    H253467   0.021   4.434  12.281  0.2391 -1.0733 -0.0008
 9758TIP3   OH253468   5.783   7.357  11.660 -0.5888 -0.4924  0.5783
 9758TIP3    H153469   5.853   7.292  11.654 -0.9866 -0.9377  0.7018
 9758TIP3    H253470   5.797   7.400  11.744 -0.9813 -1.1865  1.0017
 9759TIP3   OH253471   1.546   5.485  10.789 -0.3851  0.2576 -0.3935
 9759TIP3    H153472   1.608   5.438  10.844 -2.2167 -0.7816  0.9185
 9759TIP3    H253473   1.578   5.575  10.787  1.1854 -0.2632  0.1473
 9760TIP3   OH253474   1.354   3.490  12.627  0.1446 -0.3084  0.0708
 9760TIP3    H153475   1.363   3.399  12.658  1.4375  0.2684  1.5285
 9760TIP3    H253476   1.339   3.541  12.707 -1.4621  0.6782 -0.8222
 9761TIP3   OH253477   1.546   1.192  12.474  1.0190  0.5694 -0.2118
 9761TIP3    H153478   1.619   1.248  12.503  1.1933  0.5323 -0.5728
 9761TIP3    H253479   1.468   1.239  12.502  1.1726 -0.6691  2.5775
 9762TIP3   OH253480   1.197   6.292  12.063 -0.1691 -0.0123  0.8393
 9762TIP3    H153481   1.122   6.242  12.095 -0.2155  0.5327  1.6319
 9762TIP3    H253482   1.214   6.257  11.976  0.5362 -2.1968  1.7850
 9763TIP3   OH253483   1.270   3.201  12.802  0.4289 -0.4609 -0.1032
 9763TIP3    H153484   1.358   3.171  12.780  0.0950 -0.6070 -1.3328
 9763TIP3    H253485   1.282   3.287  12.841  1.0844 -0.2301 -0.7954
 9764TIP3   OH253486   4.035   1.316  13.396 -0.0509  0.0931 -0.2270
 9764TIP3    H153487   4.008   1.396  13.350  0.7103 -0.7773 -2.3069
 9764TIP3    H253488   4.067   1.347  13.481  1.2329  2.1632 -1.3752
 9765TIP3   OH253489   2.984   1.715  12.554 -0.3539 -0.9112  0.2845
 9765TIP3    H153490   3.050   1.646  12.546  0.3302 -0.0729 -2.0609
 9765TIP3    H253491   3.029   1.787  12.597 -0.0302 -0.7093 -0.3852
 9766TIP3   OH253492   6.655   1.326  12.875 -0.2626  0.0303  0.0376
 9766TIP3    H153493   6.659   1.236  12.906  2.2574 -0.4095 -1.2751
 9766TIP3    H253494   6.690   1.323  12.786  0.4625  2.3720  0.1619
 9767TIP3   OH253495   2.860   1.614  11.122  0.1742  0.2404  0.2408
 9767TIP3    H153496   2.823   1.702  11.126  0.9794  0.6017 -0.0182
 9767TIP3    H253497   2.935   1.617  11.181  0.1981 -0.2736  0.2385
 9768TIP3   OH253498   2.007   3.295  11.762  0.1756  0.4130 -0.3325
 9768TIP3    H153499   1.980   3.377  11.803  1.9531  0.5397  0.6722
 9768TIP3    H253500   2.096   3.311  11.731  0.3083 -0.9322 -0.7437
 9769TIP3   OH253501   7.047   3.429  10.888 -0.1787  0.1581  0.0265
 9769TIP3    H153502   7.070   3.372  10.962  0.3259  0.1138 -0.1607
 9769TIP3    H253503   7.106   3.402  10.818 -1.7803 -0.9629 -0.9594
 9770TIP3   OH253504  -0.032   2.649  11.929 -0.4720 -0.0084  0.3199
 9770TIP3    H153505  -0.118   2.646  11.887 -0.0697  1.2849 -0.6456
 9770TIP3    H253506  -0.028   2.736  11.968  0.7313  0.2744 -0.3941
 9771TIP3   OH253507   4.087   5.779  12.070  0.6735 -1.0852  0.4332
 9771TIP3    H153508   4.064   5.849  12.008  0.8248 -0.5828  0.9381
 9771TIP3    H253509   4.167   5.740  12.034  0.9887 -0.5285  0.5210
 9772TIP3   OH253510   4.614   4.071  10.994 -0.4545 -0.2199 -0.0542
 9772TIP3    H153511   4.639   4.161  10.975 -0.1319  0.7263  3.8713
 9772TIP3    H253512   4.694   4.020  10.979  0.1208  0.6160  0.1341
 9773TIP3   OH253513   3.565   0.776  11.374 -0.9156  0.3624  0.2522
 9773TIP3    H153514   3.572   0.845  11.308 -0.3649  1.3728  1.3255
 9773TIP3    H253515   3.614   0.702  11.338  2.6240  2.1278  1.0418
 9774TIP3   OH253516   4.141   7.594  12.726 -0.1768  0.0003 -0.3876
 9774TIP3    H153517   4.061   7.612  12.775 -0.2222 -1.5648  0.1566
 9774TIP3    H253518   4.211   7.619  12.786 -0.2321  1.3217 -0.8444
 9775TIP3   OH253519   4.440   0.703  11.202  0.1420 -0.2433  0.4390
 9775TIP3    H153520   4.513   0.642  11.218  2.2365  1.9048 -0.3127
 9775TIP3    H253521   4.410   0.681  11.114  1.3784  0.2142 -0.1267
 9776TIP3   OH253522   0.106   0.835  10.449  0.0118  0.1616 -0.7249
 9776TIP3    H153523   0.125   0.923  10.481 -2.2420  0.1718  0.8734
 9776TIP3    H253524   0.048   0.848  10.375  1.1841  0.0143 -1.7008
 9777TIP3   OH253525   1.853   2.253  11.285  0.2245 -0.6494 -0.5554
 9777TIP3    H153526   1.943   2.283  11.297  0.2521 -0.6706 -0.7016
 9777TIP3    H253527   1.810   2.269  11.369  0.3878 -0.7187 -0.4581
 9778TIP3   OH253528   2.355   0.046  12.334  0.0474 -0.3058 -0.0946
 9778TIP3    H153529   2.316   0.130  12.310  1.8508  0.3596 -0.8973
 9778TIP3    H253530   2.354   0.045  12.429  0.0363  0.6601 -0.0736
 9779TIP3   OH253531   6.156   4.309  11.649  0.0821 -0.5492  0.1274
 9779TIP3    H153532   6.224   4.361  11.605 -0.9802  0.9429  0.1971
 9779TIP3    H253533   6.181   4.218  11.631  0.9038 -0.0234 -1.6960
 9780TIP3   OH253534   5.750   6.709  12.801  0.0466 -0.1473  0.5740
 9780TIP3    H153535   5.800   6.716  12.719 -1.2608  0.7178 -0.1844
 9780TIP3    H253536   5.811   6.740  12.868  0.2555  1.8746 -0.4574
 9781TIP3   OH253537   7.354   2.560  11.926 -0.2393 -0.1354  0.3382
 9781TIP3    H153538   7.362   2.575  11.832  0.9380  0.1740  0.4706
 9781TIP3    H253539   7.351   2.465  11.935  1.2099 -0.2303  0.0742
 9782TIP3   OH253540   3.554   5.460  11.029 -0.1476  0.6920  0.1887
 9782TIP3    H153541   3.470   5.433  10.991 -0.2668  1.0334  0.2056
 9782TIP3    H253542   3.539   5.459  11.123 -0.6182  2.2530  0.1614
 9783TIP3   OH253543   7.604   3.489  11.273  0.1712 -0.0425  0.7410
 9783TIP3    H153544   7.693   3.512  11.243 -0.5760  0.1719 -1.5493
 9783TIP3    H253545   7.611   3.397  11.298  1.2954  0.2966  1.7959
 9784TIP3   OH253546   7.629   3.289  12.437  0.1650 -0.0839  0.3599
 9784TIP3    H153547   7.706   3.306  12.491 -0.7990 -1.6452  2.3411
 9784TIP3    H253548   7.632   3.356  12.369  1.1491  2.3864  2.6759
 9785TIP3   OH253549   2.361   7.292  10.594 -0.0392  0.0338  0.1875
 9785TIP3    H153550   2.329   7.204  10.574  0.7766 -0.2009 -0.1161
 9785TIP3    H253551   2.455   7.282  10.604  0.1166  0.9424 -0.2379
 9786TIP3   OH253552   6.185   7.452  11.142  0.2006  0.7796  0.0210
 9786TIP3    H153553   6.242   7.383  11.108 -1.4181 -0.7481  0.2220
 9786TIP3    H253554   6.138   7.484  11.065 -0.9104 -0.2099  0.2468
 9787TIP3   OH253555   7.409   6.117  11.402 -0.0956 -0.2757 -0.2989
 9787TIP3    H153556   7.382   6.204  11.372  2.9211  0.7302 -0.3786
 9787TIP3    H253557   7.470   6.135  11.473 -0.3327 -2.4162  0.5022
 9788TIP3   OH253558   0.639   6.116  12.788 -0.0124  0.9580 -0.4262
 9788TIP3    H153559   0.713   6.098  12.846 -0.3122 -0.9172 -0.5548
 9788TIP3    H253560   0.587   6.181  12.834  0.5734  0.6556  0.6948
 9789TIP3   OH253561   4.803   5.644  10.731  0.4004  0.9788 -0.3328
 9789TIP3    H153562   4.733   5.590  10.695  0.7176  0.7722 -0.6490
 9789TIP3    H253563   4.762   5.691  10.803 -0.1407  1.0865 -0.7011
 9790TIP3   OH253564   1.436   2.948  12.157 -0.1024 -0.5893  0.1070
 9790TIP3    H153565   1.445   2.854  12.142 -0.0746 -0.5805  0.0663
 9790TIP3    H253566   1.342   2.965  12.149 -0.2725 -0.8246  1.3906
 9791TIP3   OH253567   6.965   0.102  10.264  0.4317  0.1842  0.4867
 9791TIP3    H153568   6.915   0.112  10.346  0.3857 -2.5046  0.8639
 9791TIP3    H253569   6.955   0.010  10.241  1.3466  0.6435 -2.0063
 9792TIP3   OH253570   3.197   0.400  10.855 -0.0258  0.1054  0.5883
 9792TIP3    H153571   3.194   0.316  10.809 -0.9903  0.9777 -1.0025
 9792TIP3    H253572   3.113   0.406  10.900 -0.7524  1.0267 -0.8377
 9793TIP3   OH253573   5.832   6.823  10.994 -0.2799 -0.3113 -0.1068
 9793TIP3    H153574   5.741   6.817  11.021 -0.3518 -0.0946 -0.3009
 9793TIP3    H253575   5.879   6.855  11.071 -0.3235 -0.6900  0.0795
 9794TIP3   OH253576   4.423   0.612  11.579 -0.3093 -0.0316  0.1394
 9794TIP3    H153577   4.356   0.678  11.593 -0.4986  0.4887 -2.7623
 9794TIP3    H253578   4.396   0.566  11.500  1.4937 -1.4705  0.2813
 9795TIP3   OH253579   6.441   4.204  10.495  1.1044 -0.1727  0.4107
 9795TIP3    H153580   6.516   4.173  10.444  1.3340  1.6481 -0.4342
 9795TIP3    H253581   6.477   4.272  10.552  0.1259  0.7116  0.0109
 9796TIP3   OH253582   4.225   1.121  12.235 -0.4909 -0.8037  0.7289
 9796TIP3    H153583   4.295   1.126  12.171 -1.0680 -0.4871  0.1077
 9796TIP3    H253584   4.246   1.044  12.287 -0.9803 -2.1904 -1.0205
 9797TIP3   OH253585   7.211   2.079  11.213 -0.2285 -0.5027 -0.2628
 9797TIP3    H153586   7.193   2.139  11.140  0.0960  1.0393  0.8671
 9797TIP3    H253587   7.303   2.055  11.202 -0.4838 -1.1550 -0.9774
 9798TIP3   OH253588   0.012   7.133  11.329  0.1354 -0.0612  0.3063
 9798TIP3    H153589   0.086   7.080  11.301  0.3096 -0.8089  2.0687
 9798TIP3    H253590   0.050   7.198  11.389 -0.4830  0.1821  0.4472
 9799TIP3   OH253591   2.270   1.468  11.771 -0.5792  0.2791 -0.2305
 9799TIP3    H153592   2.209   1.411  11.723 -2.6736  2.2492 -0.0677
 9799TIP3    H253593   2.285   1.424  11.854 -0.3903 -1.0451 -0.9339
 9800TIP3   OH253594   0.505   6.627  12.935  0.3436  0.5672  0.1883
 9800TIP3    H153595   0.575   6.617  12.871 -0.0939 -0.0694 -0.2087
 9800TIP3    H253596   0.546   6.606  13.019  0.6899  0.4283 -0.0139
 9801TIP3   OH253597   1.907   3.257  11.369  0.2111  0.2717 -0.2782
 9801TIP3    H153598   1.824   3.299  11.346  0.2880 -0.1335 -1.3531
 9801TIP3    H253599   1.884   3.196  11.439 -0.4270  0.0720 -0.6519
 9802TIP3   OH253600   3.032   4.222  10.710 -0.1260  0.4049  0.1597
 9802TIP3    H153601   2.982   4.302  10.694 -1.4098 -0.9776 -4.2001
 9802TIP3    H253602   3.121   4.242  10.679 -0.5581  0.1280 -1.3572
 9803TIP3   OH253603   0.610   5.432  12.135  0.1777 -0.2589 -0.5915
 9803TIP3    H153604   0.623   5.338  12.122  0.3601 -0.6071  1.6208
 9803TIP3    H253605   0.698   5.468  12.143  0.0895 -0.1924  0.1762
 9804TIP3   OH253606   5.772   5.010  12.576 -0.5714  0.3917 -0.4330
 9804TIP3    H153607   5.759   5.003  12.671 -0.4198  0.5315 -0.4031
 9804TIP3    H253608   5.723   5.088  12.551 -0.0801  0.7219 -0.3724
 9805TIP3   OH253609   7.263   2.192  11.453  0.0891 -0.5058  0.3388
 9805TIP3    H153610   7.245   2.137  11.377  0.4040  0.7139 -0.6606
 9805TIP3    H253611   7.228   2.143  11.527 -4.5212  0.1907 -1.0433
 9806TIP3   OH253612   4.956   2.487  10.445 -0.4698 -0.1714 -0.2446
 9806TIP3    H153613   5.018   2.560  10.443 -2.1395  1.2907 -1.7378
 9806TIP3    H253614   4.966   2.445  10.359 -2.6637  1.1450 -1.2219
 9807TIP3   OH253615   7.318   3.595  10.441 -0.4809 -0.2453 -0.1269
 9807TIP3    H153616   7.356   3.661  10.498  1.4418 -0.8732 -0.6046
 9807TIP3    H253617   7.382   3.584  10.371 -0.6236 -2.7460  0.0471
 9808TIP3   OH253618   4.359   4.438  10.952  0.1957  0.0733 -0.3843
 9808TIP3    H153619   4.383   4.497  10.881  0.1063 -0.1286 -0.5807
 9808TIP3    H253620   4.439   4.430  11.004  0.8117 -1.2197 -1.4728
 9809TIP3   OH253621   5.541   6.653  10.906  0.3211  0.0521  0.0804
 9809TIP3    H153622   5.511   6.713  10.837  1.3295  1.3413  0.7362
 9809TIP3    H253623   5.529   6.702  10.987 -2.8855 -2.1893  1.1728
 9810TIP3   OH253624   7.498   4.883  10.550 -0.2141 -0.2370  0.0775
 9810TIP3    H153625   7.427   4.895  10.613 -1.7526  0.2832 -1.6941
 9810TIP3    H253626   7.486   4.794  10.517  0.8897 -0.6885  0.8388
 9811TIP3   OH253627   5.031   2.620  12.756  0.6720  0.3272 -0.0627
 9811TIP3    H153628   5.032   2.533  12.716 -2.4000  0.5041 -0.7386
 9811TIP3    H253629   5.028   2.602  12.850  1.0986 -0.2601 -0.1531
 9812TIP3   OH253630   0.506   0.601  10.883  0.3121  0.5437 -0.1079
 9812TIP3    H153631   0.474   0.690  10.866  1.6148  1.0980  0.1415
 9812TIP3    H253632   0.511   0.595  10.978  0.0058  0.1098 -0.1179
 9813TIP3   OH253633   6.890   3.053  10.851  0.0175 -0.4125  0.2168
 9813TIP3    H153634   6.981   3.053  10.880 -0.5640 -2.6166  2.4562
 9813TIP3    H253635   6.880   2.969  10.806 -1.1806 -0.8093  1.1743
 9814TIP3   OH253636   5.076   5.581  12.305 -0.5536  0.5645 -0.3335
 9814TIP3    H153637   5.107   5.592  12.216 -0.9308 -0.0029 -0.5368
 9814TIP3    H253638   5.027   5.499  12.304  1.2834 -0.6089  0.9036
 9815TIP3   OH253639   3.977   1.123  11.748 -0.0132  0.3243 -0.7052
 9815TIP3    H153640   3.966   1.038  11.789  1.5011  0.6333  0.4206
 9815TIP3    H253641   4.054   1.114  11.692 -0.3626  0.7174 -1.2624
 9816TIP3   OH253642   5.301   5.356  12.420 -0.5673 -0.3753  0.0387
 9816TIP3    H153643   5.305   5.370  12.325  0.7482  0.1646  0.1573
 9816TIP3    H253644   5.256   5.273  12.430  0.8188 -1.3096 -1.1399
 9817TIP3   OH253645   5.681   1.174  10.654 -0.2202 -0.1006  0.0647
 9817TIP3    H153646   5.595   1.137  10.635  0.0300 -2.9013  3.3897
 9817TIP3    H253647   5.735   1.148  10.580 -1.5451 -0.8796 -0.6685
 9818TIP3   OH253648   1.481   3.104  11.918 -0.5112 -0.3092  0.3733
 9818TIP3    H153649   1.387   3.087  11.922 -0.5444 -0.6392 -1.2545
 9818TIP3    H253650   1.506   3.083  11.828  0.9098  0.9076  0.4354
 9819TIP3   OH253651   4.083   5.545  11.151 -0.1748  0.2510 -0.4366
 9819TIP3    H153652   4.141   5.470  11.136  1.8711  1.7207 -0.2679
 9819TIP3    H253653   4.001   5.506  11.180  1.4776 -1.9049  1.8522
 9820TIP3   OH253654   7.578   1.882  12.216  0.0528 -0.1712  0.1979
 9820TIP3    H153655   7.487   1.853  12.215  0.5863 -2.0289 -1.4121
 9820TIP3    H253656   7.610   1.864  12.128  1.8793  0.8571  0.5919
 9821TIP3   OH253657   6.724   2.921  10.609  0.2718 -0.0255  0.3480
 9821TIP3    H153658   6.633   2.950  10.613  0.5432  1.7002 -2.7345
 9821TIP3    H253659   6.719   2.832  10.576 -0.3277  0.0865  0.1131
 9822TIP3   OH253660   6.204   2.186  12.076  0.4937 -0.0529 -0.0467
 9822TIP3    H153661   6.185   2.137  12.157  2.6608 -1.2231 -0.1793
 9822TIP3    H253662   6.261   2.257  12.104 -1.2305  1.4370 -0.1376
 9823TIP3   OH253663   3.654   3.186  11.737  0.2618  0.0773  0.1256
 9823TIP3    H153664   3.575   3.221  11.695  0.8565 -2.0648 -3.1293
 9823TIP3    H253665   3.719   3.256  11.726 -0.2698  0.5121 -0.3573
 9824TIP3   OH253666   6.420   7.422  10.243 -0.0273 -0.6283  0.0454
 9824TIP3    H153667   6.451   7.374  10.320  0.5984 -2.5120 -1.3026
 9824TIP3    H253668   6.497   7.471  10.213  1.1279 -3.2959 -1.8019
 9825TIP3   OH253669   1.224   2.108  13.019 -0.2172 -0.9321 -0.2091
 9825TIP3    H153670   1.220   2.198  13.051  0.9912 -0.5984 -0.9192
 9825TIP3    H253671   1.317   2.094  12.998 -0.3594 -2.4029  0.0554
 9826TIP3   OH253672   6.075   6.454  10.979  0.2323 -0.5590  0.8158
 9826TIP3    H153673   6.078   6.548  10.961 -0.7892 -0.5340  0.6896
 9826TIP3    H253674   6.006   6.444  11.045 -1.2891 -1.4139 -0.7906
 9827TIP3   OH253675   5.823   6.742  12.255 -0.7345  0.1047 -0.0875
 9827TIP3    H153676   5.755   6.694  12.208 -1.9156  2.4698 -0.9845
 9827TIP3    H253677   5.888   6.763  12.188 -0.6013  0.3544  0.1173
 9828TIP3   OH253678   3.523   1.278  12.009  0.0133  0.0579 -0.0043
 9828TIP3    H153679   3.578   1.218  11.959  2.3551 -0.6616  3.1528
 9828TIP3    H253680   3.436   1.238  12.005  0.2487 -0.4015 -2.6425
 9829TIP3   OH253681   5.596   6.088  10.799 -0.1804  1.0910  0.1042
 9829TIP3    H153682   5.509   6.108  10.765 -0.6921 -0.3289  0.5164
 9829TIP3    H253683   5.635   6.174  10.819 -0.9262  1.8059 -1.3967
 9830TIP3   OH253684   3.461   6.935  10.721  0.3462  0.0397 -0.0024
 9830TIP3    H153685   3.371   6.930  10.753  0.3574 -0.8299 -0.0861
 9830TIP3    H253686   3.467   7.022  10.682  0.6604  1.6559  3.2977
 9831TIP3   OH253687   4.598   5.284  12.492 -0.2990  0.1303 -0.5093
 9831TIP3    H153688   4.653   5.207  12.504  1.5763  1.2601 -1.3330
 9831TIP3    H253689   4.543   5.288  12.570  0.6594 -1.1677  0.2612
 9832TIP3   OH253690   0.159   4.980  12.780  0.2691 -0.3135  0.0640
 9832TIP3    H153691   0.157   4.978  12.684  0.4154 -1.8864  0.0776
 9832TIP3    H253692   0.098   5.050  12.803  2.3866  2.1440 -1.2007
 9833TIP3   OH253693   1.715   0.315  11.687  0.2645  0.3358  0.2616
 9833TIP3    H153694   1.674   0.236  11.654 -1.2073  0.0325  2.5457
 9833TIP3    H253695   1.642   0.376  11.699  1.1331  1.4236  0.1580
 9834TIP3   OH253696   5.833   0.875  11.463  0.4194  0.3946  0.8122
 9834TIP3    H153697   5.861   0.847  11.376  0.4016 -0.8825  1.1992
 9834TIP3    H253698   5.828   0.794  11.513 -1.7894  0.8143  1.3683
 9835TIP3   OH253699   2.512   5.774  13.126  0.3071 -0.6338 -0.1903
 9835TIP3    H153700   2.519   5.692  13.077 -1.7885 -2.0684  1.6864
 9835TIP3    H253701   2.420   5.799  13.118  0.1068 -0.4021  2.0466
 9836TIP3   OH253702   6.220   5.764  11.306 -0.3931 -0.2101 -0.4579
 9836TIP3    H153703   6.232   5.739  11.214  0.1063  0.1741 -0.4981
 9836TIP3    H253704   6.259   5.692  11.355  3.0333  1.4027 -0.5828
 9837TIP3   OH253705   7.100   0.697  11.601  0.1196  0.7186 -0.2744
 9837TIP3    H153706   7.103   0.788  11.572  0.9524  0.4189 -1.2194
 9837TIP3    H253707   7.192   0.673  11.612  0.0880 -0.7352 -2.5523
 9838TIP3   OH253708   0.845   6.690  12.416  0.0583 -0.3055  0.8358
 9838TIP3    H153709   0.752   6.713  12.407  0.0119 -0.0509  1.8901
 9838TIP3    H253710   0.870   6.726  12.501  1.0249 -0.7170  0.7275
 9839TIP3   OH253711   4.849   3.596  11.040 -0.3291  0.0160 -0.1478
 9839TIP3    H153712   4.820   3.510  11.010 -0.9348 -0.4654  1.6898
 9839TIP3    H253713   4.776   3.655  11.018  0.9108  0.5574 -3.2843
 9840TIP3   OH253714   2.319   3.075  11.819  0.4603 -0.2696  0.0093
 9840TIP3    H153715   2.298   3.145  11.880 -0.0229 -0.4571  0.0564
 9840TIP3    H253716   2.237   3.056  11.775  0.5488 -0.9343  0.1254
 9841TIP3   OH253717   0.532   0.668  12.530 -0.6583 -0.0247 -0.0934
 9841TIP3    H153718   0.510   0.761  12.530 -1.4525 -0.1967  0.5834
 9841TIP3    H253719   0.503   0.636  12.616  1.9214 -0.3816  0.7076
 9842TIP3   OH253720   3.671   7.199  11.689 -0.3440  0.9031 -0.2556
 9842TIP3    H153721   3.662   7.149  11.608  1.3976  0.9070 -0.4750
 9842TIP3    H253722   3.741   7.262  11.672  0.3961  0.5821  1.3958
 9843TIP3   OH253723   2.894   0.699  12.219  0.4239  0.3711 -0.5360
 9843TIP3    H153724   2.850   0.726  12.138 -0.2078  0.7648 -0.0699
 9843TIP3    H253725   2.954   0.629  12.192  0.3217  0.5936 -1.3647
 9844TIP3   OH253726   6.821   1.586  11.534 -0.4060  0.8148 -0.2574
 9844TIP3    H153727   6.876   1.632  11.597  1.4723 -2.5723  0.8301
 9844TIP3    H253728   6.875   1.577  11.456 -0.9692  0.9380 -0.6719
 9845TIP3   OH253729   5.018   6.438  11.909 -0.0479 -0.0194  0.3302
 9845TIP3    H153730   4.934   6.426  11.954 -1.4289  0.6360 -1.9448
 9845TIP3    H253731   5.024   6.365  11.848  0.4970  0.5453 -0.3115
 9846TIP3   OH253732   1.694   2.831  12.085 -0.1688 -0.2864  0.2015
 9846TIP3    H153733   1.779   2.789  12.102 -0.1195 -0.6122 -0.7947
 9846TIP3    H253734   1.654   2.839  12.172  1.1768  0.5367  0.7788
 9847TIP3   OH253735   6.023  -0.069  10.379  0.0614  0.7401 -0.1840
 9847TIP3    H153736   5.972  -0.067  10.299 -0.9484 -1.2258  0.3438
 9847TIP3    H253737   6.009   0.016  10.419 -1.2187  0.9463 -1.0206
 9848TIP3   OH253738   2.426   2.652  11.904 -0.1957  0.0208 -0.1996
 9848TIP3    H153739   2.436   2.597  11.981 -0.8381  0.3210  0.1156
 9848TIP3    H253740   2.357   2.609  11.852 -2.1867  1.5130  1.0273
 9849TIP3   OH253741   7.617   4.237  12.579  0.3441  0.4372 -0.2864
 9849TIP3    H153742   7.670   4.214  12.502 -0.1231 -2.0131  0.0422
 9849TIP3    H253743   7.527   4.228  12.549  0.1086  1.9945 -0.1133
 9850TIP3   OH253744   0.543   6.474  11.479  0.0829  0.4548 -0.6445
 9850TIP3    H153745   0.474   6.411  11.496 -0.0598  0.8041  0.1189
 9850TIP3    H253746   0.499   6.545  11.431 -0.2006  0.8733  0.2049
 9851TIP3   OH253747   6.445   3.600  11.634  0.1464 -0.3458  0.2391
 9851TIP3    H153748   6.421   3.662  11.565  0.9603 -0.7213 -0.4022
 9851TIP3    H253749   6.394   3.521  11.614 -1.2001  0.2172  1.2898
 9852TIP3   OH253750   3.173   5.426  13.528 -0.2973  0.0295 -0.3059
 9852TIP3    H153751   3.197   5.345  13.574  1.2033  1.4324  1.5428
 9852TIP3    H253752   3.078   5.434  13.542 -0.5088 -1.4416 -0.6670
 9853TIP3   OH253753   4.506   6.129  11.762  0.2221 -0.0945  0.5222
 9853TIP3    H153754   4.565   6.165  11.695  0.2077 -0.9788  0.0252
 9853TIP3    H253755   4.541   6.163  11.845  0.6820  0.4056  0.1321
 9854TIP3   OH253756   0.766   1.827  11.809  0.2359  0.2851  0.1581
 9854TIP3    H153757   0.698   1.824  11.742 -1.3878  2.7844  1.5293
 9854TIP3    H253758   0.811   1.910  11.794  0.6552  0.3103  1.4184
 9855TIP3   OH253759   4.375   7.047  12.245  0.0001  0.4550 -0.0227
 9855TIP3    H153760   4.464   7.083  12.248 -0.1244  0.9081 -1.2347
 9855TIP3    H253761   4.333   7.082  12.324  1.3398 -1.0918  1.4739
 9856TIP3   OH253762   3.091   5.607  11.358 -0.2564  0.3578 -0.0208
 9856TIP3    H153763   3.000   5.624  11.336  0.3557  0.7760 -2.4735
 9856TIP3    H253764   3.130   5.571  11.278  0.9984 -3.0897  1.9098
 9857TIP3   OH253765   4.040   0.932  11.961  0.3090  0.3753  0.2948
 9857TIP3    H153766   4.117   0.882  11.987 -0.4605 -0.5457  0.8792
 9857TIP3    H253767   4.000   0.959  12.044 -0.4135  0.1791  0.0175
 9858TIP3   OH253768   1.363   1.417  12.937 -0.0014  0.4568  0.4605
 9858TIP3    H153769   1.415   1.339  12.918 -0.2556  0.7419 -1.7609
 9858TIP3    H253770   1.275   1.385  12.956 -0.0462  0.1749 -0.2012
 9859TIP3   OH253771   0.524   4.982  12.356 -0.2674  0.5558 -0.0008
 9859TIP3    H153772   0.607   4.944  12.328 -0.8181  0.1653 -1.1838
 9859TIP3    H253773   0.528   4.981  12.452  0.3087 -1.2398 -0.0123
 9860TIP3   OH253774   6.669   2.988  11.341  0.6829  0.5941  0.2825
 9860TIP3    H153775   6.655   3.045  11.265 -0.1382  0.3441  0.2366
 9860TIP3    H253776   6.581   2.956  11.364  1.1285 -0.6692  0.2956
 9861TIP3   OH253777   3.315   3.949  11.176  0.3746 -0.5460  0.4620
 9861TIP3    H153778   3.325   4.029  11.229  1.0083  0.1968 -0.7325
 9861TIP3    H253779   3.255   3.974  11.107  1.0035 -0.9354 -0.2352
 9862TIP3   OH253780   6.783   2.142  10.253 -0.5959 -0.4557  0.7430
 9862TIP3    H153781   6.804   2.136  10.347  1.1550  0.8779  0.4972
 9862TIP3    H253782   6.795   2.235  10.233 -0.1400 -0.8606 -0.9767
 9863TIP3   OH253783   0.075   2.052  12.576  0.1270 -0.1778  0.2742
 9863TIP3    H153784   0.112   2.009  12.499  0.5907 -0.8452  0.8564
 9863TIP3    H253785   0.100   2.144  12.566  1.3860 -0.4913  0.3068
 9864TIP3   OH253786   1.715   4.607  10.774  0.3498 -0.0890  0.1019
 9864TIP3    H153787   1.621   4.602  10.754  0.4986 -0.1561 -0.6124
 9864TIP3    H253788   1.745   4.517  10.768  0.2366 -0.2452  1.5319
 9865TIP3   OH253789   2.957   4.282  12.552  0.1817  0.7333  0.0004
 9865TIP3    H153790   2.864   4.289  12.528  0.0458 -1.3494 -0.2309
 9865TIP3    H253791   2.969   4.350  12.618 -1.1301  2.0217 -1.0163
 9866TIP3   OH253792   5.520   1.118  11.381  0.1430  0.1372 -0.5082
 9866TIP3    H153793   5.446   1.161  11.339 -0.6821  0.8731  1.5686
 9866TIP3    H253794   5.590   1.184  11.380  0.4609 -0.2006 -1.5650
 9867TIP3   OH253795   0.522   4.710  11.039  0.2114  0.6071  0.0906
 9867TIP3    H153796   0.538   4.705  10.945 -3.1908  0.0835 -0.5768
 9867TIP3    H253797   0.530   4.803  11.060 -1.7472  1.1501 -1.3383
 9868TIP3   OH253798   2.827   0.259  11.907 -0.1567 -0.6072 -0.2520
 9868TIP3    H153799   2.826   0.347  11.946  0.3544 -0.2264 -1.0846
 9868TIP3    H253800   2.802   0.273  11.816 -0.2463 -1.3578 -0.3442
 9869TIP3   OH253801   3.542   3.422  11.309 -0.1814 -0.5032 -0.4737
 9869TIP3    H153802   3.451   3.426  11.338 -0.0059  1.5267 -0.0645
 9869TIP3    H253803   3.576   3.341  11.347 -1.4227 -0.5733  0.5494
 9870TIP3   OH253804   1.598   5.767  12.047 -0.2364  0.3551 -0.5595
 9870TIP3    H153805   1.586   5.694  12.107 -0.4017 -0.1348 -1.1883
 9870TIP3    H253806   1.557   5.841  12.092 -1.7683 -0.3403 -0.7569
 9871TIP3   OH253807   5.443   0.871  11.474  0.1225 -0.3587 -0.4527
 9871TIP3    H153808   5.450   0.818  11.395  2.9378 -1.7566  0.5852
 9871TIP3    H253809   5.474   0.958  11.448 -0.8909 -0.2385 -1.3086
 9872TIP3   OH253810   3.881   1.979  11.309 -0.2039  0.4933  0.0437
 9872TIP3    H153811   3.829   1.933  11.375  2.0884 -0.6529  1.1825
 9872TIP3    H253812   3.852   2.070  11.314 -3.0074 -0.2687 -0.3928
 9873TIP3   OH253813   6.249   3.767  10.670 -0.8803 -0.4337  0.1694
 9873TIP3    H153814   6.210   3.799  10.752 -0.6845  2.3146 -0.7088
 9873TIP3    H253815   6.321   3.828  10.653 -0.1858 -1.6514 -1.4769
 9874TIP3   OH253816   1.024   1.417  11.869 -0.2033 -0.1493  0.1099
 9874TIP3    H153817   0.950   1.428  11.929 -1.2403  0.4631 -1.2256
 9874TIP3    H253818   1.095   1.384  11.924 -0.7217  1.5961  1.9183
 9875TIP3   OH253819   2.218   6.875  11.032  0.4272 -0.2980  0.4766
 9875TIP3    H153820   2.228   6.790  10.988 -2.0119  0.2888 -1.4062
 9875TIP3    H253821   2.191   6.853  11.121  0.7527 -1.4886  0.2998
 9876TIP3   OH253822   6.559   1.659  10.374 -0.1093  0.4052 -0.3010
 9876TIP3    H153823   6.484   1.707  10.411  0.3838  0.7960  0.2091
 9876TIP3    H253824   6.630   1.723  10.371  0.3761 -0.1207 -0.2266
 9877TIP3   OH253825   0.104   5.417  11.028  0.4310  0.0951  0.3260
 9877TIP3    H153826   0.031   5.446  10.973  0.3853  0.4135  0.5513
 9877TIP3    H253827   0.159   5.364  10.969  0.3411  0.3646 -0.0032
 9878TIP3   OH253828   1.995   0.207  11.540 -0.0659 -0.7078  0.1144
 9878TIP3    H153829   2.051   0.130  11.525 -2.0026 -2.8187  2.7177
 9878TIP3    H253830   2.006   0.228  11.632  0.7166  2.5530 -0.6023
 9879TIP3   OH253831   1.920   0.256  11.156  0.1564  0.1673 -0.3324
 9879TIP3    H153832   1.900   0.340  11.115 -0.9881 -1.8006 -4.2510
 9879TIP3    H253833   1.846   0.239  11.214  0.3468  1.7111  0.4229
 9880TIP3   OH253834   1.475   3.209  12.606 -0.0389  0.7250 -0.4297
 9880TIP3    H153835   1.560   3.211  12.650  0.3046 -0.0717 -1.0159
 9880TIP3    H253836   1.490   3.154  12.528 -1.9595 -2.6248  1.3378
 9881TIP3   OH253837   4.867   4.320  11.138 -0.3496  0.3569 -0.4502
 9881TIP3    H153838   4.931   4.370  11.188  0.2449  0.3957 -1.2309
 9881TIP3    H253839   4.904   4.232  11.133 -0.8346  0.1290 -0.0666
 9882TIP3   OH253840   0.179   7.159  11.582  0.2574 -0.1768 -0.3509
 9882TIP3    H153841   0.110   7.102  11.614  1.0609 -0.8110  0.2892
 9882TIP3    H253842   0.173   7.238  11.636  0.9324 -0.8145  0.6806
 9883TIP3   OH253843   7.559   2.507  12.673  0.3729 -0.5002  0.7160
 9883TIP3    H153844   7.591   2.565  12.742  1.0340 -0.5695  0.4705
 9883TIP3    H253845   7.637   2.479  12.626  0.1477 -2.1232  1.2293
 9884TIP3   OH253846   3.198   5.133  11.075 -0.0601  0.3588 -0.3230
 9884TIP3    H153847   3.207   5.101  11.165  0.5661  3.6424  0.9259
 9884TIP3    H253848   3.110   5.104  11.048 -0.1598 -0.9182  1.2216
 9885TIP3   OH253849   4.543   4.925  11.792 -0.3881  0.1302  0.1442
 9885TIP3    H153850   4.601   4.856  11.825  0.5232  0.9617  0.3313
 9885TIP3    H253851   4.586   5.006  11.818  1.3837  0.9840 -4.5202
 9886TIP3   OH253852   2.018   0.279  12.230 -0.8826  0.3735 -0.4819
 9886TIP3    H153853   2.001   0.196  12.186 -1.2074  0.3537 -0.3194
 9886TIP3    H253854   1.964   0.276  12.309 -0.9258  0.7556 -0.4964
 9887TIP3   OH253855   5.891   6.801  11.654 -0.0846 -0.3757 -0.1350
 9887TIP3    H153856   5.826   6.807  11.725  0.2208  0.5245  0.0850
 9887TIP3    H253857   5.864   6.869  11.592  0.7938  0.1890  0.0879
 9888TIP3   OH253858   7.731   4.782  12.967 -0.3175 -0.5335 -0.2837
 9888TIP3    H153859   7.684   4.794  13.050  0.3990 -1.3306  0.2620
 9888TIP3    H253860   7.775   4.865  12.951 -0.7004 -0.2786 -0.0215
 9889TIP3   OH253861   1.417   2.918  12.688 -0.3742 -0.1092  0.8207
 9889TIP3    H153862   1.399   2.985  12.621 -0.2490 -0.3847  0.5069
 9889TIP3    H253863   1.399   2.962  12.771 -0.0844  0.3846  0.6296
 9890TIP3   OH253864   0.555   1.470  10.388 -0.2378  0.0241  0.7744
 9890TIP3    H153865   0.613   1.516  10.328 -0.4385  1.1765  1.4312
 9890TIP3    H253866   0.614   1.437  10.457 -0.1851 -0.0441  0.6964
 9891TIP3   OH253867   7.635   1.304  12.919 -0.9131 -0.2036 -0.0268
 9891TIP3    H153868   7.577   1.281  12.846 -1.0052 -1.0690  0.3024
 9891TIP3    H253869   7.716   1.332  12.877 -1.1879 -0.0611 -0.4710
 9892TIP3   OH253870   2.108   1.291  12.874  0.1702  0.3878  0.4993
 9892TIP3    H153871   2.101   1.219  12.937  0.4447  0.4113  0.5568
 9892TIP3    H253872   2.042   1.354  12.903  0.5040  0.5364  0.9486
 9893TIP3   OH253873   3.932   3.512  11.173 -0.5367 -0.1725  0.3868
 9893TIP3    H153874   3.868   3.469  11.117 -2.0305  0.9923  1.1107
 9893TIP3    H253875   3.886   3.589  11.208  1.1525  0.5311  1.2173
 9894TIP3   OH253876   7.424   0.228  10.268 -0.0261  0.0799 -0.4198
 9894TIP3    H153877   7.469   0.144  10.267  0.5053  0.3528  0.1571
 9894TIP3    H253878   7.358   0.219  10.336 -0.0104  0.1130 -0.3999
 9895TIP3   OH253879   5.124   6.862  10.905  0.8005  0.1723  0.2905
 9895TIP3    H153880   5.146   6.955  10.898  1.0851  0.0975  0.1854
 9895TIP3    H253881   5.056   6.859  10.973  0.4714  0.5055 -0.0192
 9896TIP3   OH253882   4.760   1.877  11.614  0.3850  0.2675 -0.0953
 9896TIP3    H153883   4.851   1.887  11.584  0.4086  1.6261  0.3532
 9896TIP3    H253884   4.767   1.822  11.692  0.9344  0.9556  0.3624
 9897TIP3   OH253885   0.564   5.794  11.031 -0.2487 -0.6373  0.0365
 9897TIP3    H153886   0.635   5.846  11.070 -1.3512  1.7305 -0.8925
 9897TIP3    H253887   0.486   5.822  11.079 -0.8150 -1.9633 -0.0769
 9898TIP3   OH253888   2.870   3.749  12.126 -0.0591 -0.1471 -0.2487
 9898TIP3    H153889   2.846   3.808  12.055 -0.2827 -0.4632 -0.4416
 9898TIP3    H253890   2.958   3.775  12.151  0.3084 -0.4979 -1.1309
 9899TIP3   OH253891   6.210   7.621  12.629 -0.6879 -0.5885 -0.3867
 9899TIP3    H153892   6.303   7.610  12.650 -1.0894  0.9532  2.9068
 9899TIP3    H253893   6.206   7.616  12.534  3.0138  0.8338 -0.7987
 9900TIP3   OH253894   0.815   3.763  12.603 -0.3156 -0.3505  0.3880
 9900TIP3    H153895   0.865   3.764  12.684  1.2994 -0.0238 -0.5652
 9900TIP3    H253896   0.864   3.705  12.545 -0.5500  0.6470 -0.8599
 9901TIP3   OH253897   0.332   5.430  10.661  0.0514 -0.3325 -0.0121
 9901TIP3    H153898   0.300   5.394  10.744 -2.2413  0.1298 -0.6437
 9901TIP3    H253899   0.278   5.389  10.594  0.6089  0.7135 -1.1432
 9902TIP3   OH253900   7.528   1.399  10.861  0.3691 -0.0366 -0.6589
 9902TIP3    H153901   7.608   1.369  10.904  0.4164  0.4924 -0.3747
 9902TIP3    H253902   7.508   1.483  10.902 -0.4526 -0.2634 -0.5677
 9903TIP3   OH253903   0.496   0.539  11.162  0.0748 -0.4303  0.0923
 9903TIP3    H153904   0.429   0.473  11.142  0.2300 -1.5333  2.8417
 9903TIP3    H253905   0.464   0.581  11.242  0.7156  1.8670 -0.8003
 9904TIP3   OH253906   2.448   6.530  12.060 -0.4091  0.3396 -0.0610
 9904TIP3    H153907   2.529   6.522  12.110 -0.2760 -1.5890 -0.4842
 9904TIP3    H253908   2.451   6.618  12.023  1.0892  0.6041  0.5978
 9905TIP3   OH253909   0.525   7.497  12.155 -0.7809  0.2831 -0.0971
 9905TIP3    H153910   0.463   7.533  12.218 -0.1600  0.4657  0.4242
 9905TIP3    H253911   0.569   7.426  12.202 -0.5845  0.1680 -0.4493
 9906TIP3   OH253912   0.319   1.087  11.228  0.7769  0.0530  0.2185
 9906TIP3    H153913   0.247   1.058  11.284  0.4029 -1.0213 -0.7699
 9906TIP3    H253914   0.346   1.008  11.181  0.1480  1.1248 -2.1248
 9907TIP3   OH253915   4.712   7.292  10.819  0.0606  0.1673  0.6805
 9907TIP3    H153916   4.752   7.215  10.860  1.3516  0.1893 -0.4268
 9907TIP3    H253917   4.621   7.268  10.806  0.7320 -1.8406 -0.9886
 9908TIP3   OH253918   1.746   2.057  12.604  0.2151  0.8172 -0.0241
 9908TIP3    H153919   1.750   2.068  12.509 -0.9557 -2.5534 -0.6106
 9908TIP3    H253920   1.808   1.987  12.622  0.3472  1.3495  1.7278
 9909TIP3   OH253921   2.691   6.931  11.673 -0.7172  0.4936  0.3498
 9909TIP3    H153922   2.736   6.896  11.750  0.2013  1.4697  0.2729
 9909TIP3    H253923   2.598   6.928  11.696 -0.3978  1.7068  1.8955
 9910TIP3   OH253924   6.829   2.742  11.104 -0.1461  0.1947 -0.5324
 9910TIP3    H153925   6.903   2.795  11.132 -1.8705  1.2347  2.6285
 9910TIP3    H253926   6.783   2.797  11.039  0.1870  0.9082 -0.1790
 9911TIP3   OH253927   1.744   3.468  11.868 -0.0096  0.4451 -0.0410
 9911TIP3    H153928   1.781   3.555  11.880 -0.7639  0.6946  0.5056
 9911TIP3    H253929   1.679   3.479  11.798 -0.1492  0.3299  0.0709
 9912TIP3   OH253930   6.914   7.241  10.579 -0.0708  0.0223 -0.1338
 9912TIP3    H153931   6.876   7.154  10.562 -0.3149 -0.1673  1.2948
 9912TIP3    H253932   6.985   7.225  10.642  0.3436  0.7770 -0.3948
 9913TIP3   OH253933   3.729   5.489  11.748 -0.7397  0.0069  0.1058
 9913TIP3    H153934   3.813   5.445  11.758 -0.1977  0.9524 -0.0909
 9913TIP3    H253935   3.750   5.582  11.754 -2.1607  0.2518  2.9404
 9914TIP3   OH253936   5.131   0.823  11.379  0.1558  0.0811  0.1477
 9914TIP3    H153937   5.078   0.871  11.316 -0.6344 -1.9601 -0.8177
 9914TIP3    H253938   5.220   0.858  11.368 -0.2620  0.8165 -1.0090
 9915TIP3   OH253939   5.494   3.800  12.548  0.5019  0.2202 -0.2312
 9915TIP3    H153940   5.401   3.784  12.563  0.8046  0.5103  2.3790
 9915TIP3    H253941   5.512   3.883  12.593  2.0544  0.0558 -0.4853
 9916TIP3   OH253942   2.507   7.386  11.531 -0.3998 -0.4297 -0.1686
 9916TIP3    H153943   2.590   7.358  11.493  0.5267  1.6362  0.1991
 9916TIP3    H253944   2.523   7.390  11.625 -0.6826  0.6639 -0.1529
 9917TIP3   OH253945   2.923   3.395  12.993  0.1726 -0.0735  0.3021
 9917TIP3    H153946   2.999   3.413  13.049 -0.7177  0.4482  1.3913
 9917TIP3    H253947   2.896   3.307  13.017 -0.4967  0.3270  1.0728
 9918TIP3   OH253948   2.827   5.658  11.581 -0.9929  0.2478 -0.0443
 9918TIP3    H153949   2.801   5.617  11.664 -1.0522 -0.1065 -0.2341
 9918TIP3    H253950   2.833   5.751  11.601 -1.7490  0.2523  0.1664
 9919TIP3   OH253951   0.307   2.757  11.522  0.6448  0.2426  0.1056
 9919TIP3    H153952   0.366   2.815  11.474 -1.0570  1.5995 -0.4719
 9919TIP3    H253953   0.346   2.749  11.609  1.1405  2.0177  0.0923
 9920TIP3   OH253954   3.164   3.607  11.187  0.3013  0.0598 -0.6026
 9920TIP3    H153955   3.226   3.590  11.116  0.3628 -0.1186 -0.5067
 9920TIP3    H253956   3.190   3.547  11.257  1.2343  1.2981  0.1770
 9921TIP3   OH253957   2.248   4.202  11.578  0.1117 -0.2817  0.0141
 9921TIP3    H153958   2.227   4.149  11.655 -0.7567 -0.2679 -0.2032
 9921TIP3    H253959   2.180   4.180  11.514 -0.2497  1.0809 -0.0925
 9922TIP3   OH253960   4.049   7.677  12.439  0.5895  0.4380  0.1904
 9922TIP3    H153961   4.044   7.717  12.525 -0.7904 -0.9833  0.8129
 9922TIP3    H253962   3.961   7.686  12.402  0.6449 -0.6166 -0.2656
 9923TIP3   OH253963   3.605   2.729  11.994 -0.1115  0.1902 -0.4265
 9923TIP3    H153964   3.610   2.640  11.960  0.0407  0.2752 -0.6295
 9923TIP3    H253965   3.680   2.774  11.955 -0.1326  0.3802 -0.2475
 9924TIP3   OH253966   5.149   0.639  12.348 -0.1408 -0.2439  0.1748
 9924TIP3    H153967   5.115   0.728  12.352  0.6966  0.2470 -2.1330
 9924TIP3    H253968   5.078   0.588  12.307  0.2129 -0.1397 -0.5856
 9925TIP3   OH253969   4.625   4.182  11.341  0.1017  0.7514  0.5248
 9925TIP3    H153970   4.575   4.213  11.417 -2.9669  1.7732 -1.7021
 9925TIP3    H253971   4.586   4.097  11.320  2.3556 -0.5311  1.2238
 9926TIP3   OH253972   6.050   4.840  12.071  0.0945  0.0164  0.0380
 9926TIP3    H153973   6.144   4.829  12.062  0.2058  0.3135  0.7879
 9926TIP3    H253974   6.030   4.806  12.158 -0.6435 -0.9733 -0.5017
 9927TIP3   OH253975   4.377   4.256  10.718 -0.1237 -0.3753  0.4882
 9927TIP3    H153976   4.327   4.269  10.799 -0.8438  0.0932 -0.0207
 9927TIP3    H253977   4.442   4.327  10.719 -0.4151 -0.1065  0.4467
 9928TIP3   OH253978   4.765   5.418  12.108 -0.2190  0.5858  0.1127
 9928TIP3    H153979   4.815   5.421  12.189 -0.2230 -0.2381  0.1465
 9928TIP3    H253980   4.801   5.490  12.056  1.3006 -0.2410 -0.0335
 9929TIP3   OH253981   0.053   5.014  10.582  0.2759  0.1043  1.1500
 9929TIP3    H153982   0.056   5.054  10.669  1.2066 -0.2214  1.2866
 9929TIP3    H253983  -0.030   4.966  10.580 -1.4529  2.9006  0.5605
 9930TIP3   OH253984   4.483   6.976  11.730 -0.2880 -0.3171  0.3077
 9930TIP3    H153985   4.499   7.066  11.703 -0.3586 -0.1347  0.8568
 9930TIP3    H253986   4.390   6.961  11.710  0.1341 -0.8464 -1.3866
 9931TIP3   OH253987   1.273   3.443  12.935  0.0186  0.1541 -0.1468
 9931TIP3    H153988   1.236   3.415  13.018  0.2314 -0.5327 -0.2819
 9931TIP3    H253989   1.239   3.532  12.922  1.2804  0.9386  1.4753
 9932TIP3   OH253990   5.876   1.111  10.466 -0.2240 -0.2277  0.6927
 9932TIP3    H153991   5.946   1.176  10.472  0.4961 -0.7632 -1.1652
 9932TIP3    H253992   5.918   1.029  10.492  0.0754 -0.6666 -1.0318
 9933TIP3   OH253993   2.462   2.379  12.433 -0.1161  0.5638  0.2929
 9933TIP3    H153994   2.514   2.339  12.503 -0.9569 -0.5754  0.3036
 9933TIP3    H253995   2.457   2.472  12.457 -0.2792  0.2203  1.6846
 9934TIP3   OH253996   2.647   6.427  11.172  0.5434 -0.6047  0.4988
 9934TIP3    H153997   2.590   6.451  11.099 -1.3090  2.0377  2.5758
 9934TIP3    H253998   2.736   6.443  11.140 -0.0902 -0.9721 -1.5871
 9935TIP3   OH253999   2.588   2.130  12.311  0.5186 -0.1123 -0.0502
 9935TIP3    H154000   2.541   2.203  12.353  0.1845 -0.6105  0.4581
 9935TIP3    H254001   2.526   2.096  12.246  1.6237  1.6763 -2.1356
 9936TIP3   OH254002   4.904   1.098  12.225 -0.6198 -0.2535 -0.4874
 9936TIP3    H154003   4.998   1.103  12.208 -0.4300 -1.2018  0.2188
 9936TIP3    H254004   4.898   1.063  12.314 -1.6443 -1.2061 -0.9156
 9937TIP3   OH254005   1.250   4.272  11.113 -0.3423  0.3628  0.0849
 9937TIP3    H154006   1.186   4.338  11.086 -1.5789  0.0065  1.9224
 9937TIP3    H254007   1.235   4.199  11.053 -0.3467  0.9900 -0.6947
 9938TIP3   OH254008   2.172   0.810  10.882 -0.7042  0.4856  0.4490
 9938TIP3    H154009   2.103   0.756  10.921  0.4359 -1.6283 -0.2870
 9938TIP3    H254010   2.254   0.770  10.912  0.2156  2.1133  0.2210
 9939TIP3   OH254011   2.043   6.660  11.835  0.0151 -0.0873  0.8533
 9939TIP3    H154012   2.033   6.753  11.815 -0.1854 -0.2474  0.2124
 9939TIP3    H254013   2.108   6.658  11.906 -0.1837  0.5545  1.0608
 9940TIP3   OH254014   7.387   2.664  10.786  0.0875 -0.3226  0.1795
 9940TIP3    H154015   7.327   2.684  10.713 -0.3225  1.0187  0.8423
 9940TIP3    H254016   7.356   2.720  10.858  1.9376  0.1888  0.6312
 9941TIP3   OH254017   2.129   4.110  10.813 -0.1149  0.5730 -0.4939
 9941TIP3    H154018   2.208   4.112  10.867 -0.7566  1.0836  0.4394
 9941TIP3    H254019   2.125   4.020  10.781  0.1765  0.2186  0.4469
 9942TIP3   OH254020   2.527   6.506  10.927  0.0519  0.1376  0.5085
 9942TIP3    H154021   2.603   6.549  10.889  1.8748 -1.4865  2.0702
 9942TIP3    H254022   2.512   6.430  10.871  0.0623  0.0553  0.6159
 9943TIP3   OH254023   0.520   6.462  12.439  0.5418  0.2210  0.1132
 9943TIP3    H154024   0.427   6.457  12.417  0.3602  3.6706 -0.4782
 9943TIP3    H254025   0.524   6.438  12.531 -1.3332  2.0614  0.7507
 9944TIP3   OH254026   6.652   3.582  10.648 -0.1302  0.2939  0.8247
 9944TIP3    H154027   6.683   3.540  10.728  3.7145  1.3123  0.1177
 9944TIP3    H254028   6.721   3.564  10.584 -2.2282  0.9502 -1.8108
 9945TIP3   OH254029   1.731   7.573  12.054  0.3090  0.6495 -0.5552
 9945TIP3    H154030   1.688   7.552  12.137 -0.1911  0.3241 -0.8909
 9945TIP3    H254031   1.694   7.510  11.992 -0.5409  1.9320 -1.3961
 9946TIP3   OH254032   4.306   1.556  12.103  0.0541 -0.3013 -0.1274
 9946TIP3    H154033   4.385   1.609  12.110  0.1419 -0.4746  0.2184
 9946TIP3    H254034   4.240   1.606  12.151 -0.4434  0.5726 -1.6501
 9947TIP3   OH254035   1.432   4.355  12.831  0.0838 -0.6599  0.4408
 9947TIP3    H154036   1.495   4.428  12.828 -2.0101  1.2455  0.5991
 9947TIP3    H254037   1.426   4.333  12.924 -1.0672  0.6759  0.7198
 9948TIP3   OH254038   6.348   5.763  12.085 -0.3922  0.0333  0.1235
 9948TIP3    H154039   6.318   5.845  12.046 -3.2965 -0.4573  1.0955
 9948TIP3    H254040   6.354   5.781  12.178  2.5421  0.0549  0.0423
 9949TIP3   OH254041   4.078   4.505  11.260 -0.5374  0.0342 -0.2337
 9949TIP3    H154042   4.168   4.485  11.283 -0.4837  1.1456  0.5882
 9949TIP3    H254043   4.066   4.463  11.174  0.3794 -1.0948  0.1559
 9950TIP3   OH254044   3.585   2.022  12.385 -0.0721 -0.4376  0.0979
 9950TIP3    H154045   3.510   1.964  12.375 -0.8215  0.6662 -0.8634
 9950TIP3    H254046   3.659   1.963  12.400 -0.8204 -1.6442 -0.8020
 9951TIP3   OH254047   6.295   4.053  10.887  0.1659 -0.4482 -0.1759
 9951TIP3    H154048   6.319   4.140  10.856 -0.7785 -0.1374 -0.0836
 9951TIP3    H254049   6.347   3.993  10.834  0.1171  0.1441 -0.8998
 9952TIP3   OH254050   6.589   4.923  10.785 -0.5243  0.0581 -0.1791
 9952TIP3    H154051   6.638   4.974  10.850  0.8278 -0.0905 -1.0331
 9952TIP3    H254052   6.551   4.850  10.834 -0.6611  0.6861  0.6671
 9953TIP3   OH254053   3.869   6.024  12.289 -0.0732  0.5831  0.0134
 9953TIP3    H154054   3.883   5.955  12.353  0.5578  1.6662  1.0921
 9953TIP3    H254055   3.808   5.986  12.225  2.3413 -1.9399 -0.9926
 9954TIP3   OH254056   7.513   4.466  11.972 -0.3231 -0.1339 -0.4915
 9954TIP3    H154057   7.524   4.494  11.881  0.1765  1.8854  0.1525
 9954TIP3    H254058   7.593   4.418  11.993 -0.2443 -0.2139 -0.9708
 9955TIP3   OH254059   5.627   1.490  12.472 -0.2173  0.0915 -0.1036
 9955TIP3    H154060   5.599   1.510  12.562  0.4518 -2.2908  0.7081
 9955TIP3    H254061   5.548   1.457  12.429 -0.1426 -0.4893  0.1922
 9956TIP3   OH254062   4.521   5.340  11.577 -0.5568  0.2927 -0.4966
 9956TIP3    H154063   4.568   5.262  11.548 -0.8276  0.5702 -1.7402
 9956TIP3    H254064   4.496   5.321  11.667 -0.2532 -0.8818 -0.6425
 9957TIP3   OH254065   5.049   5.210  13.206 -0.0004 -0.0639 -0.7208
 9957TIP3    H154066   5.134   5.193  13.164 -0.8684 -0.1474 -2.5168
 9957TIP3    H254067   5.066   5.282  13.267  2.0287 -2.0618  1.3031
 9958TIP3   OH254068   5.216   0.521  10.905  0.7049  0.4795  0.3890
 9958TIP3    H154069   5.278   0.502  10.975  1.3901 -1.1579 -0.5881
 9958TIP3    H254070   5.133   0.537  10.950  1.5342  1.4378  1.6519
 9959TIP3   OH254071   5.513   1.459  11.091 -0.4359 -0.0896  0.4759
 9959TIP3    H154072   5.594   1.452  11.041 -1.7666  0.6109 -1.9163
 9959TIP3    H254073   5.532   1.526  11.157  0.5316  1.0245 -0.8892
 9960TIP3   OH254074   6.073   6.535  10.447 -0.2371  0.7400 -0.0873
 9960TIP3    H154075   6.101   6.602  10.509  3.8582 -2.2987  1.8665
 9960TIP3    H254076   5.994   6.498  10.485 -0.4453  2.0136  0.7604
 9961TIP3   OH254077   5.746   0.065  13.136  0.3194 -0.0361 -0.1635
 9961TIP3    H154078   5.655   0.039  13.152  0.7138 -1.0374  0.5306
 9961TIP3    H254079   5.739   0.154  13.101 -1.0455 -0.7919 -2.0537
 9962TIP3   OH254080   4.959   2.149  11.335 -0.4737  0.2796 -0.2380
 9962TIP3    H154081   4.975   2.055  11.322 -0.6279  0.2299 -0.0670
 9962TIP3    H254082   4.885   2.168  11.277 -2.2877 -0.3024  1.7484
 9963TIP3   OH254083   5.038   1.679  11.860  0.7923 -0.6349  0.5877
 9963TIP3    H154084   5.004   1.738  11.927  1.0605  0.5084 -0.2425
 9963TIP3    H254085   4.976   1.689  11.787  0.9525 -1.2433  0.3660
 9964TIP3   OH254086   2.479   1.102  11.406  0.2269 -0.9640 -0.8571
 9964TIP3    H154087   2.507   1.177  11.459 -0.4787  0.2926 -2.1817
 9964TIP3    H254088   2.479   1.028  11.467  0.1811  0.2591  0.6974
 9965TIP3   OH254089   1.477   4.655  11.287  0.0006  0.0748 -0.2906
 9965TIP3    H154090   1.526   4.674  11.367 -1.0284  1.1913  0.1137
 9965TIP3    H254091   1.493   4.562  11.270 -0.4006 -0.4179  1.6906
 9966TIP3   OH254092   0.223   6.148  12.271 -0.2454 -0.0499 -0.2673
 9966TIP3    H154093   0.212   6.058  12.300 -0.2039  0.1756  0.4848
 9966TIP3    H254094   0.201   6.147  12.178 -0.3249 -0.8144 -0.2449
 9967TIP3   OH254095   0.912   2.932  11.706 -0.4025 -0.0857  0.1139
 9967TIP3    H154096   0.868   3.013  11.731 -0.8600 -0.2909 -0.0130
 9967TIP3    H254097   0.994   2.932  11.756  0.2600  1.1100 -0.9059
 9968TIP3   OH254098   3.196   3.497  11.625 -0.4524  0.7778  0.1955
 9968TIP3    H154099   3.237   3.575  11.664  0.4594  0.3693  0.0894
 9968TIP3    H254100   3.114   3.529  11.587 -0.0802  1.6954  0.1378
 9969TIP3   OH254101   3.457   7.287  12.037  0.5341  0.2529 -0.1519
 9969TIP3    H154102   3.450   7.296  11.942  2.4785  1.6520 -0.2241
 9969TIP3    H254103   3.438   7.195  12.054 -1.1398  0.2488 -1.7327
 9970TIP3   OH254104   5.615   4.860  11.972 -0.0594 -0.1688 -0.7074
 9970TIP3    H154105   5.672   4.858  12.049  0.2835 -2.5303 -0.9661
 9970TIP3    H254106   5.527   4.875  12.007  0.0900 -1.2200  0.1591
 9971TIP3   OH254107   6.500   6.894  12.306 -0.4963 -0.0127  0.7216
 9971TIP3    H154108   6.443   6.827  12.268 -0.4623 -0.0300  0.7017
 9971TIP3    H254109   6.503   6.873  12.400 -0.9125  0.2777  0.8023
 9972TIP3   OH254110   1.580   4.731  12.187 -0.7138 -0.1916 -0.1403
 9972TIP3    H154111   1.644   4.793  12.152 -0.7575  0.4343  0.8493
 9972TIP3    H254112   1.632   4.669  12.239 -0.9911  1.0083  1.6441
 9973TIP3   OH254113   2.412   1.248  10.930  0.0146  0.3383 -0.3511
 9973TIP3    H154114   2.370   1.309  10.990  0.6924  0.6475 -0.1785
 9973TIP3    H254115   2.342   1.188  10.903 -0.6670  1.1751 -0.5102
 9974TIP3   OH254116   3.175   4.175  12.416  0.2315  0.6074  0.8078
 9974TIP3    H154117   3.139   4.172  12.327  1.5648 -2.0626  0.2423
 9974TIP3    H254118   3.109   4.222  12.467 -2.7812 -1.6564 -0.6704
 9975TIP3   OH254119   1.719   2.372  12.061 -0.1775 -0.0136  0.1854
 9975TIP3    H154120   1.645   2.332  12.016  0.1814  0.8294 -1.2448
 9975TIP3    H254121   1.747   2.443  12.003 -0.0196  1.5174  2.0250
 9976TIP3   OH254122   3.017   4.488  11.651 -0.4398 -0.6671  0.0214
 9976TIP3    H154123   2.925   4.469  11.674 -0.5488 -0.8192 -0.5274
 9976TIP3    H254124   3.015   4.578  11.619 -0.1841 -0.2382  1.1484
 9977TIP3   OH254125   2.037   6.291  11.513 -0.9066  0.3023  0.1734
 9977TIP3    H154126   1.979   6.242  11.455 -0.8702  1.8773 -1.2617
 9977TIP3    H254127   2.109   6.321  11.457  0.2716  0.0741  1.4916
 9978TIP3   OH254128   1.624   5.649  13.292  0.0067 -0.0634  0.0511
 9978TIP3    H154129   1.586   5.567  13.324 -2.3896  0.6857 -0.6752
 9978TIP3    H254130   1.648   5.631  13.201 -1.3881  0.2484 -0.4056
 9979TIP3   OH254131   4.357   6.601  13.119 -0.1564 -0.3707  0.0241
 9979TIP3    H154132   4.444   6.572  13.088  0.5832  1.2342  0.5200
 9979TIP3    H254133   4.351   6.692  13.091 -0.3174  0.5375  2.7203
 9980TIP3   OH254134   1.656   3.899  12.302 -0.5695  0.6942 -0.4218
 9980TIP3    H154135   1.593   3.970  12.314 -3.1684 -1.0179 -2.4414
 9980TIP3    H254136   1.643   3.872  12.211  0.8130 -1.8655  0.0509
 9981TIP3   OH254137   2.958   7.653  11.875 -0.5170 -0.0072  0.4278
 9981TIP3    H154138   2.945   7.747  11.889  0.5525  0.6184 -2.2954
 9981TIP3    H254139   3.052   7.639  11.890 -0.4064 -0.3436 -0.5157
 9982TIP3   OH254140   2.386   2.040  13.013  0.1456 -0.0504  0.3795
 9982TIP3    H154141   2.405   2.006  13.101 -2.0091  1.6630  1.6149
 9982TIP3    H254142   2.327   1.975  12.974  1.2263 -0.8898  0.1216
 9983TIP3   OH254143   5.156   3.948  11.730 -0.0208  0.2923  0.2095
 9983TIP3    H154144   5.231   3.888  11.724  0.6120  1.0143  0.6889
 9983TIP3    H254145   5.193   4.034  11.711 -0.5896  0.7552  1.1205
 9984TIP3   OH254146   2.237   4.724  11.038  0.2119  0.0447  0.1454
 9984TIP3    H154147   2.226   4.813  11.070 -0.2790  0.7940 -1.9182
 9984TIP3    H254148   2.154   4.680  11.058  0.2736  0.1802  0.7182
 9985TIP3   OH254149   1.069   5.638  11.873 -0.2009 -0.0303  0.2490
 9985TIP3    H154150   1.086   5.732  11.865  0.8607 -0.3330 -1.8313
 9985TIP3    H254151   1.049   5.625  11.965 -0.8694  2.3087  0.5028
 9986TIP3   OH254152   5.801   5.634  13.017  0.2338 -0.3651 -0.9564
 9986TIP3    H154153   5.886   5.590  13.023 -0.1619 -1.1229 -0.8953
 9986TIP3    H254154   5.737   5.566  13.036 -0.4151  0.0908 -1.4665
 9987TIP3   OH254155   6.793   6.222  10.976  0.0533 -0.6800 -0.3798
 9987TIP3    H154156   6.742   6.297  10.945 -1.5605 -1.4106  0.3516
 9987TIP3    H254157   6.817   6.175  10.896  1.2634  0.6879 -0.8613
 9988TIP3   OH254158   1.219   1.046  11.173 -0.2124 -0.4542  0.4573
 9988TIP3    H154159   1.268   1.077  11.249 -1.1543  2.5151 -0.0008
 9988TIP3    H254160   1.133   1.087  11.183 -0.2931  0.2193 -2.2915
 9989TIP3   OH254161   1.909   6.007  11.972 -0.1634  0.4156 -0.1510
 9989TIP3    H154162   1.978   5.943  11.957 -0.8199 -0.1562 -0.8434
 9989TIP3    H254163   1.922   6.036  12.062 -1.0025 -2.1390  0.8730
 9990TIP3   OH254164   3.146   4.017  10.975 -0.5937 -0.1236 -0.0861
 9990TIP3    H154165   3.055   4.036  10.998 -0.2514  0.9243  0.4391
 9990TIP3    H254166   3.168   4.084  10.910 -0.4924 -0.9808 -0.9513
 9991TIP3   OH254167   3.289   6.209  12.066  0.4116  0.0706 -0.1354
 9991TIP3    H154168   3.359   6.258  12.108  0.4627  0.9404 -1.1992
 9991TIP3    H254169   3.309   6.213  11.973 -0.7221 -0.1880 -0.4098
 9992TIP3   OH254170   6.411   4.162  11.324  0.3747 -0.1849 -0.0230
 9992TIP3    H154171   6.360   4.226  11.274 -0.4995  0.5401  1.6986
 9992TIP3    H254172   6.464   4.118  11.259 -2.8462 -1.4165 -2.0575
 9993TIP3   OH254173   6.702   3.928  12.084 -0.1024  0.1801 -0.4650
 9993TIP3    H154174   6.714   3.872  12.007 -2.3380  0.2235 -0.9183
 9993TIP3    H254175   6.613   3.910  12.113  0.4955  0.5852  1.8149
 9994TIP3   OH254176   1.888   4.771  11.286  0.6800  0.0079  0.1573
 9994TIP3    H154177   1.920   4.750  11.198 -1.2984 -0.7158 -0.4421
 9994TIP3    H254178   1.822   4.838  11.272 -0.4755 -0.9256  0.9336
 9995TIP3   OH254179   2.595   4.585  11.427 -0.2324 -0.0291  0.2327
 9995TIP3    H154180   2.661   4.519  11.402 -0.6884 -0.0688 -0.9126
 9995TIP3    H254181   2.635   4.630  11.502  1.2975  0.2189 -0.6757
 9996TIP3   OH254182   3.613   3.889  11.894  0.0058  0.5554 -0.1220
 9996TIP3    H154183   3.557   3.817  11.866 -0.9480  1.1635  0.1748
 9996TIP3    H254184   3.696   3.873  11.850 -0.8156  0.3936 -1.6964
 9997TIP3   OH254185   2.649   7.317  13.025 -0.2498 -0.0992  0.3780
 9997TIP3    H154186   2.731   7.367  13.021 -1.5813  2.4429  2.0314
 9997TIP3    H254187   2.676   7.230  13.056  1.8361  0.6977  1.0027
 9998TIP3   OH254188   5.436   3.222  12.879  0.1525 -0.5870  0.4310
 9998TIP3    H154189   5.382   3.176  12.943 -2.2054 -1.3856 -1.9332
 9998TIP3    H254190   5.398   3.309  12.873  1.5882  0.1480  1.4341
 9999TIP3   OH254191   0.927   1.545  10.912 -1.0270 -0.2365  0.3535
 9999TIP3    H154192   0.969   1.595  10.982 -0.1463 -1.6625  0.8955
 9999TIP3    H254193   0.995   1.536  10.845 -0.2382 -2.8584  1.3831
10000TIP3   OH254194   7.057   6.911  10.174  0.3227 -0.0661  0.0369
10000TIP3    H154195   7.093   6.953  10.252 -2.0130  0.7670  0.7599
10000TIP3    H254196   7.038   6.983  10.114  0.8312 -0.5752 -0.7538
10001TIP3   OH254197   0.779   1.948  11.132  0.1923 -0.0193 -0.5346
10001TIP3    H154198   0.872   1.967  11.123  0.5425 -1.6283 -0.5384
10001TIP3    H254199   0.759   1.966  11.224  0.4497  0.5162 -0.5783
10002TIP3   OH254200   1.420   1.020  11.798 -0.6321  0.1732  0.4141
10002TIP3    H154201   1.327   1.015  11.816 -0.5820 -2.1069  0.3344
10002TIP3    H254202   1.462   1.016  11.884 -0.5844 -0.5346  0.3617
10003TIP3   OH254203   7.002   5.234  13.251  0.1271  0.7507 -0.3909
10003TIP3    H154204   6.980   5.226  13.343  2.9935 -1.3677  0.2428
10003TIP3    H254205   6.925   5.202  13.204 -0.3321 -0.8741  1.3800
10004TIP3   OH254206   1.900   4.418  11.311 -0.6588 -0.3889  0.3034
10004TIP3    H154207   1.842   4.393  11.239  1.0199  1.0605 -1.6568
10004TIP3    H254208   1.878   4.510  11.327  1.1102  0.2237 -0.5600
10005TIP3   OH254209   3.784   7.227  10.900 -0.1837  0.0544 -0.1536
10005TIP3    H154210   3.813   7.137  10.911  0.2747  0.2603  0.3177
10005TIP3    H254211   3.864   7.277  10.885 -0.2508  0.6514  1.3517
10006TIP3   OH254212   0.982   4.758  11.889 -0.2817 -0.2424  0.6225
10006TIP3    H154213   1.005   4.760  11.796 -0.0316 -1.2846  0.6450
10006TIP3    H254214   0.893   4.722  11.891 -0.4371  0.1462  0.7663
10007TIP3   OH254215   4.033   5.800  11.229  0.2351 -0.5128  0.0571
10007TIP3    H154216   3.972   5.813  11.301  0.7424  0.6885  0.2974
10007TIP3    H254217   4.057   5.707  11.233 -0.9026 -0.8017  0.4768
10008TIP3   OH254218   5.860   6.129  13.882 -0.5933 -0.0372  0.0935
10008TIP3    H154219   5.914   6.076  13.823 -0.7783 -0.4595  0.3003
10008TIP3    H254220   5.770   6.112  13.855 -0.7312 -0.8880  1.0120
10009TIP3   OH254221   0.698   1.388  12.667  0.3206 -0.0534 -0.0464
10009TIP3    H154222   0.729   1.474  12.693  0.8739 -0.4256  0.5386
10009TIP3    H254223   0.664   1.349  12.747  1.1287 -0.8207 -0.0639
10010TIP3   OH254224   6.312   4.809  12.178 -0.1769  0.4284  0.2465
10010TIP3    H154225   6.391   4.755  12.182  0.0766  0.8506  1.5412
10010TIP3    H254226   6.274   4.803  12.266  0.3498  3.0048  0.7477
10011TIP3   OH254227   6.407   3.492  12.363 -0.4185 -0.2898 -0.0249
10011TIP3    H154228   6.469   3.497  12.290 -1.1855 -2.4087 -0.8852
10011TIP3    H254229   6.338   3.555  12.340  0.3319  0.5246 -0.1051
10012TIP3   OH254230   0.281   1.348  11.156 -0.1670 -0.7028  0.0782
10012TIP3    H154231   0.289   1.338  11.061 -0.0080 -0.5542  0.0757
10012TIP3    H254232   0.266   1.259  11.188 -0.4407 -0.7247 -0.1067
10013TIP3   OH254233   2.102   5.195  12.651 -0.8486 -0.0205 -0.6840
10013TIP3    H154234   2.072   5.282  12.625 -2.6778 -0.1700  0.7046
10013TIP3    H254235   2.120   5.202  12.744 -0.1253 -0.9209 -0.7393
10014TIP3   OH254236   2.878   2.027  12.581  0.5891 -0.0586  0.1087
10014TIP3    H154237   2.861   2.110  12.626 -0.2459  0.0860 -0.4638
10014TIP3    H254238   2.929   1.976  12.644  0.9920  0.8325  0.5193
10015TIP3   OH254239   6.016   6.653  10.213 -0.2623 -0.0189 -0.2715
10015TIP3    H154240   6.040   6.603  10.291 -0.2155 -0.5770 -0.6337
10015TIP3    H254241   6.079   6.625  10.147 -1.1696 -0.6240 -0.9042
10016TIP3   OH254242   1.463   5.958  12.931 -0.0541 -0.1901 -0.4934
10016TIP3    H154243   1.488   5.961  12.838  1.1465 -0.5948 -0.2043
10016TIP3    H254244   1.368   5.944  12.929  0.2921 -3.3193 -1.7316
10017TIP3   OH254245   5.092   0.694  12.619  0.0202 -0.5586 -0.1627
10017TIP3    H154246   5.026   0.649  12.671 -0.1467 -0.2105 -0.0718
10017TIP3    H254247   5.090   0.651  12.534  1.8683 -2.6691  0.7616
10018TIP3   OH254248   6.581   2.210  10.730  0.0480  0.1587 -0.4427
10018TIP3    H154249   6.592   2.177  10.819 -2.3361  0.7070  0.1164
10018TIP3    H254250   6.573   2.131  10.676  2.2069 -0.1927 -0.3519
10019TIP3   OH254251   0.920   0.212  13.623  0.0108 -0.3551  0.4244
10019TIP3    H154252   0.984   0.172  13.564  0.2968 -0.7948  1.0185
10019TIP3    H254253   0.955   0.299  13.642 -0.2648 -0.0770 -0.3328
10020TIP3   OH254254   7.228   3.780  12.732 -0.1396  0.0368  0.1302
10020TIP3    H154255   7.239   3.869  12.766  0.4674  0.1779 -0.3967
10020TIP3    H254256   7.309   3.763  12.683  0.0245 -1.0489  0.7433
10021TIP3   OH254257   6.793   4.657  10.401 -0.3530  0.2251  1.2228
10021TIP3    H154258   6.878   4.678  10.363 -1.1488 -0.4205 -1.0975
10021TIP3    H254259   6.781   4.721  10.471  0.8206  2.1653 -0.2608
10022TIP3   OH254260   3.987   5.894  13.218  0.0063 -0.4008  0.2033
10022TIP3    H154261   3.916   5.855  13.167  0.4653 -0.9506 -0.0355
10022TIP3    H254262   3.944   5.947  13.284 -0.6172 -0.4272 -0.1779
10023TIP3   OH254263   3.873   1.980  12.117  0.5881  0.1833  0.3641
10023TIP3    H154264   3.939   1.932  12.066  0.0684 -1.1183  0.8741
10023TIP3    H254265   3.794   1.978  12.062  0.2326 -0.5978  0.8811
10024TIP3   OH254266   6.901   3.395  10.592 -0.0513  0.7096 -0.6162
10024TIP3    H154267   6.968   3.329  10.608 -0.0187  0.5785 -1.2613
10024TIP3    H254268   6.949   3.467  10.550  0.0440  1.4367  0.7007
10025TIP3   OH254269   7.510   5.838  11.919 -0.8417  0.7112 -0.6134
10025TIP3    H154270   7.470   5.805  12.000  0.9301  0.2023  0.1068
10025TIP3    H254271   7.566   5.911  11.947 -1.6554  1.7745 -1.6612
10026TIP3   OH254272   7.194   0.195  10.424  0.5555 -0.2951 -0.3488
10026TIP3    H154273   7.184   0.179  10.518  0.3459 -1.0917 -0.5005
10026TIP3    H254274   7.124   0.143  10.383 -1.0280  2.0676 -0.8060
10027TIP3   OH254275   7.529   1.696  10.388  0.3076 -0.2569  0.1690
10027TIP3    H154276   7.569   1.778  10.359 -1.4627  1.2508  1.6859
10027TIP3    H254277   7.439   1.700  10.356 -0.5618 -0.3472  2.3665
10028TIP3   OH254278   7.450   5.194  11.327 -0.6019 -0.0949  0.2182
10028TIP3    H154279   7.394   5.118  11.310 -0.4337 -0.4872  1.3240
10028TIP3    H254280   7.425   5.223  11.415 -0.2744  0.7933  0.0246
10029TIP3   OH254281   7.392   2.273  11.937  0.1483 -1.0420 -0.0930
10029TIP3    H154282   7.334   2.200  11.961  0.4892 -0.4673  2.9037
10029TIP3    H254283   7.479   2.245  11.965  0.6731 -0.3624 -0.9954
10030TIP3   OH254284   1.079   4.637  11.369  0.2936 -0.4846  0.3824
10030TIP3    H154285   1.053   4.696  11.299 -2.3348  2.2034  3.2873
10030TIP3    H254286   1.023   4.560  11.359  0.3284 -0.3675 -0.7504
10031TIP3   OH254287   3.322   6.872  12.301 -0.2964  0.1331  0.1756
10031TIP3    H154288   3.313   6.927  12.379 -2.4136  0.7696 -0.4433
10031TIP3    H254289   3.244   6.892  12.249  0.1651 -1.6036 -1.2721
10032TIP3   OH254290   3.123   3.308  13.328  0.3598 -0.0543 -0.4680
10032TIP3    H154291   3.131   3.343  13.239 -1.8176  0.8676 -0.3560
10032TIP3    H254292   3.030   3.287  13.337  0.7587 -1.2587  1.2035
10033TIP3   OH254293   5.307   2.821  10.727  0.2739 -0.3153 -0.2197
10033TIP3    H154294   5.238   2.826  10.793 -0.7187 -1.0120 -1.1948
10033TIP3    H254295   5.338   2.911  10.718 -2.3383  0.5100 -1.6885
10034TIP3   OH254296   2.831   4.005  10.767  0.0214 -0.2912  0.2734
10034TIP3    H154297   2.816   4.004  10.673  0.2720 -1.0357  0.2342
10034TIP3    H254298   2.901   4.068  10.780  0.3655 -0.5946 -0.0987
10035TIP3   OH254299   5.599   5.343  13.247 -0.0171  0.5972 -0.1536
10035TIP3    H154300   5.514   5.364  13.208 -1.5292 -1.6943  1.6799
10035TIP3    H254301   5.632   5.269  13.195 -1.0215 -1.0425  1.4550
10036TIP3   OH254302   7.065   1.702  11.952  0.5158  0.1882 -0.4591
10036TIP3    H154303   7.102   1.782  11.989 -0.8247 -0.0333  1.5214
10036TIP3    H254304   6.992   1.732  11.898  0.0988  0.3110  0.1716
10037TIP3   OH254305   3.639   2.052  13.012 -0.0077 -0.1007 -0.1833
10037TIP3    H154306   3.609   2.138  13.039 -1.7970 -0.7561  0.0173
10037TIP3    H254307   3.702   2.027  13.079 -0.3493  0.5619  0.3971
10038TIP3   OH254308   2.525   1.576  11.121  0.4933  0.4977  0.1767
10038TIP3    H154309   2.613   1.612  11.128  0.2183  1.0172  1.2271
10038TIP3    H254310   2.474   1.645  11.078  0.5256  0.3321 -0.1277
10039TIP3   OH254311   1.551   7.116  12.046  0.4949  0.2517 -0.4012
10039TIP3    H154312   1.468   7.151  12.014 -0.5156 -1.3293  0.3571
10039TIP3    H254313   1.611   7.124  11.972 -1.1523 -1.2875 -1.9828
10040TIP3   OH254314   1.952   3.865  12.290 -0.0011 -0.2220 -0.5207
10040TIP3    H154315   1.858   3.877  12.307  0.1938 -1.7212  2.4138
10040TIP3    H254316   1.994   3.936  12.339  0.4386 -2.1614  2.1806
10041TIP3   OH254317   6.837   1.367  10.726  0.6132 -0.0387  0.0187
10041TIP3    H154318   6.773   1.393  10.659  1.9286 -0.3209 -1.3845
10041TIP3    H254319   6.915   1.341  10.677  0.8325 -2.5720  1.5398
10042TIP3   OH254320   4.770   3.415  12.696  0.1628  0.1702 -0.1244
10042TIP3    H154321   4.814   3.331  12.709  0.3395  0.5976  2.5519
10042TIP3    H254322   4.692   3.393  12.644  1.8440 -1.0842 -2.2724
10043TIP3   OH254323   1.919   3.401  10.968  0.0695  0.5719  0.4641
10043TIP3    H154324   1.919   3.370  10.877  1.2070  0.4442  0.4917
10043TIP3    H254325   1.899   3.494  10.961  1.2091  0.7992 -0.0312
10044TIP3   OH254326   5.153   4.847  10.999 -0.0647 -0.3357 -0.3531
10044TIP3    H154327   5.090   4.866  11.068  0.8067  0.0869  0.3569
10044TIP3    H254328   5.145   4.753  10.984  0.0606 -0.5201  0.6734
10045TIP3   OH254329   4.297   2.089  12.178  0.3351  0.2452  0.2142
10045TIP3    H154330   4.273   2.105  12.269  0.9368  0.6790  0.3111
10045TIP3    H254331   4.298   1.994  12.169 -2.5090  0.1849 -0.1299
10046TIP3   OH254332   6.987   6.801  11.702 -1.0793  0.3789 -0.5444
10046TIP3    H154333   6.966   6.812  11.795  0.1436  0.9988 -0.3250
10046TIP3    H254334   6.960   6.711  11.682  1.2775 -0.8365  1.1718
10047TIP3   OH254335   3.580   5.306  10.459 -0.4425 -0.1847 -0.0588
10047TIP3    H154336   3.549   5.248  10.529 -2.0303  0.5241 -0.1307
10047TIP3    H254337   3.539   5.272  10.380 -1.2918  0.9389 -0.1197
10048TIP3   OH254338   6.504   7.248  10.462 -0.4265  0.3642 -0.4655
10048TIP3    H154339   6.544   7.164  10.436  0.0649  0.0202  1.2761
10048TIP3    H254340   6.410   7.229  10.466 -0.3479 -0.0276 -0.3744
10049TIP3   OH254341   0.388   5.481  11.704  0.1232  0.0623  0.8339
10049TIP3    H154342   0.473   5.504  11.741  0.4358 -0.4514  0.4498
10049TIP3    H254343   0.380   5.387  11.718  0.8345 -0.4092 -1.5236
10050TIP3   OH254344   5.318   5.849  11.268  0.1643  0.3034 -0.1850
10050TIP3    H154345   5.298   5.943  11.260 -0.4462  0.0491 -2.3662
10050TIP3    H254346   5.368   5.842  11.349 -2.3211  2.0774  1.6719
10051TIP3   OH254347   7.187   3.140  12.364  0.1906  0.2791 -0.6866
10051TIP3    H154348   7.139   3.057  12.362 -1.1693  1.0533 -1.2152
10051TIP3    H254349   7.120   3.207  12.377  0.9928  1.4925 -2.4562
10052TIP3   OH254350   5.031   7.484  12.298 -0.4681 -0.3289 -0.5529
10052TIP3    H154351   5.009   7.446  12.212 -1.2855 -0.3332 -0.3482
10052TIP3    H254352   4.946   7.505  12.337 -0.0617  0.9556 -0.3128
10053TIP3   OH254353   6.435   2.616  10.569  0.1064 -1.2422  0.5073
10053TIP3    H154354   6.389   2.567  10.501 -1.2179  0.1966  0.2872
10053TIP3    H254355   6.408   2.574  10.651  2.0195 -3.2349  0.1992
10054TIP3   OH254356   6.305   7.158  11.618 -0.0756  0.3758  0.4186
10054TIP3    H154357   6.232   7.109  11.656 -0.4292  1.9156  1.8412
10054TIP3    H254358   6.266   7.241  11.591  0.2518 -0.4630 -3.0816
10055TIP3   OH254359   2.490   5.010  12.583 -0.2203 -0.4320 -0.2903
10055TIP3    H154360   2.416   4.975  12.534  0.9150 -1.2967 -1.4571
10055TIP3    H254361   2.474   5.104  12.588 -1.6019 -0.6629 -0.1358
10056TIP3   OH254362   6.553   2.299  10.399  0.0298 -0.2590  0.0818
10056TIP3    H154363   6.525   2.213  10.431 -0.6535  0.2467  0.8869
10056TIP3    H254364   6.479   2.357  10.417 -0.3005  0.1167 -2.2695
10057TIP3   OH254365   2.443   4.016  10.902  0.1697 -0.0431  0.5958
10057TIP3    H154366   2.381   4.061  10.959  0.1237 -0.8022  1.1616
10057TIP3    H254367   2.490   3.956  10.961 -0.6398 -1.6536 -0.3361
10058TIP3   OH254368   1.179   3.190  11.471  0.0883  0.5999 -0.4401
10058TIP3    H154369   1.189   3.130  11.544  0.4695 -1.5030 -2.1014
10058TIP3    H254370   1.098   3.237  11.488 -0.6212 -0.9371  0.5706
10059TIP3   OH254371   4.130   1.830  11.516 -0.0856  0.2426 -0.3965
10059TIP3    H154372   4.216   1.802  11.484 -0.8547 -1.0670 -1.4281
10059TIP3    H254373   4.149   1.900  11.579  1.9014 -1.7419  1.3951
10060TIP3   OH254374   3.304   6.105  13.576  0.1506  0.6775  0.0105
10060TIP3    H154375   3.297   6.184  13.523 -0.4076  0.4703 -0.2359
10060TIP3    H254376   3.220   6.060  13.563  1.0694 -0.8002 -1.1912
10061TIP3   OH254377   6.816   2.644  11.980 -0.3696  0.3501 -0.0792
10061TIP3    H154378   6.871   2.592  11.920 -1.7000 -2.4813  0.9500
10061TIP3    H254379   6.793   2.722  11.930  0.3559 -0.8400 -2.4261
10062TIP3   OH254380   0.466   4.997  12.783 -0.0350  0.1941  0.5542
10062TIP3    H154381   0.372   5.010  12.793 -0.4083  0.4012 -2.4495
10062TIP3    H254382   0.493   4.956  12.866 -2.5963  0.7512  1.7677
10063TIP3   OH254383   7.426   4.077  10.511 -0.0788  0.1949 -0.4087
10063TIP3    H154384   7.393   4.135  10.579 -0.1664 -2.4523  1.9984
10063TIP3    H254385   7.521   4.082  10.519 -0.0866 -1.1505  0.9681
10064TIP3   OH254386   5.294   4.600  11.441  0.3662 -0.2749  0.8038
10064TIP3    H154387   5.315   4.543  11.515 -0.8165 -0.9278  0.6652
10064TIP3    H254388   5.379   4.625  11.406  0.9578  0.3606  2.5908
10065TIP3   OH254389   2.152   1.684  11.466  0.4278  0.0102  0.5099
10065TIP3    H154390   2.061   1.660  11.481  0.4537 -0.9942 -0.8156
10065TIP3    H254391   2.161   1.770  11.508 -1.0235 -0.0341  0.9626
10066TIP3   OH254392   0.200   6.942  11.015 -0.2192  0.2191  0.0241
10066TIP3    H154393   0.266   7.000  11.055 -0.3565 -0.1979  0.8720
10066TIP3    H254394   0.217   6.857  11.054 -1.1783  0.0762  0.1346
10067TIP3   OH254395   3.228   7.056  10.858 -0.0195  0.0453  0.3022
10067TIP3    H154396   3.204   7.123  10.922 -0.2817  1.5751 -1.3261
10067TIP3    H254397   3.145   7.027  10.821  0.2393  1.0468 -1.1342
10068TIP3   OH254398   7.294   2.660  11.266 -0.0334  0.2099 -0.0448
10068TIP3    H154399   7.235   2.728  11.232  0.3649  1.1784  1.0960
10068TIP3    H254400   7.282   2.665  11.361  0.4651 -0.9141  0.0797
10069TIP3   OH254401   4.355   4.708  11.913 -0.2797  0.0779  0.3208
10069TIP3    H154402   4.301   4.787  11.911 -2.8963 -1.5589  1.1156
10069TIP3    H254403   4.370   4.687  11.821  0.5721  1.5057  0.0949
10070TIP3   OH254404   0.038   0.160  11.437  0.0867  0.2482  0.0527
10070TIP3    H154405   0.053   0.254  11.423  3.1967 -0.3744 -1.5568
10070TIP3    H254406   0.070   0.118  11.358 -1.7034 -2.2352  0.5085
10071TIP3   OH254407   4.268   1.814  11.155  0.2001 -0.0144 -0.3278
10071TIP3    H154408   4.180   1.853  11.152 -0.8618 -2.0271  1.4776
10071TIP3    H254409   4.259   1.733  11.105  1.9549  1.1821 -2.7637
10072TIP3   OH254410   4.106   5.219  11.950  0.2901  0.5297 -0.6199
10072TIP3    H154411   4.150   5.235  12.034 -0.1826 -1.8266  0.1772
10072TIP3    H254412   4.138   5.132  11.924 -1.8831 -0.1184 -1.3079
10073TIP3   OH254413   1.385   5.053  10.938 -0.8559  0.1760  0.6589
10073TIP3    H154414   1.339   5.045  10.854 -1.0841  0.7204  0.7239
10073TIP3    H254415   1.387   4.965  10.973  2.5189 -0.8528 -1.6118
10074TIP3   OH254416   4.247   5.962  11.297  0.6018 -0.7262 -0.4808
10074TIP3    H154417   4.287   5.905  11.363 -1.3212 -0.1384  1.3328
10074TIP3    H254418   4.176   5.909  11.261  1.1313 -0.7472 -1.5183
10075TIP3   OH254419   0.964   5.213  11.956 -0.1002  0.2086 -0.7379
10075TIP3    H154420   0.992   5.234  11.867  3.0832  0.2933  0.1829
10075TIP3    H254421   0.990   5.288  12.008  0.2813 -0.8383  0.6387
10076TIP3   OH254422   3.847   3.495  12.077 -0.3044 -0.5886 -0.0054
10076TIP3    H154423   3.881   3.569  12.127 -1.3884 -0.6394  0.8491
10076TIP3    H254424   3.901   3.492  11.998 -0.9042  1.7622 -0.5658
10077TIP3   OH254425   7.482   2.861  12.073 -0.4846 -0.3898 -0.6417
10077TIP3    H154426   7.532   2.795  12.120  0.0027  1.3476  1.4596
10077TIP3    H254427   7.402   2.872  12.125 -0.6026  0.5643 -1.0031
10078TIP3   OH254428   1.670   6.966  12.227 -0.2275  0.1060  0.1277
10078TIP3    H154429   1.620   6.961  12.309 -1.8730  0.1562 -0.8328
10078TIP3    H254430   1.614   7.015  12.167  0.9795  0.1408 -1.0301
10079TIP3   OH254431   4.689   0.241  13.315  0.0742  0.2806 -0.5766
10079TIP3    H154432   4.752   0.311  13.299  0.7490 -0.3994 -0.9180
10079TIP3    H254433   4.742   0.167  13.342 -0.6085 -0.2106 -0.5714
10080TIP3   OH254434   3.964   4.907  11.117 -0.4618 -0.0962 -0.2022
10080TIP3    H154435   4.025   4.853  11.066 -1.3032 -0.8241 -0.4591
10080TIP3    H254436   3.963   4.991  11.071  0.1937 -0.1371 -0.3098
10081TIP3   OH254437   4.199   4.700  12.557  0.1271  0.3973 -0.1983
10081TIP3    H154438   4.167   4.675  12.471 -2.0100  1.8595  0.0924
10081TIP3    H254439   4.212   4.795  12.551 -0.9553  0.6681  1.3296
10082TIP3   OH254440   0.904   0.938  12.362 -0.3955 -0.1120 -0.1062
10082TIP3    H154441   0.809   0.939  12.346 -0.3845  1.8544 -0.1975
10082TIP3    H254442   0.920   1.015  12.417  0.8765 -1.5789  1.7047
10083TIP3   OH254443   5.310   2.065  10.973  0.0058 -0.6735 -0.6001
10083TIP3    H154444   5.326   2.138  10.913  0.9038 -0.4131 -0.0563
10083TIP3    H254445   5.288   2.107  11.057  0.6229 -1.0217 -0.2605
10084TIP3   OH254446   1.478   4.119  12.259  0.2063 -0.0978 -0.0095
10084TIP3    H154447   1.398   4.116  12.313  0.1364 -1.2757 -0.1369
10084TIP3    H254448   1.454   4.072  12.179  0.3431  1.5439 -1.0472
10085TIP3   OH254449   7.018   0.621  11.363  0.5846 -0.1582 -0.5200
10085TIP3    H154450   7.074   0.547  11.385  2.0626  1.3039  0.9911
10085TIP3    H254451   7.034   0.685  11.433 -0.9665  1.4101 -1.5064
10086TIP3   OH254452   7.596   4.595  12.815 -0.5240 -0.0729 -0.3015
10086TIP3    H154453   7.627   4.656  12.882  0.3159 -0.7937 -0.0077
10086TIP3    H254454   7.512   4.563  12.848 -0.1142 -0.4311  0.4235
10087TIP3   OH254455   4.840   6.642  10.692  0.3858  0.1583  0.4662
10087TIP3    H154456   4.930   6.608  10.692  0.8432  1.3037  1.3265
10087TIP3    H254457   4.850   6.737  10.694 -0.8553  0.4191 -2.0134
10088TIP3   OH254458   5.839   6.816  10.332  0.3728  0.4105 -0.4035
10088TIP3    H154459   5.771   6.856  10.277  0.0832 -1.1444 -1.2168
10088TIP3    H254460   5.880   6.750  10.277  0.9717 -0.3029  0.8407
10089TIP3   OH254461   4.929   3.914  12.895  0.0460  0.4630 -0.2584
10089TIP3    H154462   4.954   4.006  12.906 -1.6460  1.0044 -0.5826
10089TIP3    H254463   4.960   3.891  12.808  0.4468  0.7298 -0.1919
10090TIP3   OH254464   4.346   0.051  12.608 -0.4817 -0.0214  0.3504
10090TIP3    H154465   4.291   0.129  12.600  1.1898  1.1723  0.0279
10090TIP3    H254466   4.286  -0.018  12.637 -1.6550  1.8094  2.5688
10091TIP3   OH254467   4.079   6.691  10.918 -0.3633  0.5172  0.7962
10091TIP3    H154468   3.997   6.729  10.950 -1.2555 -1.0757  0.5664
10091TIP3    H254469   4.079   6.709  10.824 -1.1715 -0.6321  0.5472
10092TIP3   OH254470   0.580   2.505  11.981 -0.5499 -0.1799  0.0614
10092TIP3    H154471   0.544   2.433  11.930  0.3118 -1.9837  1.8312
10092TIP3    H254472   0.675   2.492  11.978 -0.2274  1.9552 -1.0121
10093TIP3   OH254473   2.115   6.125  13.476 -0.8971 -0.1044 -0.5058
10093TIP3    H154474   2.180   6.057  13.495 -1.9719 -1.1332 -0.4264
10093TIP3    H254475   2.156   6.178  13.408 -0.5372 -1.5971 -1.5088
10094TIP3   OH254476   5.308   6.178  12.599  0.3058 -0.0611  0.2716
10094TIP3    H154477   5.392   6.134  12.604 -0.9031 -2.7278 -0.9041
10094TIP3    H254478   5.287   6.202  12.690  1.1856 -1.6626  0.9207
10095TIP3   OH254479   3.871   5.209  11.431 -0.4318 -0.4337 -0.0140
10095TIP3    H154480   3.826   5.241  11.509  2.3042  1.5420  0.8866
10095TIP3    H254481   3.907   5.124  11.457  0.0536 -0.0036  0.7392
10096TIP3   OH254482   2.242   5.815  11.017  0.7450 -0.3661  0.1951
10096TIP3    H154483   2.311   5.749  11.009  0.8810 -0.0501 -1.9230
10096TIP3    H254484   2.226   5.844  10.927 -1.6090  0.1457  0.7079
10097TIP3   OH254485   3.647   4.649  11.269 -0.1933  0.2895  0.4926
10097TIP3    H154486   3.701   4.726  11.290  0.2850  0.4146 -1.0680
10097TIP3    H254487   3.683   4.579  11.324 -0.3135  1.0457  1.5686
10098TIP3   OH254488   3.227   1.392  12.977  0.0807 -0.0680 -0.9211
10098TIP3    H154489   3.289   1.322  12.998 -0.0518  0.4323  1.4167
10098TIP3    H254490   3.280   1.458  12.933  1.1797  0.1321  0.5954
10099TIP3   OH254491   5.840   1.928  10.617 -0.2061  0.3294  0.0175
10099TIP3    H154492   5.846   1.884  10.702 -0.0212 -1.3617 -0.8268
10099TIP3    H254493   5.747   1.929  10.597 -0.3984  2.0167  0.8502
10100TIP3   OH254494   6.858   6.153  10.683 -0.1390 -0.6871 -0.5611
10100TIP3    H154495   6.932   6.212  10.671  0.0479 -0.7754  0.1602
10100TIP3    H254496   6.783   6.201  10.647  0.1264 -0.2755 -0.5647
10101TIP3   OH254497   0.770   1.178  13.176 -0.0308 -0.0360  0.0388
10101TIP3    H154498   0.772   1.084  13.163 -1.0086 -0.1071  0.3200
10101TIP3    H254499   0.859   1.201  13.203 -0.1418 -1.0761  1.3769
10102TIP3   OH254500   6.020   7.281  12.386  1.0228 -0.2876 -0.4092
10102TIP3    H154501   6.010   7.201  12.438  1.2366 -0.1573 -0.1666
10102TIP3    H254502   5.989   7.351  12.444 -0.0584 -0.2902 -0.9503
10103TIP3   OH254503   6.331   0.717  11.522 -0.6749 -0.1503  0.3676
10103TIP3    H154504   6.424   0.737  11.532 -0.6270  0.5862 -1.3372
10103TIP3    H254505   6.287   0.784  11.574 -0.3050  0.7479 -0.4527
10104TIP3   OH254506   2.635   5.419  12.569  0.0076  0.2701 -0.7574
10104TIP3    H154507   2.612   5.349  12.631  2.7779  0.7569  0.9951
10104TIP3    H254508   2.586   5.495  12.601  0.6030  0.2506  0.2494
10105TIP3   OH254509   7.597   5.882  12.566 -0.3037 -0.0853  0.2281
10105TIP3    H154510   7.617   5.972  12.590 -1.5001  0.7619 -1.7290
10105TIP3    H254511   7.641   5.869  12.482 -0.0687 -1.3912  0.5223
10106TIP3   OH254512   0.444   7.471  11.662  0.7601 -0.1404  0.6406
10106TIP3    H154513   0.441   7.446  11.569  0.2143  1.8274  0.0740
10106TIP3    H254514   0.532   7.445  11.691  0.2235 -2.6987  0.2033
10107TIP3   OH254515   1.878   2.883  11.527  0.9900 -0.0371 -0.3951
10107TIP3    H154516   1.967   2.878  11.562  1.8154 -0.9299 -2.4794
10107TIP3    H254517   1.844   2.967  11.559  2.5192  0.2647  0.5367
10108TIP3   OH254518   2.859   2.138  12.323  0.2631 -0.7934  0.1106
10108TIP3    H154519   2.883   2.126  12.415 -1.6361 -2.5224  0.4645
10108TIP3    H254520   2.764   2.148  12.324  0.2296 -0.6455 -1.6418
10109TIP3   OH254521   3.971   7.333  12.003  0.0925 -0.1058 -0.0479
10109TIP3    H154522   4.059   7.329  12.040  0.0031  0.3245  0.2226
10109TIP3    H254523   3.985   7.341  11.909  0.3502  0.2273  0.0145
10110TIP3   OH254524   4.218   7.105  12.470  0.1280 -0.4031  0.1202
10110TIP3    H154525   4.161   7.180  12.483  2.5498  1.3574  1.4649
10110TIP3    H254526   4.305   7.137  12.495  1.8182 -2.7498 -2.2289
10111TIP3   OH254527   7.447   7.556  12.088 -0.4835  0.3683  0.7239
10111TIP3    H154528   7.428   7.490  12.154  2.4976 -0.6172  0.7610
10111TIP3    H254529   7.400   7.634  12.117 -1.1917 -0.7261  2.6743
10112TIP3   OH254530   7.167   5.059  12.407 -0.4991 -0.4223  0.4170
10112TIP3    H154531   7.200   5.045  12.496  1.0320 -0.1278 -0.0801
10112TIP3    H254532   7.086   5.109  12.420  0.9549  1.7809  1.5707
10113TIP3   OH254533   1.799   1.945  12.236  0.3423  0.0559  0.5506
10113TIP3    H154534   1.861   2.012  12.265 -0.2511  0.9594 -0.1994
10113TIP3    H254535   1.803   1.878  12.304  4.4776 -1.5126 -0.9276
10114TIP3   OH254536   6.697   7.202  11.383 -0.3079  0.6108 -0.0803
10114TIP3    H154537   6.786   7.235  11.378  0.0198 -0.1969  0.2783
10114TIP3    H254538   6.642   7.279  11.371  0.4102  0.8458 -2.5565
10115TIP3   OH254539   1.950   4.044  12.019  0.3007  1.0053 -0.1530
10115TIP3    H154540   1.915   4.092  12.094 -0.3586 -0.4170  0.4868
10115TIP3    H254541   1.882   4.049  11.952 -0.3344 -0.0693  0.3760
10116TIP3   OH254542   5.050   5.631  11.042 -0.2163  0.1671 -0.0923
10116TIP3    H154543   5.062   5.605  10.951 -1.0110  0.9391 -0.4338
10116TIP3    H254544   5.033   5.725  11.038  1.3866  0.5517  1.0071
10117TIP3   OH254545   1.920   7.056  11.575  0.1042 -0.0906  0.0917
10117TIP3    H154546   1.985   7.087  11.512  0.4399 -1.2424 -0.1423
10117TIP3    H254547   1.892   6.971  11.541 -0.1660 -0.4514  1.1690
10118TIP3   OH254548   5.133   5.182  11.622  0.2554 -0.2321  0.5639
10118TIP3    H154549   5.218   5.199  11.582  0.8135 -3.0637  0.3330
10118TIP3    H254550   5.096   5.110  11.570 -0.9921 -0.9845  2.3857
10119TIP3   OH254551   2.846   2.426  12.577 -0.1722 -0.2345 -0.3693
10119TIP3    H154552   2.796   2.447  12.656  1.3188  2.3528  0.0130
10119TIP3    H254553   2.911   2.363  12.606 -1.6209 -1.7745 -0.3284
10120TIP3   OH254554   1.801   0.989  11.816 -0.5763  0.6046  0.1926
10120TIP3    H154555   1.814   1.082  11.833 -1.6633  0.9931 -0.9664
10120TIP3    H254556   1.733   0.962  11.877 -0.5835  0.6877  0.2207
10121TIP3   OH254557   3.627   1.456  11.248  0.3185  0.1069 -0.0407
10121TIP3    H154558   3.673   1.436  11.329 -0.8754 -0.5102  0.5016
10121TIP3    H254559   3.649   1.548  11.230 -0.7872  0.8314  1.9569
10122TIP3   OH254560   2.825   6.883  12.434  0.0641  0.0995 -0.1913
10122TIP3    H154561   2.828   6.903  12.528  1.0356  1.6553 -0.5247
10122TIP3    H254562   2.882   6.807  12.424 -1.1533 -0.9679  0.6537
10123TIP3   OH254563   5.926   5.762  11.308  0.4477  0.5059 -0.4388
10123TIP3    H154564   6.020   5.765  11.327  0.4173  2.2768 -0.4719
10123TIP3    H254565   5.920   5.784  11.215 -0.0473  1.0607 -0.2765
10124TIP3   OH254566   1.801   7.129  10.872  0.0074  0.1147  0.0015
10124TIP3    H154567   1.828   7.216  10.844  1.0700 -0.6212 -1.3710
10124TIP3    H254568   1.779   7.139  10.964 -0.5570  1.9669 -0.2986
10125TIP3   OH254569   0.315   6.816  12.472 -0.3656 -0.3095 -0.3406
10125TIP3    H154570   0.280   6.779  12.391 -3.7093  1.4140  0.1306
10125TIP3    H254571   0.292   6.752  12.539 -1.2668  0.1086 -0.2416
10126TIP3   OH254572   1.100   1.487  10.244 -0.0469  1.0606 -0.0401
10126TIP3    H154573   1.004   1.490  10.246 -0.0376  1.4326  1.7338
10126TIP3    H254574   1.126   1.575  10.216 -0.1978  0.4398 -2.3019
10127TIP3   OH254575   7.340   0.608  11.481 -0.6766  0.1394  0.5022
10127TIP3    H154576   7.329   0.516  11.460  0.4310  0.4098 -1.5074
10127TIP3    H254577   7.432   0.617  11.504 -0.5988  0.8606 -0.0591
10128TIP3   OH254578   0.961   1.266  12.753  0.5294 -0.0291  0.2540
10128TIP3    H154579   0.895   1.266  12.822 -0.9500  2.1098 -1.0543
10128TIP3    H254580   1.027   1.328  12.782  0.5071 -0.0177  0.2805
10129TIP3   OH254581   5.969   7.482  12.567 -0.0906 -0.0241 -0.2264
10129TIP3    H154582   5.946   7.445  12.652 -1.2506  1.5643  0.2153
10129TIP3    H254583   6.034   7.549  12.586 -0.5199  0.4963 -0.5320
10130TIP3   OH254584   5.510   0.467  10.706  0.1034  0.0833 -0.2749
10130TIP3    H154585   5.530   0.506  10.791  0.5595 -0.8966  0.0706
10130TIP3    H254586   5.446   0.527  10.667  0.2187  0.7674  0.5681
10131TIP3   OH254587   0.215   2.688  11.800 -0.0280  0.4726 -0.4699
10131TIP3    H154588   0.257   2.604  11.786  0.3557  0.3108  1.3206
10131TIP3    H254589   0.130   2.666  11.838 -0.1455  0.8785 -0.4911
10132TIP3   OH254590   0.133   3.442  10.975  0.3346 -0.2166  0.1178
10132TIP3    H154591   0.061   3.493  10.940  0.1023 -1.1654 -0.8417
10132TIP3    H254592   0.169   3.496  11.046 -1.9048 -0.1204  1.2598
10133TIP3   OH254593   1.843   3.908  10.984  0.5364 -0.3933 -0.1258
10133TIP3    H154594   1.883   3.962  11.052  1.7938 -2.2061  0.6502
10133TIP3    H254595   1.914   3.851  10.953 -0.7782 -1.8157 -0.6623
10134TIP3   OH254596   6.091   3.981  12.312 -0.4199  0.7056 -0.1186
10134TIP3    H154597   6.184   3.961  12.323 -0.5739  0.2258  0.3892
10134TIP3    H254598   6.067   3.939  12.230 -0.0944  1.1917 -0.4697
10135TIP3   OH254599   4.260   2.998  11.494 -0.3227  0.0092 -0.1182
10135TIP3    H154600   4.230   2.931  11.433  3.3154 -2.5780  0.6206
10135TIP3    H254601   4.316   3.055  11.442  0.0401 -0.1418  0.1010
10136TIP3   OH254602   6.834   2.285  12.203 -0.1656 -0.1215  0.1352
10136TIP3    H154603   6.876   2.280  12.289  0.4577  1.1118 -0.0671
10136TIP3    H254604   6.792   2.371  12.203 -2.3418 -1.1363  0.1557
10137TIP3   OH254605   4.258   0.075  12.129 -0.5167 -0.3880 -0.0493
10137TIP3    H154606   4.300   0.156  12.157 -0.3420 -0.5518  0.1753
10137TIP3    H254607   4.204   0.099  12.055  1.0637 -0.4200 -1.2601
10138TIP3   OH254608   5.540   4.663  11.310  0.3314  0.1551 -0.4635
10138TIP3    H154609   5.591   4.594  11.266  0.6875  0.5305 -0.6406
10138TIP3    H254610   5.568   4.744  11.268 -0.9958  0.3008 -1.1134
10139TIP3   OH254611   6.330   5.259  13.164 -0.3836 -0.0683  0.5691
10139TIP3    H154612   6.376   5.251  13.080 -0.0372 -1.8705  0.8866
10139TIP3    H254613   6.316   5.353  13.175  1.5687  0.3918 -0.4314
10140TIP3   OH254614   5.617   5.775  12.010  0.2782 -0.0180  0.0586
10140TIP3    H154615   5.534   5.750  11.970 -0.3094  1.2830  0.4193
10140TIP3    H254616   5.625   5.868  11.991  0.3052  0.4951  2.3658
10141TIP3   OH254617   7.180   5.113  10.789  0.0515 -0.5133 -0.2349
10141TIP3    H154618   7.111   5.087  10.850 -0.7070 -0.7432 -1.1706
10141TIP3    H254619   7.219   5.031  10.760 -0.0182 -0.4396 -0.5422
10142TIP3   OH254620   6.324   6.356  11.036  0.0385 -0.1339 -0.0756
10142TIP3    H154621   6.247   6.398  10.997  0.4368 -0.2221 -0.9631
10142TIP3    H254622   6.356   6.420  11.100  0.4059  0.7667 -1.1292
10143TIP3   OH254623   5.707   6.536  13.389  0.0839  0.0661 -0.2297
10143TIP3    H154624   5.776   6.474  13.412 -0.1989  0.2697  1.2156
10143TIP3    H254625   5.752   6.608  13.345  1.3361  1.7596  3.5160
10144TIP3   OH254626   3.468   4.829  11.869 -0.0348  0.3748 -0.7454
10144TIP3    H154627   3.404   4.899  11.880 -0.1518 -0.0038  1.2779
10144TIP3    H254628   3.520   4.830  11.950  0.6654 -1.1746 -1.1310
10145TIP3   OH254629   0.808   7.293  12.011  0.0959  0.5205  0.0236
10145TIP3    H154630   0.832   7.371  11.961 -1.3299  1.3018  0.5081
10145TIP3    H254631   0.832   7.314  12.101  0.0226  0.2482  0.1059
10146TIP3   OH254632   5.286   1.639  11.200 -0.2015  0.2053  0.0269
10146TIP3    H154633   5.274   1.705  11.268 -0.5483 -1.2803  1.4860
10146TIP3    H254634   5.373   1.602  11.218 -0.5920 -0.6854  0.1299
10147TIP3   OH254635   5.195   5.132  12.603  0.3325  0.0877  0.1795
10147TIP3    H154636   5.127   5.111  12.539  2.6530 -0.6933 -2.1874
10147TIP3    H254637   5.146   5.150  12.684 -2.6934  0.2427 -1.5190
10148TIP3   OH254638   4.682   1.433  11.467  0.6445 -0.3343  0.0110
10148TIP3    H154639   4.730   1.353  11.447 -0.0161 -0.7458  0.0607
10148TIP3    H254640   4.652   1.422  11.557  0.4522 -0.0809 -0.0202
10149TIP3   OH254641   6.013   1.876  11.098  0.3958  0.0204 -0.0322
10149TIP3    H154642   6.069   1.930  11.041 -0.2038  0.1659 -0.4922
10149TIP3    H254643   6.067   1.799  11.118  0.0538 -0.8449 -2.1557
10150TIP3   OH254644   1.074   5.162  12.539  0.5707  0.3936  0.1274
10150TIP3    H154645   1.068   5.234  12.602  2.2893  1.6791 -1.0800
10150TIP3    H254646   0.995   5.171  12.486 -0.6981 -0.4611  1.7808
10151TIP3   OH254647   6.472   3.454  12.778  0.1029  0.0150 -0.1817
10151TIP3    H154648   6.438   3.544  12.778 -0.9410 -0.3722 -0.2186
10151TIP3    H254649   6.494   3.437  12.869 -0.4250  0.0413 -0.0479
10152TIP3   OH254650   7.603   4.451  10.513  0.2037 -0.1644 -0.4243
10152TIP3    H154651   7.551   4.447  10.433  1.6762  0.0571 -1.4384
10152TIP3    H254652   7.553   4.508  10.572 -1.4349 -1.1972 -0.7416
10153TIP3   OH254653   4.793   2.306  11.158  0.0610 -0.4657 -0.0170
10153TIP3    H154654   4.872   2.350  11.124 -1.3365  1.3317 -1.0974
10153TIP3    H254655   4.736   2.378  11.186 -0.9720 -1.7552  1.3472
10154TIP3   OH254656   0.934   4.157  11.423  0.5647  0.5583 -0.1205
10154TIP3    H154657   0.926   4.097  11.349  1.8708 -0.1781  0.3068
10154TIP3    H254658   0.845   4.191  11.435 -0.5583 -2.2406  0.4077
10155TIP3   OH254659   7.200   3.499  12.131  0.6743  0.7168 -0.3220
10155TIP3    H154660   7.113   3.531  12.154  0.4438 -1.8631  3.2409
10155TIP3    H254661   7.258   3.542  12.194  1.1547 -1.3582  0.7258
10156TIP3   OH254662   0.722   4.625  11.890 -0.4993 -0.2494  0.0743
10156TIP3    H154663   0.689   4.622  11.800  0.0548  1.3325 -0.2082
10156TIP3    H254664   0.748   4.535  11.909 -0.2495 -0.5402 -1.5004
10157TIP3   OH254665   1.666   3.295  11.081  0.0349  0.2618 -0.1376
10157TIP3    H154666   1.614   3.321  11.005  1.3316  0.3221 -1.0500
10157TIP3    H254667   1.754   3.329  11.062  0.7343 -1.0016  0.6766
10158TIP3   OH254668   7.156   5.499  11.843  0.5559  0.3252  0.1418
10158TIP3    H154669   7.181   5.514  11.751  2.6550  1.1776  0.7835
10158TIP3    H254670   7.226   5.444  11.877 -1.5967 -2.3232  0.6065
10159TIP3   OH254671   6.120   3.843  10.900  0.4638  0.3469  0.3723
10159TIP3    H154672   6.053   3.847  10.969 -1.2083  1.4200 -1.2253
10159TIP3    H254673   6.164   3.928  10.904  0.8047  0.1601  0.5491
10160TIP3   OH254674   0.619   3.526  10.992  0.4772 -0.4155 -0.0906
10160TIP3    H154675   0.665   3.445  10.972  0.5557 -0.1551 -0.9755
10160TIP3    H254676   0.616   3.529  11.088  0.7328 -1.3113 -0.0521
10161TIP3   OH254677   0.002   0.365  12.665 -0.5460  0.1445  0.1710
10161TIP3    H154678   0.080   0.379  12.612 -0.0650  3.5775  1.5103
10161TIP3    H254679   0.031   0.309  12.737 -0.4641 -2.0740 -1.5136
10162TIP3   OH254680   4.992   3.469  12.543  0.5457 -0.3605  0.6607
10162TIP3    H154681   4.958   3.413  12.473 -1.9642  0.9485  0.6931
10162TIP3    H254682   4.927   3.461  12.613  1.1559  1.0339  1.4216
10163TIP3   OH254683   5.505   0.683  11.226  0.0676 -0.3227  0.1193
10163TIP3    H154684   5.428   0.712  11.178 -1.0388 -2.1046  0.7398
10163TIP3    H254685   5.567   0.756  11.218 -1.2391  0.6841 -1.3359
10164TIP3   OH254686   4.723   5.923  12.562 -0.2206 -0.0654  0.1209
10164TIP3    H154687   4.680   5.906  12.646  1.2740 -0.0940  0.9169
10164TIP3    H254688   4.689   5.856  12.503  1.3854 -2.3877  1.6861
10165TIP3   OH254689   2.484   1.220  12.775 -0.2996  0.0353 -0.3039
10165TIP3    H154690   2.518   1.286  12.835 -2.3374  0.7645  0.1247
10165TIP3    H254691   2.546   1.148  12.781  1.4010  1.4465  0.0436
10166TIP3   OH254692   4.679   5.154  11.821  0.1714 -0.6589  0.3988
10166TIP3    H154693   4.640   5.159  11.733  1.0959  0.0784  0.0141
10166TIP3    H254694   4.762   5.199  11.812  0.5144 -1.0466  1.5412
10167TIP3   OH254695   2.153   7.686  11.480  0.7975  0.1344  0.0875
10167TIP3    H154696   2.111   7.617  11.531  0.1847  0.7573  0.4527
10167TIP3    H254697   2.234   7.704  11.526 -1.2158  3.0008  2.9329
10168TIP3   OH254698   6.168   5.493  12.372  0.5888  0.1632  0.1608
10168TIP3    H154699   6.184   5.488  12.466  0.4669 -0.6169  0.1494
10168TIP3    H254700   6.136   5.406  12.349  1.0431  0.2125 -0.6810
10169TIP3   OH254701   5.181   3.500  11.422 -0.0568  0.4808 -0.2879
10169TIP3    H154702   5.103   3.510  11.368 -0.2603  0.6845  0.0392
10169TIP3    H254703   5.199   3.588  11.454  0.3369  0.4413 -0.4007
10170TIP3   OH254704   2.189   1.509  12.658  0.3133 -0.2621 -0.2358
10170TIP3    H154705   2.176   1.434  12.716  0.4289  0.3791  0.6426
10170TIP3    H254706   2.100   1.534  12.631  0.2600 -0.5680 -0.3541
10171TIP3   OH254707   6.778   4.108  11.446  0.1731  0.6699 -0.6590
10171TIP3    H154708   6.837   4.106  11.522  1.5608  1.2161 -1.6847
10171TIP3    H254709   6.703   4.159  11.476 -0.2986 -0.8594  0.9960
10172TIP3   OH254710   4.402   1.753  11.651 -0.1409  0.3105 -0.0055
10172TIP3    H154711   4.382   1.671  11.695 -1.9955  0.7220  0.0287
10172TIP3    H254712   4.417   1.727  11.560 -0.2408 -0.1183  0.0951
10173TIP3   OH254713   2.637   3.242  11.655 -0.1486 -0.2345 -0.1793
10173TIP3    H154714   2.594   3.316  11.612 -1.3604 -1.2150 -0.7226
10173TIP3    H254715   2.731   3.259  11.645 -0.3901  1.4610  0.1411
10174TIP3   OH254716   3.013   1.325  12.552  0.4556 -0.0058 -0.5580
10174TIP3    H154717   3.101   1.361  12.564  1.7231 -2.4298 -1.7539
10174TIP3    H254718   2.986   1.300  12.640  1.5751 -0.4858 -0.3272
10175TIP3   OH254719   5.124   1.405  11.230  0.1949 -0.0125 -0.7122
10175TIP3    H154720   5.164   1.485  11.194  0.3382 -0.3090 -1.2126
10175TIP3    H254721   5.149   1.407  11.323 -1.3002  1.4550 -0.2850
10176TIP3   OH254722   5.526   3.410  10.791  0.6238 -0.4969 -0.9035
10176TIP3    H154723   5.526   3.403  10.887  1.2508 -1.5772 -0.9653
10176TIP3    H254724   5.560   3.498  10.774 -0.7517  0.2301 -0.1324
10177TIP3   OH254725   7.210   2.769  10.587 -0.0256  0.0389  0.3126
10177TIP3    H154726   7.134   2.827  10.586  1.6333  2.3383 -1.0048
10177TIP3    H254727   7.250   2.779  10.501  1.2285 -1.9173  0.5870
10178TIP3   OH254728   0.929   6.627  11.714 -0.6233  0.9568  0.0382
10178TIP3    H154729   0.886   6.696  11.765 -0.1664  1.2634  0.0174
10178TIP3    H254730   0.885   6.629  11.629 -0.8900  0.9420  0.1747
10179TIP3   OH254731   1.501   6.707  13.289  0.0661 -0.3471 -0.3688
10179TIP3    H154732   1.521   6.775  13.224 -1.4221 -0.0328 -0.5351
10179TIP3    H254733   1.511   6.625  13.242 -3.4719 -0.0763 -1.8390
10180TIP3   OH254734   4.783   0.281  11.120  0.0177  0.4511 -0.5559
10180TIP3    H154735   4.855   0.287  11.057 -1.7113 -2.3959 -3.1412
10180TIP3    H254736   4.704   0.274  11.065 -1.6618 -2.0132  1.8714
10181TIP3   OH254737   6.038   1.426  13.699 -0.2079  0.1405  0.0707
10181TIP3    H154738   5.960   1.433  13.754 -0.4424  0.3418 -0.2798
10181TIP3    H254739   6.041   1.509  13.652  0.8319  0.5865  0.8744
10182TIP3   OH254740   0.706   5.981  11.577 -0.2258  0.2109 -0.0210
10182TIP3    H154741   0.623   5.932  11.574 -0.1081  0.0371 -0.5468
10182TIP3    H254742   0.698   6.045  11.507  0.1518  0.0924 -0.1694
10183TIP3   OH254743   5.804   6.298  11.932  0.0707 -0.4555  0.5696
10183TIP3    H154744   5.793   6.303  12.027 -0.8962 -1.0269  0.5030
10183TIP3    H254745   5.897   6.309  11.918 -0.0101  1.7512  1.4417
10184TIP3   OH254746   1.455   2.923  11.001  0.5564  0.2252 -0.3987
10184TIP3    H154747   1.463   3.011  10.964 -0.3428  0.6957  0.4900
10184TIP3    H254748   1.523   2.919  11.068  1.3252 -0.1691 -1.1752
10185TIP3   OH254749   3.938   4.796  10.801 -0.0266  0.4654  0.0529
10185TIP3    H154750   4.015   4.768  10.849  1.0657  1.3458 -1.1159
10185TIP3    H254751   3.964   4.879  10.759 -1.2665  0.2903 -1.1485
10186TIP3   OH254752   7.171   2.516  12.168  0.3520  0.5214  0.0004
10186TIP3    H154753   7.181   2.580  12.098  1.4521  0.2384 -0.1152
10186TIP3    H254754   7.101   2.458  12.138 -0.3874  1.4384 -0.0647
10187TIP3   OH254755   5.732   2.059  10.912  0.0403  0.3032 -0.3977
10187TIP3    H154756   5.658   2.069  10.853 -0.1864 -0.2124 -0.2054
10187TIP3    H254757   5.785   2.137  10.898 -0.0080  0.1832 -1.2835
10188TIP3   OH254758   1.661   3.314  13.129  0.3642 -0.2675 -0.4574
10188TIP3    H154759   1.750   3.303  13.162  0.7272 -1.5564 -1.7356
10188TIP3    H254760   1.606   3.275  13.197  1.0909 -2.8804 -1.2347
10189TIP3   OH254761   6.033   1.989  11.604 -0.2951 -0.6206 -0.4164
10189TIP3    H154762   6.034   2.014  11.511  0.4841  1.7392  0.1520
10189TIP3    H254763   6.098   2.047  11.644 -0.8697 -1.3500  1.6654
10190TIP3   OH254764   6.773   5.650  12.319 -0.5967 -0.1907 -0.1579
10190TIP3    H154765   6.691   5.614  12.287  0.4750 -2.5671 -0.4664
10190TIP3    H254766   6.807   5.701  12.246 -0.4726 -1.5776 -1.1122
10191TIP3   OH254767   1.995   2.122  12.313  0.4174  0.4230 -0.7212
10191TIP3    H154768   2.077   2.132  12.362 -0.2105 -0.6627  0.6067
10191TIP3    H254769   1.970   2.212  12.290  0.6151  1.0112  1.1888
10192TIP3   OH254770   6.566   0.752  12.283 -0.4082 -0.1743  0.6681
10192TIP3    H154771   6.517   0.684  12.238  0.4392 -1.1559  1.1923
10192TIP3    H254772   6.511   0.830  12.276 -0.9166 -0.6328 -0.8609
10193TIP3   OH254773   1.729   4.792  11.796 -0.1595 -0.3864  0.6973
10193TIP3    H154774   1.637   4.790  11.824  0.1342  0.1281  1.7232
10193TIP3    H254775   1.776   4.833  11.869  0.6907  0.6492 -0.4051
10194TIP3   OH254776   3.550   5.471  11.542  0.3126 -0.1459  0.6530
10194TIP3    H154777   3.482   5.516  11.592  1.2747 -0.8746  2.7586
10194TIP3    H254778   3.629   5.478  11.596  1.2654 -1.5631 -0.4544
10195TIP3   OH254779   4.876   2.609  10.912 -0.1794  0.1753 -0.4107
10195TIP3    H154780   4.784   2.594  10.891 -0.7990  2.3702  0.5059
10195TIP3    H254781   4.877   2.626  11.006  1.2895 -0.4978 -0.2734
10196TIP3   OH254782   2.598   4.531  10.549  0.5992 -0.5067 -0.1310
10196TIP3    H154783   2.645   4.581  10.615 -0.6371  0.1611  0.2890
10196TIP3    H254784   2.632   4.563  10.465  1.5488 -0.7255  0.1626
10197TIP3   OH254785   7.460   3.128  11.998  0.1238 -0.3192 -0.3806
10197TIP3    H154786   7.377   3.168  12.023  0.0550 -0.7440  0.0803
10197TIP3    H254787   7.450   3.035  12.022  0.9512 -0.2546  0.2273
10198TIP3   OH254788   5.482   2.076  12.059  0.0388 -0.3316  0.0933
10198TIP3    H154789   5.483   2.062  11.965 -0.0209  0.7298 -0.0813
10198TIP3    H254790   5.552   2.140  12.075 -0.2244 -0.1794  0.7050
10199TIP3   OH254791   5.551   5.200  10.936  0.1647 -0.1331  0.2691
10199TIP3    H154792   5.489   5.129  10.923  0.5341 -0.3415 -0.4123
10199TIP3    H254793   5.500   5.270  10.976 -0.4465 -0.4045 -0.0279
10200TIP3   OH254794   6.403   3.712  12.763 -0.4786  0.3427  0.7379
10200TIP3    H154795   6.387   3.751  12.677  1.9641  1.1728  0.6028
10200TIP3    H254796   6.333   3.747  12.819 -1.3454  0.7922 -0.5896
10201TIP3   OH254797   2.561   0.100  12.724 -0.0750 -0.5098 -0.5320
10201TIP3    H154798   2.619   0.169  12.755 -1.2062  0.5890 -0.7741
10201TIP3    H254799   2.569   0.031  12.789  2.8624 -1.2039 -1.4807
10202TIP3   OH254800   5.857   1.818  10.868 -0.6255  0.0302  0.8380
10202TIP3    H154801   5.944   1.796  10.902  0.5079  0.3594 -1.6703
10202TIP3    H254802   5.839   1.905  10.903  0.7985  0.6489  0.0913
10203TIP3   OH254803   3.130   3.575  13.351  0.4551 -0.0007  0.5187
10203TIP3    H154804   3.146   3.581  13.257  1.4553 -2.7627  0.4244
10203TIP3    H254805   3.147   3.483  13.373  0.9431  0.6845  3.5180
10204TIP3   OH254806   6.984   1.897  11.304 -0.1404 -0.2858 -0.2538
10204TIP3    H154807   7.048   1.964  11.284 -0.0415 -0.3957 -0.3076
10204TIP3    H254808   6.996   1.878  11.397 -1.4483  1.1305  0.2556
10205TIP3   OH254809   7.468   1.472  11.318 -0.1232  0.6273 -0.5833
10205TIP3    H154810   7.431   1.385  11.329 -0.8481  0.8263 -1.3052
10205TIP3    H254811   7.392   1.529  11.302  0.3098  1.4401  0.1488
10206TIP3   OH254812   0.357   0.069  11.751  0.8190 -0.5511  0.1894
10206TIP3    H154813   0.349   0.034  11.839  1.5341  0.0105  0.4873
10206TIP3    H254814   0.348  -0.007  11.694 -0.5270 -0.8027  0.7007
10207TIP3   OH254815   1.202   1.378  11.639 -0.5423 -0.0577  0.0987
10207TIP3    H154816   1.143   1.398  11.712 -1.3190  0.4569 -0.6520
10207TIP3    H254817   1.212   1.283  11.642  0.6278  0.0821  1.7675
10208TIP3   OH254818   2.253   2.174  11.169 -0.0094  0.1286  0.3190
10208TIP3    H154819   2.309   2.150  11.243  0.6864  1.5179  0.2719
10208TIP3    H254820   2.178   2.116  11.177  1.0941 -1.3140  0.7890
10209TIP3   OH254821   4.386   5.596  12.341 -0.3995 -0.4634  1.1591
10209TIP3    H154822   4.403   5.675  12.290 -0.2823 -0.4015  1.2920
10209TIP3    H254823   4.301   5.612  12.383 -0.2124 -0.2582  1.4670
10210TIP3   OH254824   3.952   1.217  12.029 -0.1184  0.3685  0.1060
10210TIP3    H154825   4.018   1.167  11.981  0.1027  0.0910  0.6840
10210TIP3    H254826   3.932   1.292  11.973 -0.3901 -0.3234 -0.7394
10211TIP3   OH254827   2.212   2.585  10.532  0.1856  0.3467  0.9666
10211TIP3    H154828   2.160   2.508  10.510  0.8462  0.5321 -1.5051
10211TIP3    H254829   2.167   2.624  10.608 -2.0981 -0.5845  0.1737
10212TIP3   OH254830   0.279   2.822  12.347  0.0276  0.2182 -0.2868
10212TIP3    H154831   0.286   2.897  12.407  0.9178 -1.1819  1.4335
10212TIP3    H254832   0.369   2.809  12.316 -0.0300 -0.4160 -0.1890
10213TIP3   OH254833   6.147   4.585  10.753 -0.1962 -0.2365 -0.1382
10213TIP3    H154834   6.149   4.604  10.659 -2.7227  0.7218 -0.0720
10213TIP3    H254835   6.128   4.670  10.794 -1.4164 -1.0335  1.0246
10214TIP3   OH254836   0.883   3.702  12.887 -0.2089  0.1407 -0.5308
10214TIP3    H154837   0.837   3.721  12.968 -0.6492  0.3332 -0.8213
10214TIP3    H254838   0.975   3.691  12.913 -0.6251 -1.8557  0.3105
10215TIP3   OH254839   5.023   2.355  10.950  0.4269  0.4486  0.3900
10215TIP3    H154840   4.968   2.414  10.898  0.1170  0.6242  0.9145
10215TIP3    H254841   4.983   2.269  10.939  0.4804  0.4473  0.1830
10216TIP3   OH254842   6.196   3.717  12.498  0.0455  0.3295  0.0895
10216TIP3    H154843   6.287   3.747  12.499 -0.7125  2.9218  0.0371
10216TIP3    H254844   6.177   3.698  12.406  0.0464  1.5806 -0.1865
10217TIP3   OH254845   5.426   4.867  11.764  0.1311  0.8184  0.1872
10217TIP3    H154846   5.508   4.865  11.814  0.1077  1.0710  0.2377
10217TIP3    H254847   5.357   4.859  11.830  0.0575  2.3746  0.3280
10218TIP3   OH254848   2.708   4.394  12.819  0.0744  0.5226 -0.2916
10218TIP3    H154849   2.660   4.347  12.887  3.0978 -1.4382  0.7306
10218TIP3    H254850   2.660   4.476  12.807 -2.1669 -0.2990  2.1439
10219TIP3   OH254851   5.333   1.181  12.928  0.6664 -0.2288  0.0862
10219TIP3    H154852   5.374   1.199  13.013  0.8792 -2.1655  0.4232
10219TIP3    H254853   5.257   1.240  12.927  0.4821 -0.3623  1.7685
10220TIP3   OH254854   4.706   0.392  10.660 -0.7184 -0.3420  0.1893
10220TIP3    H154855   4.785   0.444  10.677 -0.9469  0.5794 -1.4116
10220TIP3    H254856   4.739   0.307  10.633 -0.2820 -0.1180  0.0004
10221TIP3   OH254857   5.647   5.132  12.157 -0.1253  0.0603  0.8946
10221TIP3    H154858   5.646   5.124  12.253  0.3807 -1.1442  0.8159
10221TIP3    H254859   5.727   5.181  12.139 -0.3858  0.5686  1.0990
10222TIP3   OH254860   3.825   0.158  11.034  0.8562  0.0755 -0.1120
10222TIP3    H154861   3.884   0.213  10.983  1.2024 -1.7423 -1.7983
10222TIP3    H254862   3.745   0.210  11.044  1.8169  1.5853  0.0413
10223TIP3   OH254863   5.922   5.017  11.314  0.1557 -0.0819 -0.3791
10223TIP3    H154864   5.874   4.961  11.375 -0.5194 -0.3863 -1.1691
10223TIP3    H254865   6.013   5.012  11.344 -0.1828 -0.0780  0.7038
10224TIP3   OH254866   6.111   6.487  12.673 -0.6413 -0.3434 -0.4901
10224TIP3    H154867   6.116   6.433  12.752  0.1131  0.1623 -0.1721
10224TIP3    H254868   6.022   6.474  12.640 -0.8392 -0.8687  0.2241
10225TIP3   OH254869   3.627   1.417  12.301 -0.2032  0.1706 -0.4730
10225TIP3    H154870   3.624   1.322  12.299 -2.5259  0.1405 -3.2016
10225TIP3    H254871   3.720   1.439  12.297  0.6604 -1.7981  3.8717
10226TIP3   OH254872   1.720   5.918  11.391 -0.4518 -0.1724  0.1234
10226TIP3    H154873   1.697   5.825  11.401 -0.0627 -0.0883  2.1582
10226TIP3    H254874   1.700   5.957  11.476  1.3513  1.1899 -0.0321
10227TIP3   OH254875   5.820   0.651  11.633 -0.5028  0.3567 -0.0530
10227TIP3    H154876   5.780   0.681  11.715 -0.6543 -0.6658  0.2521
10227TIP3    H254877   5.769   0.574  11.607  1.5313 -1.2951  0.6180
10228TIP3   OH254878   4.360   1.070  12.745  0.2857  0.1237 -0.9606
10228TIP3    H154879   4.335   0.987  12.706  2.2042 -0.7941 -0.3406
10228TIP3    H254880   4.356   1.054  12.840  0.3033  0.8581 -0.8295
10229TIP3   OH254881   7.577   4.495  12.397  0.4606 -0.4739 -0.2644
10229TIP3    H154882   7.566   4.581  12.355  2.7740  0.3246  0.6190
10229TIP3    H254883   7.504   4.488  12.457  1.1770  1.7330  0.9625
10230TIP3   OH254884   3.564   3.819  11.008  0.3077 -0.1000 -0.1256
10230TIP3    H154885   3.563   3.904  10.963 -0.5876 -0.1807 -0.2728
10230TIP3    H254886   3.498   3.828  11.077  0.6836 -0.4540  0.2864
10231TIP3   OH254887   3.756   6.380  11.559 -0.2041  0.3534  0.2388
10231TIP3    H154888   3.716   6.395  11.473 -1.0032 -1.2604  0.2970
10231TIP3    H254889   3.835   6.330  11.540  0.3433  1.1384  0.3654
10232TIP3   OH254890   0.203   6.550  10.582 -0.4107  0.0889 -0.5745
10232TIP3    H154891   0.251   6.478  10.542 -0.1808 -1.3093  1.9985
10232TIP3    H254892   0.112   6.521  10.584 -0.2033 -0.5860  1.2063
10233TIP3   OH254893   6.421   6.581  11.884  0.0720 -0.3965  0.3324
10233TIP3    H154894   6.469   6.534  11.952  3.7128 -0.1900 -1.8501
10233TIP3    H254895   6.384   6.512  11.829 -2.5260 -0.5563  2.0698
10234TIP3   OH254896   4.476   5.879  13.056  0.4918 -0.1726  0.0630
10234TIP3    H154897   4.388   5.872  13.021  1.3792 -0.6111 -2.2501
10234TIP3    H254898   4.483   5.805  13.117 -0.0436 -1.5672 -1.4783
10235TIP3   OH254899   3.800   2.431  12.150 -0.6459  0.2705 -0.5221
10235TIP3    H154900   3.832   2.352  12.194 -0.4722  0.2619 -0.6632
10235TIP3    H254901   3.869   2.454  12.089 -0.7837  0.4201 -0.6223
10236TIP3   OH254902   1.359   6.811  13.511 -0.3765 -0.1037 -0.2419
10236TIP3    H154903   1.296   6.747  13.478  1.0272 -1.9511  0.4474
10236TIP3    H254904   1.440   6.791  13.465  0.1377  1.1140  0.0945
10237TIP3   OH254905   5.195   2.079  10.673 -0.5886 -0.7775  0.1258
10237TIP3    H154906   5.178   2.154  10.730  0.3148 -0.4152 -0.0672
10237TIP3    H254907   5.232   2.117  10.593  1.4951 -1.5082  0.6707
10238TIP3   OH254908   1.170   5.547  12.145 -0.3960 -0.0385 -0.2142
10238TIP3    H154909   1.169   5.622  12.205  0.1499 -0.7183  0.6723
10238TIP3    H254910   1.263   5.526  12.134 -0.5662 -1.2816  0.4653
10239TIP3   OH254911   6.582   1.705  11.864  0.0617  0.0571  0.2514
10239TIP3    H154912   6.631   1.686  11.944 -0.2052 -0.4353  0.3040
10239TIP3    H254913   6.515   1.767  11.891  0.1939  0.1620  0.3368
10240TIP3   OH254914   1.106   4.543  12.857 -0.1057 -0.6180  0.3968
10240TIP3    H154915   1.188   4.585  12.831  0.0176 -0.9699  0.2137
10240TIP3    H254916   1.077   4.593  12.934 -1.0498  1.1625 -1.0350
10241TIP3   OH254917   3.402   2.493  11.211  0.1862 -0.2471 -0.0760
10241TIP3    H154918   3.334   2.559  11.195  0.2633  0.3568  1.8578
10241TIP3    H254919   3.454   2.492  11.130 -1.8653 -0.4671 -1.4659
10242TIP3   OH254920   5.511   1.464  11.511  0.1500 -0.3443  0.6318
10242TIP3    H154921   5.539   1.506  11.430  1.5128 -0.6069  0.9369
10242TIP3    H254922   5.537   1.525  11.580 -0.8738 -0.1883  0.8960
10243TIP3   OH254923   1.563   6.732  10.859 -0.5946  0.2435  0.5025
10243TIP3    H154924   1.563   6.824  10.830 -0.6718  0.2661  0.5725
10243TIP3    H254925   1.570   6.681  10.779 -1.7910  0.2814  0.3607
10244TIP3   OH254926   6.004   2.685  12.381  0.5749 -0.4533 -0.1119
10244TIP3    H154927   5.993   2.594  12.353 -0.4055 -0.0841 -0.9858
10244TIP3    H254928   6.088   2.711  12.344  1.4711 -1.3528  1.1880
10245TIP3   OH254929   4.852   5.381  12.368  0.0556  0.7848  0.0192
10245TIP3    H154930   4.900   5.337  12.438  0.4235 -0.3855 -0.9364
10245TIP3    H254931   4.762   5.387  12.401 -0.7258 -3.2754 -0.8277
10246TIP3   OH254932   2.334   7.099  11.741  0.0456 -0.4895  0.2669
10246TIP3    H154933   2.274   7.074  11.811  0.3823 -1.2041  0.3135
10246TIP3    H254934   2.342   7.020  11.687  1.3268 -0.5944  0.5541
10247TIP3   OH254935   4.433   5.921  12.512 -0.3135  0.8007  0.3829
10247TIP3    H154936   4.405   5.869  12.588 -0.3637  0.6099  0.2321
10247TIP3    H254937   4.361   5.914  12.450  0.1620  0.1198 -0.1000
10248TIP3   OH254938   4.668   0.587  12.318  0.3120 -0.1523  0.1033
10248TIP3    H154939   4.661   0.597  12.223 -1.2865 -1.1723  0.0796
10248TIP3    H254940   4.694   0.495  12.330 -2.3562 -0.9233  0.6586
10249TIP3   OH254941   0.332   4.172  12.509  0.2477  0.4718  0.3873
10249TIP3    H154942   0.374   4.124  12.580 -0.3566  1.6891  1.6124
10249TIP3    H254943   0.388   4.248  12.494 -0.6376  1.2584  0.9439
10250TIP3   OH254944   5.761   7.339  11.357 -0.2350 -0.1922 -0.1076
10250TIP3    H154945   5.723   7.326  11.444 -1.3487  0.4110 -0.4827
10250TIP3    H254946   5.849   7.372  11.374 -0.0220 -1.1584  0.7858
10251TIP3   OH254947   4.751   0.780  11.037 -0.6307 -0.0252 -0.1201
10251TIP3    H154948   4.811   0.766  11.111  0.1789  0.2887 -0.7052
10251TIP3    H254949   4.720   0.692  11.015  0.7886 -0.4051 -0.7664
10252TIP3   OH254950   4.566   3.134  12.234  0.2099  0.4617 -0.7182
10252TIP3    H154951   4.642   3.077  12.249 -0.2393 -0.1302 -0.6702
10252TIP3    H254952   4.537   3.160  12.321 -0.9576 -1.0709 -0.6181
10253TIP3   OH254953   7.221   7.244  10.430  0.4057 -0.5193 -0.7309
10253TIP3    H154954   7.186   7.332  10.424 -0.1288 -0.7409 -0.9371
10253TIP3    H254955   7.305   7.254  10.476  0.4607  0.1183 -0.9588
10254TIP3   OH254956   7.472   6.187  12.311  0.0728 -0.0031 -0.2096
10254TIP3    H154957   7.476   6.236  12.393  4.1086  0.6556 -0.6203
10254TIP3    H254958   7.419   6.241  12.253 -2.5836 -0.3348  1.7410
10255TIP3   OH254959   4.329   3.708  10.860  0.0754  0.5823  0.5903
10255TIP3    H154960   4.353   3.789  10.815  0.8997  0.2641  0.4343
10255TIP3    H254961   4.234   3.706  10.858 -0.0035  2.2131  1.7789
10256TIP3   OH254962   5.227   6.547  12.337 -0.3023 -0.0942  0.6702
10256TIP3    H154963   5.289   6.485  12.300 -0.1679 -0.4731  1.4936
10256TIP3    H254964   5.201   6.603  12.264  1.0964  0.1560  0.3454
10257TIP3   OH254965   2.463   5.063  11.987 -0.1739  0.0608  0.3292
10257TIP3    H154966   2.538   5.008  11.966  0.1857  0.3569  0.8092
10257TIP3    H254967   2.501   5.140  12.029 -0.7278  0.3379  0.3335
10258TIP3   OH254968   5.239   1.953  12.153 -0.3492 -0.7548 -0.0518
10258TIP3    H154969   5.171   1.965  12.087  0.7641  0.3155 -1.0562
10258TIP3    H254970   5.300   2.025  12.139  0.4994 -1.1173  1.4551
10259TIP3   OH254971   0.706   5.109  11.841 -0.4953 -0.3537  0.0368
10259TIP3    H154972   0.798   5.132  11.845 -0.7164  0.3999  1.5146
10259TIP3    H254973   0.693   5.048  11.914 -0.7897 -2.0067 -1.3292
10260TIP3   OH254974   1.371   6.593  11.756  0.6183 -0.4571  0.2585
10260TIP3    H154975   1.439   6.595  11.689  0.5925  0.0078  0.2414
10260TIP3    H254976   1.292   6.625  11.712  0.2841 -1.3524  0.1737
10261TIP3   OH254977   5.446   1.255  11.676  0.8106  0.1910  0.0801
10261TIP3    H154978   5.521   1.285  11.729 -0.1634  2.4613  0.3052
10261TIP3    H254979   5.451   1.308  11.597 -0.1392 -0.1756 -0.2343
10262TIP3   OH254980   4.622   6.083  10.789 -0.1722 -0.1511  0.2796
10262TIP3    H154981   4.686   6.080  10.860 -1.1716 -0.3923  1.2049
10262TIP3    H254982   4.603   6.176  10.777  0.8229 -0.0292 -0.4570
10263TIP3   OH254983   0.692   1.600  10.688 -0.0297  0.3691  0.0371
10263TIP3    H154984   0.596   1.597  10.691 -0.0825 -0.3118 -1.2687
10263TIP3    H254985   0.720   1.572  10.775 -1.0163 -3.7522 -0.7430
10264TIP3   OH254986   1.699   3.529  13.705 -0.1082  0.2783 -0.4582
10264TIP3    H154987   1.667   3.617  13.685  1.6694  1.3850  1.1446
10264TIP3    H254988   1.791   3.531  13.679  0.7024 -0.1324  2.0951
10265TIP3   OH254989   4.046   0.014  11.509 -0.4232  0.1764  0.0434
10265TIP3    H154990   4.098   0.029  11.588  0.1006  0.6459 -0.3863
10265TIP3    H254991   3.961   0.053  11.529  0.0859  1.3633 -0.0672
10266TIP3   OH254992   2.716   2.724  11.452 -0.3733 -0.1497 -0.4807
10266TIP3    H154993   2.750   2.814  11.450  1.1941 -0.7153 -1.2289
10266TIP3    H254994   2.693   2.709  11.543 -0.0507  0.8024 -0.2268
10267TIP3   OH254995   1.430   3.875  11.712  0.6877  0.3792 -0.5809
10267TIP3    H154996   1.518   3.845  11.735 -0.3149 -2.1887  0.2072
10267TIP3    H254997   1.419   3.847  11.621  0.5555  0.3836 -0.5653
10268TIP3   OH254998   0.605   1.793  11.585 -0.2135 -0.0038  0.7390
10268TIP3    H154999   0.519   1.818  11.618 -0.4160  0.4845 -0.1177
10268TIP3    H255000   0.589   1.713  11.534  0.2701 -1.3886  2.6401
10269TIP3   OH255001   1.119   7.209  12.917  0.1893 -0.5606  0.2138
10269TIP3    H155002   1.093   7.249  13.000 -0.0386 -0.6108  0.1674
10269TIP3    H255003   1.154   7.282  12.865  1.0102 -0.6536  0.6213
10270TIP3   OH255004   5.173   4.889  12.145  0.1422 -0.2918 -0.2849
10270TIP3    H155005   5.236   4.953  12.178 -0.7997  2.1319 -2.7780
10270TIP3    H255006   5.114   4.873  12.219  1.2441  0.6092  0.8358
10271TIP3   OH255007   4.660   1.711  11.268 -0.6491 -0.2449  0.1385
10271TIP3    H155008   4.626   1.690  11.181  0.2942  0.0710 -0.3136
10271TIP3    H255009   4.745   1.668  11.272  0.5779  2.0018 -0.1665
10272TIP3   OH255010   7.213   4.091  11.462 -0.1870 -0.5728 -0.3565
10272TIP3    H155011   7.169   4.151  11.401  0.6535 -0.4230 -0.8339
10272TIP3    H255012   7.142   4.041  11.503 -0.8552  0.2598 -0.4679
10273TIP3   OH255013   1.228   3.846  11.297 -0.0843 -0.1044 -0.0766
10273TIP3    H155014   1.262   3.825  11.210  0.2088  1.7414 -0.4475
10273TIP3    H255015   1.248   3.938  11.309 -1.1763 -0.0290  1.4768
10274TIP3   OH255016   5.668   2.738  11.214  0.1178  0.1237 -0.0773
10274TIP3    H155017   5.620   2.730  11.297  0.8964 -0.2589  0.3435
10274TIP3    H255018   5.752   2.695  11.231  0.2049 -0.1388 -1.1294
10275TIP3   OH255019   1.716   3.804  10.637  0.1849 -0.1584  0.0323
10275TIP3    H155020   1.748   3.882  10.681  1.1517 -0.3235 -0.3462
10275TIP3    H255021   1.723   3.824  10.543  0.5294 -0.7223 -0.0694
10276TIP3   OH255022   7.159   7.662  11.163  0.3715 -0.0959  0.3766
10276TIP3    H155023   7.231   7.628  11.216 -0.3107 -1.8037  0.2629
10276TIP3    H255024   7.106   7.585  11.141 -0.8276  0.9428 -0.5596
10277TIP3   OH255025   5.103   2.143  11.559  0.6531 -0.2122  0.0267
10277TIP3    H155026   5.059   2.090  11.625  2.0954 -1.4944 -0.0111
10277TIP3    H255027   5.053   2.128  11.479 -0.4494  0.5091  0.5426
10278TIP3   OH255028   5.892   5.288  11.867 -0.3080  0.2890 -0.0261
10278TIP3    H155029   5.928   5.359  11.921  0.3087  1.7239 -2.1920
10278TIP3    H255030   5.896   5.211  11.924  0.6152  1.6209  1.8459
10279TIP3   OH255031   2.159   4.244  12.259  0.3075  0.7858  0.2565
10279TIP3    H155032   2.086   4.273  12.205  1.2861  1.0105 -0.9749
10279TIP3    H255033   2.215   4.321  12.268  0.8183  0.3940  0.4948
10280TIP3   OH255034   2.243   5.150  10.890 -0.0136  0.1370 -0.5541
10280TIP3    H155035   2.273   5.195  10.811  0.6299 -0.1715 -0.4875
10280TIP3    H255036   2.149   5.135  10.875 -0.0953  0.9132 -0.8504
10281TIP3   OH255037   3.340   3.754  11.365 -0.0716  0.1263  0.0659
10281TIP3    H155038   3.340   3.833  11.311 -0.4018 -0.9327 -1.5636
10281TIP3    H255039   3.253   3.716  11.353 -0.1986 -0.1000  1.4754
10282TIP3   OH255040   0.680   2.013  11.389  0.3117  0.3065  0.0359
10282TIP3    H155041   0.638   2.098  11.374 -1.2242 -0.5855 -1.0599
10282TIP3    H255042   0.642   1.982  11.471 -0.7636 -0.2129 -0.6288
10283TIP3   OH255043   3.291   5.037  11.837 -0.3489  0.4679  0.1484
10283TIP3    H155044   3.312   5.069  11.749  1.1741 -0.2205  0.2329
10283TIP3    H255045   3.301   5.114  11.893  2.5656  0.1368  0.2468
10284TIP3   OH255046   6.904   0.115  11.692  0.3479  0.1695 -0.3490
10284TIP3    H155047   6.867   0.180  11.751  1.1851 -0.3377  0.7729
10284TIP3    H255048   6.910   0.035  11.744  2.2290  0.0224 -0.7107
10285TIP3   OH255049   6.776   0.031  11.097 -0.2765 -0.0010  0.1223
10285TIP3    H155050   6.687   0.050  11.125 -0.0071 -0.1598  1.1379
10285TIP3    H255051   6.829   0.099  11.139 -0.1565  1.5721 -2.3839
10286TIP3   OH255052   2.208   0.366  12.567  0.5979  0.4340 -0.0339
10286TIP3    H155053   2.142   0.354  12.636  0.1290  1.1512 -0.3502
10286TIP3    H255054   2.215   0.280  12.526 -0.9285  0.5813 -0.6774
10287TIP3   OH255055   0.715   4.951  11.281 -0.0727  0.4140  0.2314
10287TIP3    H155056   0.708   5.017  11.350  2.9188  0.4690  0.6340
10287TIP3    H255057   0.652   4.979  11.214 -0.0104  2.8279  1.0659
10288TIP3   OH255058   3.635   6.151  13.520  0.1816  0.2338  0.0097
10288TIP3    H155059   3.638   6.076  13.581 -0.3500  0.0865 -0.1444
10288TIP3    H255060   3.567   6.208  13.555 -0.4549 -0.0728 -0.6972
10289TIP3   OH255061   4.313   0.778  12.106 -0.5260  0.4028  0.1621
10289TIP3    H155062   4.258   0.700  12.104  0.2080 -0.1401  0.7579
10289TIP3    H255063   4.386   0.755  12.163  1.5551  0.2777 -2.3606
10290TIP3   OH255064   1.225   0.925  10.923 -0.1287 -0.0998  0.6639
10290TIP3    H155065   1.141   0.909  10.880 -0.3473 -0.6060  1.2655
10290TIP3    H255066   1.209   1.000  10.980  0.1867  0.6320 -0.1912
10291TIP3   OH255067   1.064   3.140  12.503 -0.1885  0.1995  0.6169
10291TIP3    H155068   0.992   3.201  12.487  1.2132  1.4811 -1.4143
10291TIP3    H255069   1.141   3.185  12.467  2.2695  0.2268  5.1886
10292TIP3   OH255070   2.812   4.443  11.309  0.3661 -0.1340  0.3362
10292TIP3    H155071   2.903   4.417  11.320  0.6350  0.8456  0.5030
10292TIP3    H255072   2.813   4.503  11.234  0.0299  0.6372  0.9277
10293TIP3   OH255073   6.458   2.456  10.767  0.6141  0.3051  0.4350
10293TIP3    H155074   6.508   2.381  10.734  0.2382  0.2712 -0.0754
10293TIP3    H255075   6.463   2.448  10.862 -0.1208 -0.8526  0.3957
10294TIP3   OH255076   2.348   3.866  11.714  0.2412  0.2927  0.1646
10294TIP3    H155077   2.303   3.795  11.670 -0.4422  0.0151  1.2619
10294TIP3    H255078   2.278   3.922  11.747  0.7572  1.1359 -0.1414
10295TIP3   OH255079   7.048   0.972  12.331 -0.2231  0.3960 -0.1000
10295TIP3    H155080   7.070   1.043  12.271  0.4610  0.1635 -0.1340
10295TIP3    H255081   6.953   0.963  12.324 -0.1747  0.5081 -0.9919
10296TIP3   OH255082   2.615   3.784  11.632 -0.2855 -0.3545 -0.0356
10296TIP3    H155083   2.647   3.785  11.722 -0.0212  0.0734 -0.1322
10296TIP3    H255084   2.523   3.812  11.639  0.3949  2.0683 -0.1415
10297TIP3   OH255085   2.585   6.873  12.287  0.2688  0.2682  0.4271
10297TIP3    H155086   2.658   6.861  12.348  0.9506  1.3926 -0.1286
10297TIP3    H255087   2.508   6.879  12.343  0.7711  0.3668  1.1224
10298TIP3   OH255088   2.831   3.487  11.244  0.7499  0.0027  0.1925
10298TIP3    H155089   2.761   3.426  11.223  0.7506  0.4681 -1.2434
10298TIP3    H255090   2.787   3.560  11.288  0.3705  0.1417 -0.4054
10299TIP3   OH255091   0.614   0.961  11.612 -0.3038  0.2765  0.0695
10299TIP3    H155092   0.620   1.031  11.678  0.6357 -0.7531  1.1260
10299TIP3    H255093   0.632   1.005  11.529 -0.8972  1.4935  0.5560
10300TIP3   OH255094   5.923   5.789  11.033  0.0027  0.1874 -0.1323
10300TIP3    H155095   5.857   5.800  10.964  1.6846  1.6512 -1.6025
10300TIP3    H255096   5.981   5.721  11.000  1.0328  1.1614 -0.3900
10301TIP3   OH255097   4.412   2.795  11.290  0.1641 -0.0496 -0.1583
10301TIP3    H155098   4.505   2.791  11.270 -0.1750 -1.3290 -1.7417
10301TIP3    H255099   4.374   2.851  11.223 -0.4623 -1.2137 -0.8207
10302TIP3   OH255100   6.794   4.790  13.156  0.7113 -0.7013  0.1306
10302TIP3    H155101   6.890   4.787  13.151  0.9669  2.4820  1.0795
10302TIP3    H255102   6.774   4.879  13.185 -2.5493 -1.4154  0.4576
10303TIP3   OH255103   5.525   3.528  12.533 -0.5428  0.0334  0.3986
10303TIP3    H155104   5.466   3.514  12.607  0.9087  0.3905  1.6701
10303TIP3    H255105   5.506   3.618  12.505 -1.4351 -0.2640 -0.0148
10304TIP3   OH255106   1.551   5.041  11.486 -0.5122 -0.4191  0.0824
10304TIP3    H155107   1.641   5.062  11.462 -1.1673  2.3616 -0.2294
10304TIP3    H255108   1.545   5.060  11.579 -0.2865 -2.7278  0.6408
10305TIP3   OH255109   4.107   7.384  11.752 -0.3538  0.2715 -0.4326
10305TIP3    H155110   4.130   7.292  11.768 -0.5717  0.2522 -0.2350
10305TIP3    H255111   4.176   7.416  11.694 -0.0435  0.1021 -0.1570
10306TIP3   OH255112   6.004   2.399  12.309  0.0686  0.0535 -0.2067
10306TIP3    H155113   6.051   2.329  12.353 -1.1141 -0.8259 -0.2722
10306TIP3    H255114   5.929   2.355  12.268 -0.8106  1.3881 -0.0927
10307TIP3   OH255115   4.477   2.396  11.833 -0.7859  0.7917  0.0034
10307TIP3    H155116   4.485   2.397  11.738  1.0179  0.3182  0.1206
10307TIP3    H255117   4.445   2.309  11.854 -0.5363  0.6661 -0.1351
10308TIP3   OH255118   7.575   1.013  10.871 -0.6063  0.6949  0.0481
10308TIP3    H155119   7.513   0.941  10.876  1.2074 -0.9814 -0.5400
10308TIP3    H255120   7.578   1.049  10.960  0.6651 -1.9265  1.1505
10309TIP3   OH255121   1.439   2.223  12.508  0.4299  0.0025 -0.0373
10309TIP3    H155122   1.357   2.222  12.459 -0.4105  0.6390  1.2994
10309TIP3    H255123   1.507   2.220  12.441 -0.6734 -0.3401 -1.1860
10310TIP3   OH255124   0.429   4.635  12.413  0.0180  0.0425  0.2463
10310TIP3    H155125   0.379   4.647  12.333 -0.7069  0.7215  0.7814
10310TIP3    H255126   0.508   4.687  12.401 -1.0562  1.8860  0.7867
10311TIP3   OH255127   1.204   2.272  10.515  0.2543 -0.0317 -0.5038
10311TIP3    H155128   1.244   2.205  10.571 -2.0759 -1.9118 -0.9165
10311TIP3    H255129   1.228   2.355  10.556 -0.4708 -1.2755  2.7061
10312TIP3   OH255130   1.374   6.785  12.008  0.6768  0.0814 -0.1501
10312TIP3    H155131   1.428   6.750  11.937 -0.1785 -2.1961  0.2430
10312TIP3    H255132   1.334   6.864  11.971  4.0424  1.7738 -0.4989
10313TIP3   OH255133   5.849   5.436  12.353 -0.0092  0.3545 -0.5410
10313TIP3    H155134   5.779   5.436  12.288  1.8650 -0.4760 -2.7067
10313TIP3    H255135   5.829   5.362  12.411 -1.4505  0.7920 -0.4591
10314TIP3   OH255136   4.110   1.786  12.633  0.5209 -0.1683 -0.2242
10314TIP3    H155137   4.182   1.811  12.691 -1.4507  0.4639  2.1023
10314TIP3    H255138   4.104   1.691  12.643  2.9668 -0.7596 -2.9592
10315TIP3   OH255139   6.335   5.066  10.735 -0.4393 -0.0948  0.1124
10315TIP3    H155140   6.326   5.032  10.824 -0.1168  0.6402  0.4307
10315TIP3    H255141   6.427   5.052  10.712 -0.9907 -2.3501 -0.9805
10316TIP3   OH255142   6.351   5.127  11.699  0.2199  0.6969 -0.3129
10316TIP3    H155143   6.256   5.139  11.699 -0.3392 -2.5333  1.0432
10316TIP3    H255144   6.375   5.122  11.606 -0.9693  1.2016 -0.6616
10317TIP3   OH255145   1.387   5.624  11.126  0.3011 -0.5674  0.1778
10317TIP3    H155146   1.349   5.599  11.041  1.6601 -0.0167 -0.6241
10317TIP3    H255147   1.401   5.719  11.118  1.8003 -0.7554  0.4555
10318TIP3   OH255148   2.829   6.063  11.245 -0.2079  0.3586 -0.3555
10318TIP3    H155149   2.742   6.027  11.228 -0.2568 -0.1971  0.9453
10318TIP3    H255150   2.831   6.144  11.194 -1.3065  0.1399 -0.7878
10319TIP3   OH255151   6.088   1.786  12.439 -0.1229 -0.1740  0.5420
10319TIP3    H155152   6.019   1.733  12.479  0.3326 -0.5818  0.8000
10319TIP3    H255153   6.115   1.846  12.508  0.6099 -0.8264  0.8343
10320TIP3   OH255154   7.072   3.724  12.476 -0.2210  0.1162 -0.3075
10320TIP3    H155155   6.992   3.674  12.494 -1.5897  2.4370  0.4426
10320TIP3    H255156   7.124   3.714  12.556 -0.1143 -0.7002 -0.4633
10321TIP3   OH255157   0.711   5.172  12.132  0.3504 -0.1312  0.2419
10321TIP3    H155158   0.788   5.156  12.077  0.6701 -2.7724  1.3003
10321TIP3    H255159   0.743   5.164  12.221 -0.9320 -0.1686  0.7228
10322TIP3   OH255160   1.719   0.835  11.593 -0.1398  0.3237  0.0191
10322TIP3    H155161   1.793   0.775  11.603 -2.1767 -2.4119 -0.3213
10322TIP3    H255162   1.727   0.895  11.667  3.5528  1.5984 -1.1631
10323TIP3   OH255163   4.351   5.046  10.901  0.5337 -0.0707  0.1167
10323TIP3    H155164   4.310   5.012  10.980 -1.7412  0.8431 -0.5743
10323TIP3    H255165   4.432   4.997  10.892 -0.2942 -1.8403  1.7291
10324TIP3   OH255166   6.531   1.525  11.004  0.4226  0.4548 -0.1376
10324TIP3    H155167   6.511   1.611  11.040 -0.6531  1.1521 -2.2103
10324TIP3    H255168   6.583   1.543  10.926  0.7408 -0.8086 -0.2405
10325TIP3   OH255169   4.306   7.498  11.584  0.6817  0.0856 -0.5962
10325TIP3    H155170   4.354   7.460  11.510  1.1181  0.4497 -0.5074
10325TIP3    H255171   4.369   7.557  11.625  2.0271 -3.2783  2.7211
10326TIP3   OH255172   1.347   1.853  11.088  0.1017 -0.3676  0.5522
10326TIP3    H155173   1.400   1.792  11.140  2.0919  0.1548 -0.7736
10326TIP3    H255174   1.370   1.940  11.122 -0.1223 -0.1486  0.1543
10327TIP3   OH255175   2.880   4.876  12.542  0.2781 -0.7221 -0.2136
10327TIP3    H155176   2.837   4.901  12.623  2.7288 -2.1515  1.6841
10327TIP3    H255177   2.898   4.958  12.497 -2.4323  0.0102 -0.1148
10328TIP3   OH255178   2.043   6.025  11.720 -0.5000  0.4049 -0.0406
10328TIP3    H155179   2.115   5.973  11.756 -2.8799 -2.2839  1.2558
10328TIP3    H255180   1.967   5.966  11.724 -3.3572  3.8303  1.0438
10329TIP3   OH255181   7.628   0.415  10.184  0.5635  0.5086 -0.7488
10329TIP3    H155182   7.567   0.351  10.222  1.8434 -1.1526 -1.3952
10329TIP3    H255183   7.604   0.419  10.092  1.0445  0.2983 -0.8852
10330TIP3   OH255184   0.863   0.108  12.362  0.7637  0.6388 -0.2563
10330TIP3    H155185   0.869   0.095  12.457  1.4418  2.3017 -0.0337
10330TIP3    H255186   0.769   0.116  12.345  0.5996 -0.2238  0.1801
10331TIP3   OH255187   0.728   5.502  12.504 -0.1705 -0.7466 -0.0466
10331TIP3    H155188   0.735   5.590  12.543  0.0766 -1.4011  1.4559
10331TIP3    H255189   0.634   5.489  12.491 -0.2341 -0.3940  0.0515
10332TIP3   OH255190   5.053   7.626  10.527 -0.0755 -0.2149  0.4414
10332TIP3    H155191   5.067   7.564  10.456  0.4944  0.9906 -0.5210
10332TIP3    H255192   4.984   7.586  10.580 -0.7909 -0.9564 -0.9926
10333TIP3   OH255193   7.240   1.312  12.523  0.1014  0.2722  0.5201
10333TIP3    H155194   7.333   1.330  12.514  0.0721  0.7038  1.0527
10333TIP3    H255195   7.204   1.389  12.568 -0.7312  0.7002 -0.8005
10334TIP3   OH255196   0.556   0.733  11.869 -0.5226 -0.3698  0.2555
10334TIP3    H155197   0.542   0.677  11.946 -1.6936 -3.4921 -2.0061
10334TIP3    H255198   0.636   0.700  11.830 -1.9688 -1.5806 -1.8953
10335TIP3   OH255199   2.913   2.791  11.971 -0.4178 -0.1905  0.1654
10335TIP3    H155200   2.999   2.770  11.935 -0.9975 -0.3510 -1.1821
10335TIP3    H255201   2.906   2.886  11.962 -0.3541 -0.1650  0.3689
10336TIP3   OH255202   3.717   6.045  12.982  0.5245 -0.1422  0.0050
10336TIP3    H155203   3.626   6.075  12.989  0.7708  1.1219 -1.4148
10336TIP3    H255204   3.713   5.951  12.995 -0.5257  0.2464  3.2517
10337TIP3   OH255205   1.182   4.548  11.738  0.2873  0.0730 -0.3561
10337TIP3    H155206   1.245   4.510  11.676  1.2706  0.7580  0.2107
10337TIP3    H255207   1.151   4.628  11.694  0.8703  0.4772 -0.0480
10338TIP3   OH255208   1.224   6.386  11.517  0.0094  0.7446  0.0600
10338TIP3    H155209   1.296   6.374  11.455  0.2933  0.8435  0.3638
10338TIP3    H255210   1.216   6.481  11.525 -0.8927  0.7562 -0.8135
10339TIP3   OH255211   0.925   5.117  12.960  0.0043 -0.4064  0.2889
10339TIP3    H155212   0.913   5.063  13.038  0.4107 -0.5238  0.2746
10339TIP3    H255213   1.018   5.107  12.938 -0.3004 -1.1257 -0.7591
10340TIP3   OH255214   0.710   1.342  10.572  0.3943 -0.6346 -0.6407
10340TIP3    H155215   0.780   1.277  10.558  0.0545 -0.9852 -0.7395
10340TIP3    H255216   0.745   1.401  10.638  1.0483 -0.4194 -1.1669
10341TIP3   OH255217   2.907   6.989  11.085  0.1646 -0.1928  0.3152
10341TIP3    H155218   2.940   7.045  11.155  0.5775 -0.1136  0.0636
10341TIP3    H255219   2.813   7.007  11.081  0.2557  0.3106  0.3888
10342TIP3   OH255220   4.639   3.601  11.310  0.2884  0.1641 -0.7416
10342TIP3    H155221   4.572   3.603  11.379 -0.1268 -2.5041 -0.9714
10342TIP3    H255222   4.589   3.602  11.228  0.6287  0.1266 -0.9499
10343TIP3   OH255223   3.822   5.455  13.020  0.1752 -0.5292  0.6807
10343TIP3    H155224   3.765   5.506  13.078 -0.0010 -1.2002  1.1064
10343TIP3    H255225   3.833   5.371  13.065  1.2282 -0.5312  0.4416
10344TIP3   OH255226   3.870   6.110  12.755 -0.2159 -0.0543  0.0141
10344TIP3    H155227   3.948   6.158  12.782 -0.0252 -1.1614  1.5532
10344TIP3    H255228   3.816   6.104  12.834  0.1299 -3.0003  0.1657
10345TIP3   OH255229   3.675   1.485  13.296 -0.1302  0.1760  0.4426
10345TIP3    H155230   3.768   1.474  13.276  0.0305  0.3892  1.0573
10345TIP3    H255231   3.655   1.575  13.269 -0.1139  0.1964  0.5005
10346TIP3   OH255232   4.862   5.685  11.738  0.0358 -0.0288  0.5325
10346TIP3    H155233   4.807   5.651  11.667 -0.4631  0.6230  0.5963
10346TIP3    H255234   4.952   5.679  11.704 -0.1807  0.0794 -0.0723
10347TIP3   OH255235   5.126   0.647  11.599  0.1529  0.4380 -0.3741
10347TIP3    H155236   5.155   0.720  11.545  0.5191  0.5904  0.0181
10347TIP3    H255237   5.052   0.682  11.648 -0.1792  0.2994 -0.7729
10348TIP3   OH255238   5.733   4.549  10.918 -0.1426  0.5061  0.2097
10348TIP3    H155239   5.785   4.526  10.996 -1.1991  0.0487  0.7984
10348TIP3    H255240   5.750   4.643  10.905 -0.0996  0.6329  1.1066
10349TIP3   OH255241   1.480   4.955  12.359 -0.2906  0.3504 -0.0064
10349TIP3    H155242   1.397   4.981  12.319  0.2552  0.4535 -1.0998
10349TIP3    H255243   1.514   4.887  12.301  0.4366  0.3742  0.3902
10350TIP3   OH255244   7.250   6.356  13.047  0.1144  0.2170 -0.2935
10350TIP3    H155245   7.341   6.329  13.057  0.4473  1.9795  2.6507
10350TIP3    H255246   7.255   6.444  13.010 -0.1355  1.4020  2.2811
10351TIP3   OH255247   5.926   4.391  10.807 -0.1396  0.2154 -0.2217
10351TIP3    H155248   5.850   4.447  10.820  0.5914  1.2340 -0.2213
10351TIP3    H255249   5.995   4.450  10.779  0.5025 -0.7803 -0.8056
10352TIP3   OH255250   1.345   5.934  11.766  0.1088  0.2970  0.0145
10352TIP3    H155251   1.262   5.973  11.794  0.8873  2.0706 -0.0306
10352TIP3    H255252   1.369   5.982  11.687  1.2054 -0.1617  0.0555
10353TIP3   OH255253   6.476   6.558  11.226 -0.0054 -0.0665  0.2595
10353TIP3    H155254   6.450   6.484  11.280 -1.7069  0.5409  0.3435
10353TIP3    H255255   6.416   6.629  11.252 -1.7333 -0.0573 -3.1712
10354TIP3   OH255256   1.339   6.631  12.852 -0.0012  0.3842 -0.1344
10354TIP3    H155257   1.425   6.643  12.893 -0.7106  1.3477  1.1020
10354TIP3    H255258   1.357   6.642  12.758  1.0388  1.7859  0.1897
10355TIP3   OH255259   3.681   1.067  11.848 -0.2355  0.5965 -0.4200
10355TIP3    H155260   3.674   1.000  11.915  1.3600 -1.0716 -1.8270
10355TIP3    H255261   3.745   1.129  11.883  0.7010 -0.3400 -0.4171
10356TIP3   OH255262   4.959   1.727  10.640  0.4930 -0.0616 -0.3441
10356TIP3    H155263   4.895   1.663  10.674  0.6829 -0.0084  0.1213
10356TIP3    H255264   4.905   1.802  10.614  0.3623 -0.0052  0.0743
10357TIP3   OH255265   3.620   6.573  11.984  0.2031 -0.1817 -0.2282
10357TIP3    H155266   3.614   6.600  12.076 -0.3280 -1.4744  0.1526
10357TIP3    H255267   3.529   6.561  11.957  0.3880 -2.6273  0.0125
10358TIP3   OH255268   2.335   1.096  10.539 -0.3531 -0.4405  0.5892
10358TIP3    H155269   2.269   1.118  10.474 -0.3186 -0.7426  0.4474
10358TIP3    H255270   2.323   1.002  10.555 -1.2647 -0.1036  2.0491
10359TIP3   OH255271   2.552   3.850  11.108 -0.6574 -0.1779  0.1808
10359TIP3    H155272   2.641   3.836  11.075 -1.2417  0.2678 -1.7324
10359TIP3    H255273   2.564   3.888  11.195  1.0212 -0.3268  0.0433
10360TIP3   OH255274   3.091   1.901  12.714  0.1946 -0.4346 -0.6527
10360TIP3    H155275   3.161   1.850  12.754 -0.0074  0.3175  0.7243
10360TIP3    H255276   3.133   1.982  12.686 -0.0391 -0.1480 -0.1868
10361TIP3   OH255277   4.704   1.666  10.680  0.3748 -0.0818 -0.1489
10361TIP3    H155278   4.666   1.738  10.729  0.2554 -0.6437  0.6075
10361TIP3    H255279   4.629   1.613  10.653  0.4596  0.0833 -0.7169
10362TIP3   OH255280   7.364   1.655  11.876 -0.1794  0.1137 -0.3507
10362TIP3    H155281   7.383   1.742  11.842 -0.7804 -0.6762 -2.9369
10362TIP3    H255282   7.269   1.645  11.868 -0.1811 -0.6077  0.3886
10363TIP3   OH255283   6.020   1.218  12.116 -0.0444  0.0030  0.2613
10363TIP3    H155284   6.015   1.313  12.127  2.5452  0.0856  1.4059
10363TIP3    H255285   6.039   1.205  12.023  0.6564  0.6882  0.2983
10364TIP3   OH255286   1.989   2.372  10.916 -0.9556  0.3312  0.6161
10364TIP3    H155287   1.974   2.351  10.824 -1.3426  0.0263  0.7462
10364TIP3    H255288   2.059   2.437  10.915 -0.2893 -0.3669  0.1469
10365TIP3   OH255289   1.907   0.490  12.685  0.6127  0.0909  0.4871
10365TIP3    H155290   1.919   0.580  12.657  1.7024 -0.3692 -0.6247
10365TIP3    H255291   1.858   0.449  12.614  1.9561 -0.6853 -0.0376
10366TIP3   OH255292   4.939   2.878  11.417  0.6925 -0.3431  0.2420
10366TIP3    H155293   5.002   2.842  11.354  2.5398  1.9052  0.6811
10366TIP3    H255294   4.981   2.958  11.450 -2.3312  1.2022  0.6813
10367TIP3   OH255295   3.119   5.997  12.130 -0.3288 -0.5644 -0.1796
10367TIP3    H155296   3.134   5.987  12.224 -0.3083 -0.4936 -0.1755
10367TIP3    H255297   3.174   6.071  12.105  0.5736 -1.2958 -0.4576
10368TIP3   OH255298   3.712   1.198  10.777  0.6488  0.2986  0.4719
10368TIP3    H155299   3.669   1.283  10.767  0.6858  0.2850  0.1728
10368TIP3    H255300   3.775   1.195  10.705 -1.1072 -1.0348 -1.1451
10369TIP3   OH255301   2.272   5.204  13.219 -0.2062  0.2876  0.8200
10369TIP3    H155302   2.308   5.131  13.169 -1.3747 -0.5211  1.1326
10369TIP3    H255303   2.271   5.173  13.310 -0.1086  0.9370  1.0497
10370TIP3   OH255304   7.398   3.639  12.330 -0.2541  0.5129 -0.4833
10370TIP3    H155305   7.320   3.692  12.312 -1.3979 -0.4257  1.3191
10370TIP3    H255306   7.430   3.672  12.414  0.6426  0.1518 -0.6716
10371TIP3   OH255307   5.083   4.389  10.756  0.3857  0.0896  0.4567
10371TIP3    H155308   5.164   4.387  10.705 -0.1130  1.5124 -0.4775
10371TIP3    H255309   5.083   4.307  10.806  1.9683 -0.3265 -0.1676
10372TIP3   OH255310   5.249   2.337  11.997  0.6490 -0.0646 -0.3020
10372TIP3    H155311   5.292   2.374  11.920  1.7107 -1.5518 -0.4810
10372TIP3    H255312   5.209   2.256  11.965 -2.8053  1.4521 -0.2431
10373TIP3   OH255313   7.538   6.435  10.792  0.2250 -0.4674 -0.7081
10373TIP3    H155314   7.606   6.435  10.859 -0.0860  0.2778 -0.3815
10373TIP3    H255315   7.584   6.449  10.710  0.9954 -4.2447 -1.1092
10374TIP3   OH255316   2.785   3.200  12.390 -0.3232  0.3584  0.3552
10374TIP3    H155317   2.838   3.144  12.333 -1.5677 -0.8798  0.3628
10374TIP3    H255318   2.707   3.218  12.338 -1.0400  0.0097  1.2997
10375TIP3   OH255319   2.421   1.059  11.816 -0.0982 -0.1356 -0.0249
10375TIP3    H155320   2.421   0.992  11.747  0.7990 -0.4691  0.2839
10375TIP3    H255321   2.331   1.060  11.848 -0.3880 -0.3881 -0.8079
10376TIP3   OH255322   6.576   4.373  10.958 -0.4274 -0.3865  0.7796
10376TIP3    H155323   6.534   4.311  10.898  1.7630 -0.2438 -1.0179
10376TIP3    H255324   6.572   4.457  10.912  2.6445 -0.5566 -0.0161
10377TIP3   OH255325   3.476   0.172  11.597  0.5497  0.3653 -0.4890
10377TIP3    H155326   3.489   0.133  11.510 -0.9483 -0.0984 -0.5309
10377TIP3    H255327   3.430   0.254  11.581 -2.2642 -1.0049 -0.0413
10378TIP3   OH255328   2.486   2.648  11.049 -0.0226 -0.4980  0.1849
10378TIP3    H155329   2.436   2.578  11.008  1.5167  0.3637 -3.5992
10378TIP3    H255330   2.570   2.609  11.072 -0.1181 -0.4679  0.6079
10379TIP3   OH255331   0.326   3.625  10.603 -0.9821  0.0071 -0.1267
10379TIP3    H155332   0.396   3.580  10.556 -1.4497 -0.2154 -0.6157
10379TIP3    H255333   0.355   3.626  10.694 -0.6546 -0.6828 -0.2213
10380TIP3   OH255334   6.786   5.128  10.493  0.0853 -0.4428 -0.4995
10380TIP3    H155335   6.726   5.188  10.449  0.8896  0.8554  0.1186
10380TIP3    H255336   6.843   5.185  10.545  1.9506 -1.6160 -1.1578
10381TIP3   OH255337   1.279   5.294  11.897 -0.3154  0.7034 -0.0426
10381TIP3    H155338   1.292   5.204  11.867  0.5714  0.0570  2.0824
10381TIP3    H255339   1.283   5.346  11.817  0.2245 -1.0238 -1.2172
10382TIP3   OH255340   0.629   2.588  10.784 -0.2577  0.0664  0.1350
10382TIP3    H155341   0.573   2.582  10.861  0.3356 -2.1668  0.4668
10382TIP3    H255342   0.717   2.598  10.820 -0.1420  0.7045 -0.3150
10383TIP3   OH255343   2.403   1.973  13.288  0.2392  0.1326  0.2280
10383TIP3    H155344   2.430   1.987  13.379  1.9485  1.2827 -0.4123
10383TIP3    H255345   2.448   1.893  13.262  1.6601  1.0704 -0.2882
10384TIP3   OH255346   1.399   2.646  12.644  0.1307  0.1761  0.7420
10384TIP3    H155347   1.345   2.671  12.569  1.0505 -0.0141 -0.0212
10384TIP3    H255348   1.438   2.728  12.675  0.9875  0.0780 -0.0151
10385TIP3   OH255349   0.463   4.077  11.218 -0.7512  0.1294 -0.7718
10385TIP3    H155350   0.480   4.112  11.130  1.8692  0.2711 -0.2802
10385TIP3    H255351   0.398   4.138  11.255  0.0983  1.6641 -1.6736
10386TIP3   OH255352   3.828   4.559  12.228 -0.4417  0.3029  0.6601
10386TIP3    H155353   3.821   4.641  12.276 -0.4865  0.2134  0.8080
10386TIP3    H255354   3.772   4.498  12.277 -0.7318  0.2911  0.3211
10387TIP3   OH255355   3.021   4.215  11.271 -0.7625 -0.4571  0.2063
10387TIP3    H155356   2.962   4.144  11.246 -2.1697 -0.1840  2.4713
10387TIP3    H255357   3.042   4.198  11.362  0.1308  1.1983  0.3433
10388TIP3   OH255358   3.297   6.637  11.636  0.0134  0.2233  0.0665
10388TIP3    H155359   3.238   6.565  11.618 -0.3364  0.2040  1.2713
10388TIP3    H255360   3.336   6.658  11.550  0.8573 -2.0109 -0.1422
10389TIP3   OH255361   1.325   3.541  11.089 -0.3535 -0.6343 -0.3610
10389TIP3    H155362   1.285   3.513  11.172 -1.7039  0.4767 -0.5986
10389TIP3    H255363   1.311   3.467  11.030 -1.7686 -0.4149 -0.3252
10390TIP3   OH255364   2.492   5.839  11.690 -0.2830 -0.4423 -0.1280
10390TIP3    H155365   2.520   5.770  11.751 -0.5855  0.0198  0.5451
10390TIP3    H255366   2.516   5.805  11.604 -0.8214 -1.5952  0.1501
10391TIP3   OH255367   2.192   2.919  12.044 -0.0252  0.0879 -0.0540
10391TIP3    H155368   2.274   2.937  11.997 -1.2960 -0.6878 -2.7987
10391TIP3    H255369   2.131   2.984  12.010 -1.0098 -0.4995  0.5659
10392TIP3   OH255370   3.386   3.094  12.271 -0.4085  0.2096 -0.4473
10392TIP3    H155371   3.375   3.001  12.251  0.2247  0.0774 -0.2108
10392TIP3    H255372   3.304   3.135  12.244 -0.5865 -0.3784 -0.8005
10393TIP3   OH255373   2.340   3.515  12.044 -0.3237 -0.2152  0.0065
10393TIP3    H155374   2.400   3.572  11.996 -0.4999 -1.4201 -1.7612
10393TIP3    H255375   2.310   3.568  12.118  0.2860  1.5874 -0.9779
10394TIP3   OH255376   5.079   0.899  10.971 -0.3052 -0.2265 -0.3845
10394TIP3    H155377   5.008   0.842  10.998  0.1838  0.1431  1.9053
10394TIP3    H255378   5.038   0.984  10.956 -0.5055 -0.2756 -0.1172
10395TIP3   OH255379   7.307   0.641  10.951 -0.2920 -0.0982 -0.1015
10395TIP3    H155380   7.235   0.702  10.968  0.0378  0.1381  0.4771
10395TIP3    H255381   7.274   0.583  10.883 -1.1826 -0.2436  0.4412
10396TIP3   OH255382   5.865   2.233  10.562  0.0691  0.8857  0.1548
10396TIP3    H155383   5.792   2.243  10.501 -1.7929  0.4213  2.1795
10396TIP3    H255384   5.859   2.143  10.592  2.8566  0.1534 -1.1941
10397TIP3   OH255385   2.515   7.316  11.800 -0.1485 -0.0160 -0.1557
10397TIP3    H155386   2.482   7.239  11.754 -1.0744  1.0189 -1.2894
10397TIP3    H255387   2.514   7.291  11.892 -2.0099 -0.8284 -0.3405
10398TIP3   OH255388   3.952   0.349  10.824 -0.2752  0.2960 -0.0028
10398TIP3    H155389   4.000   0.431  10.828 -1.7073  1.2764 -1.4977
10398TIP3    H255390   4.019   0.281  10.818  0.9316  1.3074  1.4342
10399TIP3   OH255391   7.128   1.398  13.026  0.1189  0.0604 -0.2041
10399TIP3    H155392   7.066   1.380  13.097  0.4314 -0.5150 -0.0702
10399TIP3    H255393   7.209   1.422  13.069 -0.5089  2.7593 -0.3755
10400TIP3   OH255394   1.718   7.584  10.956 -0.1007 -0.1615 -0.1543
10400TIP3    H155395   1.662   7.614  10.884 -1.0758  0.7827  0.9631
10400TIP3    H255396   1.660   7.581  11.032  1.0818 -0.4133  0.7644
10401TIP3   OH255397   1.318   7.408  12.789  0.2822  0.7117  0.0677
10401TIP3    H155398   1.281   7.492  12.817  0.9384  0.5156  1.6832
10401TIP3    H255399   1.388   7.391  12.852  0.9458 -0.4867 -0.9500
10402TIP3   OH255400   1.138   1.234  10.960 -0.1988  0.2993 -0.6384
10402TIP3    H155401   1.047   1.245  10.985  0.3598  0.4945  1.5506
10402TIP3    H255402   1.188   1.276  11.030  1.6241 -2.2730 -0.2191
10403TIP3   OH255403   6.063   5.736  12.452  0.1729  0.2369  0.0459
10403TIP3    H155404   6.151   5.739  12.490  0.3243 -1.0369 -0.1726
10403TIP3    H255405   6.025   5.655  12.485 -0.6593  0.4181 -0.4355
10404TIP3   OH255406   4.048   7.356  11.102 -0.2524  0.2853 -0.0837
10404TIP3    H155407   4.067   7.397  11.186 -0.3728 -0.8449  0.5105
10404TIP3    H255408   3.997   7.422  11.055 -1.2146  0.4986  1.1921
10405TIP3   OH255409   4.606   1.460  11.744 -0.1490 -0.0975  0.4675
10405TIP3    H155410   4.604   1.364  11.747 -2.8702 -0.1281  0.1664
10405TIP3    H255411   4.525   1.487  11.787 -0.0553  2.0229 -0.5607
10406TIP3   OH255412   0.139   3.338  11.592 -0.2763 -0.3170 -0.4502
10406TIP3    H155413   0.055   3.293  11.591  1.1631 -3.2440 -1.7510
10406TIP3    H255414   0.185   3.304  11.515  2.2432  0.8561  0.4458
10407TIP3   OH255415   6.567   5.554  12.171 -0.0655  0.9532 -0.1028
10407TIP3    H155416   6.474   5.549  12.148 -0.1208 -0.7441  0.3506
10407TIP3    H255417   6.612   5.546  12.087 -0.3223  0.3818 -0.1920
10408TIP3   OH255418   4.560   5.775  12.168 -0.3957 -0.1656  0.0990
10408TIP3    H155419   4.617   5.846  12.140  0.8862 -1.6284 -1.2185
10408TIP3    H255420   4.551   5.719  12.090 -3.4527 -0.1601  0.3240
10409TIP3   OH255421   7.431   1.777  11.386 -0.1135  0.2419  0.3910
10409TIP3    H155422   7.410   1.862  11.348 -1.1834  0.0014  0.4081
10409TIP3    H255423   7.350   1.726  11.378  0.1622 -0.3978  1.4121
10410TIP3   OH255424   7.409   7.357  10.626 -0.3655  0.2002 -0.2575
10410TIP3    H155425   7.487   7.305  10.642  0.4432  0.9043 -1.7183
10410TIP3    H255426   7.372   7.372  10.713  1.1514 -0.1099  0.4663
10411TIP3   OH255427   1.071   3.931  12.472 -0.4054 -0.0856 -0.2087
10411TIP3    H155428   1.079   3.842  12.438 -1.5265  0.2669 -1.4949
10411TIP3    H255429   1.007   3.973  12.415  2.6714  2.6807 -2.0336
10412TIP3   OH255430   5.372   2.285  13.055  0.1088  0.2229 -0.1058
10412TIP3    H155431   5.340   2.330  12.977  1.2464  0.9693 -0.1764
10412TIP3    H255432   5.463   2.263  13.034 -0.1746 -1.4135  0.2432
10413TIP3   OH255433   2.726   6.545  12.113  0.2604  1.1187 -0.2670
10413TIP3    H155434   2.794   6.611  12.112  1.5989 -0.0262 -4.3900
10413TIP3    H255435   2.770   6.463  12.090 -2.1205 -0.1126 -0.8853
10414TIP3   OH255436   0.821   0.903  11.130  0.3967  0.2164 -0.6114
10414TIP3    H155437   0.894   0.930  11.184 -1.3162 -0.6105  2.3574
10414TIP3    H255438   0.798   0.816  11.163 -3.9764  1.7344  1.1138
10415TIP3   OH255439   1.652   6.484  12.740 -0.0259 -0.4978  0.1480
10415TIP3    H155440   1.593   6.411  12.758 -0.3965 -0.4597 -0.8859
10415TIP3    H255441   1.631   6.548  12.809 -2.1241  0.0565 -0.9312
10416TIP3   OH255442   3.386   4.613  11.223  0.2322 -0.4121 -0.5004
10416TIP3    H155443   3.364   4.560  11.300  0.1704  0.6908  0.2750
10416TIP3    H255444   3.477   4.638  11.236 -0.4161  1.6832  0.4370
10417TIP3   OH255445   2.837   5.346  11.788  0.0071 -0.2865  0.0587
10417TIP3    H155446   2.880   5.293  11.855 -1.0495 -2.2619 -0.7391
10417TIP3    H255447   2.908   5.391  11.742  0.9500 -1.1114  0.6843
10418TIP3   OH255448   2.391   7.340  13.097 -0.3150 -0.0953  0.1783
10418TIP3    H155449   2.348   7.423  13.076 -1.7544 -0.6500  0.7737
10418TIP3    H255450   2.479   7.348  13.060 -0.3775  1.7353  0.3342
10419TIP3   OH255451   3.117   3.456  10.663 -0.2988  0.0449  0.3025
10419TIP3    H155452   3.204   3.426  10.633 -0.2354  0.7957 -0.3097
10419TIP3    H255453   3.134   3.539  10.706 -0.8779  0.9581 -1.1646
10420TIP3   OH255454   7.483   2.800  11.089 -0.3262 -0.2036 -0.1071
10420TIP3    H155455   7.435   2.758  11.160  1.6392  0.3804  1.6412
10420TIP3    H255456   7.565   2.751  11.083  0.1424  0.6570 -1.0140
10421TIP3   OH255457   6.468   5.462  11.557  0.1893  0.2237  0.2873
10421TIP3    H155458   6.497   5.381  11.599 -1.7110 -1.1696 -0.9397
10421TIP3    H255459   6.549   5.506  11.530  1.2565 -1.2642  0.9545
10422TIP3   OH255460   0.312   6.366  13.114  0.0088 -0.0274  0.4860
10422TIP3    H155461   0.265   6.328  13.040  0.1187 -1.4387  1.1098
10422TIP3    H255462   0.292   6.308  13.187  2.1485 -0.2793  0.9291
10423TIP3   OH255463   7.201   6.540  11.417 -0.0009  0.1480  0.5165
10423TIP3    H155464   7.294   6.553  11.399  0.2079 -0.3296  1.2045
10423TIP3    H255465   7.199   6.480  11.491 -0.8633 -1.5254 -0.7752
10424TIP3   OH255466   7.337   5.550  10.644 -0.3432  0.1681  0.2927
10424TIP3    H155467   7.299   5.510  10.722 -0.5939 -0.0479  0.0623
10424TIP3    H255468   7.313   5.491  10.573 -0.1251  0.3699  0.0492
10425TIP3   OH255469   3.525   6.759  11.789  0.2830 -0.1137  0.4219
10425TIP3    H155470   3.605   6.710  11.771  0.4817  0.0033  0.9364
10425TIP3    H255471   3.465   6.695  11.826 -1.0701 -0.9559 -2.8867
10426TIP3   OH255472   1.671   0.424  12.540  0.3053  0.2488  0.3663
10426TIP3    H155473   1.633   0.342  12.573  0.0504  0.7670  1.3985
10426TIP3    H255474   1.635   0.433  12.452 -1.8501  0.5928  1.1996
10427TIP3   OH255475   1.073   0.801  12.670 -0.7926 -0.1411 -0.1330
10427TIP3    H155476   1.030   0.743  12.608  1.9499 -0.0839 -2.3021
10427TIP3    H255477   1.079   0.885  12.624  2.4598 -0.4450 -0.4785
10428TIP3   OH255478   3.820   4.185  11.784  0.7920  0.0155  0.2388
10428TIP3    H155479   3.742   4.240  11.782  0.5854 -0.2858 -0.3098
10428TIP3    H255480   3.827   4.151  11.695  1.8544  0.4658  0.1384
10429TIP3   OH255481   3.118   7.322  10.771  0.2127  0.3762 -0.7216
10429TIP3    H155482   3.164   7.370  10.839 -0.8546  1.1167 -0.5101
10429TIP3    H255483   3.127   7.377  10.693  2.2195 -0.8890 -1.4745
10430TIP3   OH255484   4.002   3.700  12.893  0.0662 -0.8021 -0.2154
10430TIP3    H155485   3.960   3.786  12.885 -1.1943 -1.2430  1.1671
10430TIP3    H255486   4.083   3.718  12.941  0.5524 -0.2012 -1.2283
10431TIP3   OH255487   6.797   0.157  11.419  0.0386 -0.2500  0.0196
10431TIP3    H155488   6.838   0.072  11.406  0.4493  0.2935 -2.8885
10431TIP3    H255489   6.820   0.181  11.509  1.3107 -2.4487  0.3591
10432TIP3   OH255490   3.644   5.910  13.318 -0.5113 -0.2046  0.5021
10432TIP3    H155491   3.577   5.842  13.315  0.3887 -1.2052  1.7303
10432TIP3    H255492   3.614   5.970  13.386 -0.3762 -0.4240  0.7576
10433TIP3   OH255493   2.915   5.483  12.249  0.5192  0.0124  0.5775
10433TIP3    H155494   2.935   5.564  12.296 -0.8637 -0.6322  2.4041
10433TIP3    H255495   2.820   5.475  12.254  0.4619 -0.7827 -1.2163
10434TIP3   OH255496   4.813   7.645  10.958 -0.1967  0.4203 -0.3404
10434TIP3    H155497   4.848   7.641  11.047  1.2905 -1.4625 -0.9323
10434TIP3    H255498   4.823   7.737  10.932 -0.4036  0.9370  1.3141
10435TIP3   OH255499   5.013   6.424  12.472  0.5405  0.2849 -0.6616
10435TIP3    H155500   5.096   6.452  12.434  0.5096  0.4551 -0.6082
10435TIP3    H255501   5.029   6.421  12.566  0.4726  0.3760 -0.6459
10436TIP3   OH255502   5.610   3.335  12.109 -0.0505  0.2521 -0.2071
10436TIP3    H155503   5.699   3.366  12.125 -0.2069  0.4884  0.2366
10436TIP3    H255504   5.572   3.400  12.050 -0.0962  0.4358  0.0235
10437TIP3   OH255505   6.430   7.539  12.195  0.0897 -0.6850  0.1721
10437TIP3    H155506   6.360   7.598  12.170  0.5573  0.5279  1.6137
10437TIP3    H255507   6.416   7.522  12.288  0.8828 -1.5782  0.1493
10438TIP3   OH255508   2.721   4.791  12.262 -0.3781 -0.0322 -0.0630
10438TIP3    H155509   2.742   4.804  12.355  0.3721  2.1061 -0.4649
10438TIP3    H255510   2.662   4.716  12.261  0.3533 -0.7230  2.0408
10439TIP3   OH255511   6.616   2.811  12.715 -0.1036  0.5987 -0.6071
10439TIP3    H155512   6.612   2.761  12.797  0.2806 -0.3695 -1.1615
10439TIP3    H255513   6.567   2.891  12.733 -2.0941 -0.6518 -0.1377
   7.68049   7.68049  30.00000
